 Gaussian 16, Revision A.03,
 Gaussian 16:  ES64L-G16RevA.03 25-Dec-2016

 ----------------------------------------------------------------------
 #b3lyp/svp scf=(tight,noincore) Test #IOP(5/87=12) Density=Current Pop
 =(MK,readradii) iop(6/33=2) iop(6/42=6)
 ----------------------------------------------------------------------

 -----------------
 CaMKII_loop3_84.0
 -----------------
 Symbolic Z-matrix:
 Charge =  0 Multiplicity = 1

                         Standard orientation:
 ---------------------------------------------------------------------
 Center     Atomic      Atomic             Coordinates (Angstroms)
 Number     Number       Type             X           Y           Z
 ---------------------------------------------------------------------
      1          6           0        3.160750    3.021879    3.732426
      2          6           0        2.256131    2.947057    2.509043
      3          8           0        2.707563    2.880087    1.373207
      4          1           0        4.144239    2.625346    3.481382
      5          1           0        3.258896    4.060339    4.049919
      6          1           0        2.727614    2.433785    4.541498
      7          7           0        0.947854    3.017553    2.772180
      8          6           0       -0.200567    2.888392    1.886151
      9          6           0       -0.630408    4.259072    1.380410
     10          8           0       -1.811690    4.574057    1.443303
     11          6           0       -1.296894    2.012403    2.478444
     12          6           0       -2.410482    1.719915    1.481011
     13          8           0       -2.044678    1.564511    0.292761
     14          8           0       -3.606967    1.707225    1.837328
     15          1           0        0.644855    3.010472    3.738949
     16          1           0        0.225896    2.325211    1.044511
     17          1           0       -1.744232    2.658869    3.232746
     18          1           0       -0.830209    1.059260    2.763264
     19          7           0        0.319076    5.053226    0.883721
     20          6           0        0.021169    6.298599    0.209779
     21          6           0       -1.094382    6.222606   -0.829197
     22          8           0       -1.859102    7.178969   -0.943533
     23          6           0        1.270522    6.919925   -0.414618
     24          6           0        2.465231    7.011629    0.521951
     25          6           0        3.678508    7.762982   -0.022500
     26          6           0        4.720018    8.203940    0.998633
     27          7           0        5.267402    6.976365    1.589843
     28          1           0        1.195868    4.588682    0.717784
     29          1           0       -0.275339    7.033022    0.960382
     30          1           0        1.020026    7.946012   -0.693002
     31          1           0        1.580222    6.402960   -1.322821
     32          1           0        2.908786    6.045274    0.739017
     33          1           0        2.204405    7.478498    1.474895
     34          1           0        3.317882    8.701013   -0.451275
     35          1           0        4.158541    7.264279   -0.877288
     36          1           0        4.363323    8.928105    1.727505
     37          1           0        5.530749    8.672990    0.441491
     38          1           0        4.727252    6.411932    2.234091
     39          1           0        5.433349    6.257432    0.885218
     40          1           0        6.168880    7.192357    1.986812
     41          7           0       -1.364977    5.071837   -1.459998
     42          6           0       -2.456923    4.869209   -2.384929
     43          6           0       -3.865237    4.729090   -1.828135
     44          8           0       -4.841403    4.920046   -2.541672
     45          6           0       -2.057865    3.877475   -3.477547
     46          6           0       -1.466779    2.625077   -2.829999
     47          8           0       -2.206814    1.620059   -2.970309
     48          8           0       -0.398828    2.528129   -2.194168
     49          1           0       -0.765837    4.276482   -1.322007
     50          1           0       -2.561700    5.784540   -2.977796
     51          1           0       -1.176212    4.165572   -4.039853
     52          1           0       -2.885501    3.636952   -4.150279
     53          7           0       -4.005607    4.468459   -0.529456
     54          6           0       -5.271631    4.361118    0.174576
     55          6           0       -6.041716    3.067942   -0.040981
     56          8           0       -7.247504    3.105115    0.202522
     57          1           0       -3.201737    4.475738    0.089123
     58          1           0       -5.921074    5.155459   -0.173341
     59          1           0       -5.032987    4.397841    1.235707
     60          7           0       -5.427502    1.984047   -0.526381
     61          6           0       -6.188179    0.839962   -0.976423
     62          6           0       -6.406088   -0.223020    0.087478
     63          8           0       -7.106537   -1.212096   -0.087166
     64          6           0       -5.661433    0.281218   -2.300373
     65          6           0       -4.541844   -0.732386   -2.161709
     66          7           0       -4.614437   -1.818800   -2.947926
     67          8           0       -3.627628   -0.683121   -1.343980
     68          1           0       -4.439565    2.045174   -0.719109
     69          1           0       -7.181947    1.204334   -1.230703
     70          1           0       -5.293538    1.092408   -2.938358
     71          1           0       -6.487148   -0.128095   -2.880336
     72          1           0       -5.401418   -1.915488   -3.571073
     73          1           0       -3.858269   -2.472101   -2.842532
     74          7           0       -5.710578   -0.056962    1.225718
     75          6           0       -6.012194   -0.906521    2.356282
     76          6           0       -5.317023   -2.262395    2.327252
     77          8           0       -5.511640   -3.048516    3.246566
     78          1           0       -5.072253    0.700053    1.378260
     79          1           0       -7.076643   -1.123755    2.475685
     80          1           0       -5.695994   -0.339957    3.228591
     81          7           0       -4.483505   -2.446509    1.306688
     82          6           0       -3.331235   -3.328526    1.311126
     83          6           0       -1.970832   -2.642498    1.319565
     84          8           0       -1.734132   -1.661433    0.615020
     85          6           0       -3.337451   -4.184797    0.052968
     86          6           0       -4.632550   -4.950537   -0.080297
     87          6           0       -5.144561   -5.694455    0.984894
     88          6           0       -5.198061   -4.993058   -1.360801
     89          6           0       -6.324717   -6.416857    0.756709
     90          6           0       -6.340943   -5.764482   -1.586247
     91          6           0       -6.897798   -6.499886   -0.525119
     92          8           0       -7.971219   -7.343263   -0.683500
     93          1           0       -4.549505   -1.736904    0.593102
     94          1           0       -3.500770   -3.959688    2.179856
     95          1           0       -2.550279   -4.925859    0.173746
     96          1           0       -3.117898   -3.587422   -0.823297
     97          1           0       -4.585418   -5.900122    1.889415
     98          1           0       -4.809346   -4.426079   -2.198855
     99          1           0       -6.587668   -7.130891    1.522941
    100          1           0       -6.857395   -5.743061   -2.535836
    101          1           0       -8.211294   -7.238640   -1.604922
    102          7           0       -1.015399   -3.155300    2.104410
    103          6           0        0.402229   -2.856414    1.999066
    104          6           0        1.118876   -4.038329    1.359071
    105          8           0        0.893534   -5.199202    1.684486
    106          6           0        1.024504   -2.478139    3.331988
    107          6           0        0.296486   -1.325047    4.012480
    108          6           0        2.489030   -2.125255    3.043656
    109          6           0        0.671320   -1.196422    5.485930
    110          1           0       -1.302836   -3.949011    2.653958
    111          1           0        0.475442   -1.977724    1.358485
    112          1           0        0.894931   -3.346425    3.976497
    113          1           0       -0.780182   -1.466876    3.858633
    114          1           0        0.523433   -0.400114    3.494894
    115          1           0        2.904727   -1.829306    3.998229
    116          1           0        3.003454   -3.059068    2.842011
    117          1           0        2.467630   -1.410442    2.217892
    118          1           0        0.430316   -2.058305    6.118524
    119          1           0        1.759505   -1.152712    5.479339
    120          1           0        0.314745   -0.257130    5.901241
    121          7           0        2.040696   -3.675181    0.461423
    122          6           0        2.925784   -4.637697   -0.150446
    123          6           0        4.366640   -4.212379    0.048144
    124          8           0        4.641295   -3.167072    0.634657
    125          6           0        2.575279   -4.768334   -1.625905
    126          8           0        2.482277   -3.478023   -2.202922
    127          1           0        2.168198   -2.693125    0.275120
    128          1           0        2.807741   -5.587927    0.367366
    129          1           0        1.612165   -5.243829   -1.812496
    130          1           0        3.348140   -5.363065   -2.123579
    131          1           0        2.390055   -3.602787   -3.144850
    132          7           0        5.375642   -4.976059   -0.407169
    133          6           0        6.793049   -4.813063   -0.130239
    134          6           0        7.426096   -3.603790   -0.793193
    135          8           0        8.139787   -2.888938   -0.084016
    136          6           0        7.410743   -6.157755   -0.511367
    137          1           0        5.163788   -5.895167   -0.757822
    138          1           0        6.911014   -4.655376    0.941124
    139          1           0        6.763181   -6.965997   -0.176989
    140          1           0        7.675399   -6.229544   -1.564791
    141          1           0        8.255006   -6.383512    0.132957
    142          7           0        7.106797   -3.317559   -2.059495
    143          6           0        7.696488   -2.176421   -2.731261
    144          6           0        7.493152   -0.874758   -1.968092
    145          8           0        8.440460   -0.165786   -1.659276
    146          6           0        7.141655   -2.004204   -4.147313
    147          1           0        6.447122   -3.947671   -2.498114
    148          1           0        8.772277   -2.337132   -2.832501
    149          1           0        7.276711   -2.976627   -4.623709
    150          1           0        6.066994   -1.843360   -4.132089
    151          1           0        7.546736   -1.146625   -4.680106
    152          7           0        6.256388   -0.621246   -1.520046
    153          6           0        5.775275    0.578455   -0.882748
    154          6           0        6.015590    0.748794    0.612254
    155          8           0        6.022321    1.861491    1.122117
    156          6           0        4.291513    0.757871   -1.211170
    157          6           0        3.469773   -0.479887   -0.863467
    158          6           0        1.978411   -0.277100   -1.108247
    159          8           0        1.505029   -0.222344   -2.266483
    160          8           0        1.233138   -0.081069   -0.126035
    161          1           0        5.569418   -1.358062   -1.634830
    162          1           0        6.424067    1.307594   -1.371855
    163          1           0        4.255595    1.028651   -2.265678
    164          1           0        3.963240    1.685100   -0.739702
    165          1           0        3.687756   -0.876595    0.132779
    166          1           0        3.866644   -1.294790   -1.462907
    167          7           0        6.215877   -0.347048    1.347928
    168          6           0        6.955695   -0.392544    2.587564
    169          1           0        7.965693   -0.754689    2.394120
    170          1           0        7.004984    0.607379    3.018987
    171          1           0        6.456149   -1.065534    3.284724
    172          1           0        5.934849   -1.255630    0.995221
    173         20           0       -1.027822   -0.006088   -1.349531
    174          8           0       -1.013478   -0.857502   -4.005992
    175          1           0       -1.237049   -1.712475   -4.363675
    176          1           0       -0.947300   -0.286926   -4.771540
 ---------------------------------------------------------------------

 SCF Done:  E(RB3LYP) =  -5333.58717852     A.U. after   19 cycles

 The electronic state is 1-A.
 Alpha  occ. eigenvalues -- -145.32378 -19.15789 -19.14800 -19.14290 -19.13065
 Alpha  occ. eigenvalues --  -19.11106 -19.10431 -19.10222 -19.09857 -19.09689
 Alpha  occ. eigenvalues --  -19.09120 -19.08346 -19.07557 -19.06424 -19.05239
 Alpha  occ. eigenvalues --  -19.04890 -19.04424 -19.03617 -19.03350 -19.03123
 Alpha  occ. eigenvalues --  -19.03106 -19.02002 -19.01736 -19.01501 -15.38128
 Alpha  occ. eigenvalues --  -14.58284 -14.38956 -14.38190 -14.36004 -14.35432
 Alpha  occ. eigenvalues --  -14.35353 -14.35175 -14.35165 -14.33969 -14.32467
 Alpha  occ. eigenvalues --  -14.31315 -14.30948 -14.29241 -14.28847 -14.28843
 Alpha  occ. eigenvalues --  -12.51751 -12.51698 -12.51684 -10.35904 -10.31640
 Alpha  occ. eigenvalues --  -10.29938 -10.28776 -10.28565 -10.28503 -10.28412
 Alpha  occ. eigenvalues --  -10.27897 -10.27324 -10.27256 -10.26675 -10.26015
 Alpha  occ. eigenvalues --  -10.25957 -10.25921 -10.25633 -10.25442 -10.24506
 Alpha  occ. eigenvalues --  -10.23909 -10.23695 -10.23281 -10.23273 -10.23114
 Alpha  occ. eigenvalues --  -10.22697 -10.22528 -10.22363 -10.21960 -10.21915
 Alpha  occ. eigenvalues --  -10.21855 -10.21803 -10.21502 -10.21258 -10.20836
 Alpha  occ. eigenvalues --  -10.20570 -10.20394 -10.20261 -10.19215 -10.18849
 Alpha  occ. eigenvalues --  -10.18226 -10.18110 -10.17927 -10.17913 -10.17658
 Alpha  occ. eigenvalues --  -10.17518 -10.17460 -10.17349 -10.17134 -10.16860
 Alpha  occ. eigenvalues --  -10.16796 -10.16765 -10.16591 -10.16533 -10.15810
 Alpha  occ. eigenvalues --  -10.15223 -10.14354  -1.75064  -1.13736  -1.06457
 Alpha  occ. eigenvalues --   -1.04336  -1.04044  -1.03579  -1.03438  -1.03095
 Alpha  occ. eigenvalues --   -1.03013  -1.02899  -1.02721  -1.02322  -1.02247
 Alpha  occ. eigenvalues --   -1.02170  -1.01493  -1.00458  -1.00366  -0.99528
 Alpha  occ. eigenvalues --   -0.98716  -0.98553  -0.97677  -0.97490  -0.96955
 Alpha  occ. eigenvalues --   -0.96229  -0.95998  -0.95811  -0.94298  -0.93211
 Alpha  occ. eigenvalues --   -0.92939  -0.92087  -0.91801  -0.91283  -0.89716
 Alpha  occ. eigenvalues --   -0.89622  -0.89173  -0.88834  -0.88397  -0.88152
 Alpha  occ. eigenvalues --   -0.87250  -0.86863  -0.86586  -0.85649  -0.85005
 Alpha  occ. eigenvalues --   -0.83338  -0.83244  -0.82152  -0.81160  -0.79316
 Alpha  occ. eigenvalues --   -0.78173  -0.77832  -0.77448  -0.76683  -0.76593
 Alpha  occ. eigenvalues --   -0.75212  -0.73843  -0.73726  -0.72975  -0.72437
 Alpha  occ. eigenvalues --   -0.72060  -0.71514  -0.71116  -0.70955  -0.69605
 Alpha  occ. eigenvalues --   -0.69347  -0.68959  -0.68533  -0.68103  -0.67373
 Alpha  occ. eigenvalues --   -0.67143  -0.65757  -0.65732  -0.64291  -0.63945
 Alpha  occ. eigenvalues --   -0.63454  -0.63195  -0.62311  -0.62140  -0.61462
 Alpha  occ. eigenvalues --   -0.61345  -0.60581  -0.60317  -0.59787  -0.59580
 Alpha  occ. eigenvalues --   -0.58759  -0.58511  -0.58474  -0.57648  -0.57353
 Alpha  occ. eigenvalues --   -0.57130  -0.56515  -0.56449  -0.55977  -0.55507
 Alpha  occ. eigenvalues --   -0.55303  -0.55058  -0.54852  -0.54510  -0.54249
 Alpha  occ. eigenvalues --   -0.53834  -0.53807  -0.53562  -0.53410  -0.53071
 Alpha  occ. eigenvalues --   -0.52943  -0.52695  -0.52502  -0.51620  -0.51422
 Alpha  occ. eigenvalues --   -0.50589  -0.50541  -0.50142  -0.49940  -0.49718
 Alpha  occ. eigenvalues --   -0.49671  -0.49243  -0.48826  -0.48241  -0.48049
 Alpha  occ. eigenvalues --   -0.47912  -0.47755  -0.47485  -0.47388  -0.47133
 Alpha  occ. eigenvalues --   -0.47036  -0.46413  -0.46262  -0.46090  -0.45883
 Alpha  occ. eigenvalues --   -0.45585  -0.45406  -0.45366  -0.45043  -0.44922
 Alpha  occ. eigenvalues --   -0.44716  -0.44343  -0.43914  -0.43842  -0.43784
 Alpha  occ. eigenvalues --   -0.43653  -0.43576  -0.43397  -0.43080  -0.42921
 Alpha  occ. eigenvalues --   -0.42755  -0.42558  -0.42475  -0.42413  -0.42169
 Alpha  occ. eigenvalues --   -0.41979  -0.41924  -0.41823  -0.41702  -0.41566
 Alpha  occ. eigenvalues --   -0.41278  -0.41119  -0.41080  -0.40891  -0.40862
 Alpha  occ. eigenvalues --   -0.40720  -0.40645  -0.40587  -0.40449  -0.40342
 Alpha  occ. eigenvalues --   -0.40261  -0.40136  -0.39941  -0.39780  -0.39702
 Alpha  occ. eigenvalues --   -0.39406  -0.39262  -0.39141  -0.38968  -0.38871
 Alpha  occ. eigenvalues --   -0.38784  -0.38652  -0.38491  -0.38467  -0.38175
 Alpha  occ. eigenvalues --   -0.38074  -0.37930  -0.37832  -0.37545  -0.37492
 Alpha  occ. eigenvalues --   -0.37416  -0.37233  -0.37067  -0.37010  -0.36962
 Alpha  occ. eigenvalues --   -0.36886  -0.36757  -0.36704  -0.36397  -0.36317
 Alpha  occ. eigenvalues --   -0.36212  -0.36031  -0.35846  -0.35435  -0.35306
 Alpha  occ. eigenvalues --   -0.35112  -0.34917  -0.34627  -0.34008  -0.33960
 Alpha  occ. eigenvalues --   -0.33730  -0.33428  -0.33135  -0.33041  -0.32901
 Alpha  occ. eigenvalues --   -0.32675  -0.32593  -0.32243  -0.31908  -0.31534
 Alpha  occ. eigenvalues --   -0.31405  -0.31298  -0.31210  -0.31165  -0.30937
 Alpha  occ. eigenvalues --   -0.30818  -0.30509  -0.30470  -0.30105  -0.29806
 Alpha  occ. eigenvalues --   -0.28786  -0.28500  -0.27858  -0.27639  -0.27522
 Alpha  occ. eigenvalues --   -0.27000  -0.26971  -0.26612  -0.26566  -0.26132
 Alpha  occ. eigenvalues --   -0.25633  -0.25412  -0.25147  -0.24210  -0.24021
 Alpha  occ. eigenvalues --   -0.23848  -0.23477  -0.23350  -0.23074  -0.22916
 Alpha  occ. eigenvalues --   -0.22786  -0.22497  -0.22296  -0.21878  -0.21415
 Alpha  occ. eigenvalues --   -0.21311  -0.20464  -0.20309  -0.20214  -0.20016
 Alpha  occ. eigenvalues --   -0.19540  -0.19456  -0.19400  -0.19337  -0.18752
 Alpha  occ. eigenvalues --   -0.18193  -0.17967  -0.17359
 Alpha virt. eigenvalues --   -0.09962  -0.05136  -0.04012  -0.01767  -0.01728
 Alpha virt. eigenvalues --   -0.00900  -0.00408  -0.00203   0.00321   0.01011
 Alpha virt. eigenvalues --    0.01134   0.01464   0.01903   0.02249   0.02295

 Mulliken charges:
               1
     1  C    0.029250
     2  C    0.032683
     3  O   -0.278555
     4  H    0.050812
     5  H   -0.007540
     6  H    0.026285
     7  N   -0.142965
     8  C    0.037933
     9  C    0.076048
    10  O   -0.266179
    11  C    0.119520
    12  C    0.150671
    13  O   -0.474042
    14  O   -0.374505
    15  H    0.106985
    16  H    0.062838
    17  H   -0.013331
    18  H    0.014537
    19  N   -0.134714
    20  C    0.169524
    21  C    0.056601
    22  O   -0.278494
    23  C    0.018765
    24  C    0.013031
    25  C   -0.074037
    26  C    0.065527
    27  N    0.062955
    28  H    0.137217
    29  H   -0.000643
    30  H    0.025422
    31  H    0.019818
    32  H   -0.017964
    33  H    0.003072
    34  H    0.037040
    35  H    0.043823
    36  H    0.087487
    37  H    0.066867
    38  H    0.200201
    39  H    0.200457
    40  H    0.188403
    41  N   -0.137829
    42  C    0.107036
    43  C    0.066733
    44  O   -0.285530
    45  C    0.144181
    46  C    0.079782
    47  O   -0.457500
    48  O   -0.399237
    49  H    0.123920
    50  H    0.013789
    51  H   -0.021110
    52  H    0.006224
    53  N   -0.178019
    54  C    0.253333
    55  C    0.024104
    56  O   -0.307371
    57  H    0.156219
    58  H    0.020501
    59  H    0.027109
    60  N   -0.140217
    61  C    0.158815
    62  C    0.041260
    63  O   -0.284649
    64  C    0.075145
    65  C    0.074294
    66  N   -0.038266
    67  O   -0.331600
    68  H    0.150743
    69  H    0.019953
    70  H    0.061750
    71  H   -0.004771
    72  H    0.125244
    73  H    0.120639
    74  N   -0.182941
    75  C    0.226255
    76  C    0.021370
    77  O   -0.295990
    78  H    0.147152
    79  H    0.026205
    80  H    0.026854
    81  N   -0.130230
    82  C    0.095927
    83  C    0.132400
    84  O   -0.338588
    85  C    0.149244
    86  C    0.025033
    87  C    0.009518
    88  C    0.013520
    89  C   -0.007732
    90  C   -0.041432
    91  C    0.149380
    92  O   -0.191920
    93  H    0.155937
    94  H   -0.006812
    95  H   -0.000897
    96  H   -0.045828
    97  H   -0.015407
    98  H   -0.087909
    99  H   -0.019953
   100  H   -0.053275
   101  H    0.163223
   102  N   -0.116416
   103  C    0.108306
   104  C    0.073823
   105  O   -0.283370
   106  C   -0.116918
   107  C    0.002736
   108  C    0.079507
   109  C    0.056773
   110  H    0.122145
   111  H    0.026430
   112  H   -0.026564
   113  H    0.010610
   114  H    0.013743
   115  H   -0.015215
   116  H    0.004684
   117  H    0.057010
   118  H    0.010525
   119  H   -0.021183
   120  H    0.004921
   121  N   -0.137456
   122  C    0.112379
   123  C    0.078150
   124  O   -0.265732
   125  C    0.231318
   126  O   -0.280250
   127  H    0.165060
   128  H    0.036176
   129  H    0.008325
   130  H   -0.033564
   131  H    0.168338
   132  N   -0.135390
   133  C    0.070238
   134  C    0.080608
   135  O   -0.250898
   136  C    0.040583
   137  H    0.110043
   138  H    0.019125
   139  H    0.012599
   140  H    0.026863
   141  H    0.033921
   142  N   -0.134595
   143  C    0.105762
   144  C    0.048890
   145  O   -0.251413
   146  C    0.046410
   147  H    0.106331
   148  H    0.013364
   149  H    0.005941
   150  H    0.006613
   151  H    0.040602
   152  N   -0.155824
   153  C    0.087076
   154  C    0.106938
   155  O   -0.305373
   156  C    0.070659
   157  C    0.035259
   158  C    0.124410
   159  O   -0.400684
   160  O   -0.433312
   161  H    0.115411
   162  H   -0.004762
   163  H   -0.005635
   164  H    0.020299
   165  H   -0.001568
   166  H   -0.037705
   167  N   -0.172313
   168  C    0.128031
   169  H    0.032672
   170  H    0.014227
   171  H    0.011484
   172  H    0.137536
   173  Ca   1.266816
   174  O   -0.258430
   175  H    0.146428
   176  H    0.179894
 Sum of Mulliken charges =  -0.00000

 Dipole moment (field-independent basis, Debye):
    X=             34.2736    Y=              4.8097    Z=             -2.4999  Tot=             34.6996
 Quadrupole moment (field-independent basis, Debye-Ang):
   XX=           -635.6370   YY=           -368.7699   ZZ=           -502.7471
   XY=            145.8341   XZ=             52.8111   YZ=            114.7282

 ESP charges:
               1
     1  C   -0.434296
     2  C    0.814785
     3  O   -0.596698
     4  H    0.125642
     5  H    0.082441
     6  H    0.115932
     7  N   -0.902201
     8  C    0.550068
     9  C    0.632201
    10  O   -0.504984
    11  C   -0.566568
    12  C    0.947843
    13  O   -0.994184
    14  O   -0.683577
    15  H    0.372178
    16  H    0.027156
    17  H    0.079810
    18  H    0.154212
    19  N   -0.748502
    20  C    0.365947
    21  C    0.350651
    22  O   -0.550979
    23  C   -0.166433
    24  C    0.160264
    25  C   -0.052859
    26  C   -0.003243
    27  N   -0.303096
    28  H    0.335579
    29  H    0.023091
    30  H    0.047090
    31  H    0.061389
    32  H   -0.049193
    33  H   -0.016128
    34  H    0.041005
    35  H    0.043140
    36  H    0.107428
    37  H    0.084811
    38  H    0.309700
    39  H    0.327534
    40  H    0.314941
    41  N   -0.275837
    42  C    0.068445
    43  C    0.387479
    44  O   -0.546866
    45  C   -0.361518
    46  C    0.919870
    47  O   -0.817710
    48  O   -0.746052
    49  H    0.187498
    50  H    0.101770
    51  H    0.052664
    52  H    0.123256
    53  N    0.075212
    54  C   -0.497284
    55  C    0.741414
    56  O   -0.603893
    57  H    0.132274
    58  H    0.162703
    59  H    0.177202
    60  N   -0.422212
    61  C   -0.021008
    62  C    0.403436
    63  O   -0.520441
    64  C   -0.229730
    65  C    0.672554
    66  N   -0.815846
    67  O   -0.597335
    68  H    0.294500
    69  H    0.125965
    70  H    0.127590
    71  H    0.079989
    72  H    0.376456
    73  H    0.377564
    74  N   -0.099105
    75  C   -0.418296
    76  C    0.569462
    77  O   -0.559034
    78  H    0.207297
    79  H    0.172230
    80  H    0.162690
    81  N   -0.240353
    82  C    0.118384
    83  C    0.484605
    84  O   -0.568139
    85  C   -0.055021
    86  C    0.053713
    87  C   -0.260769
    88  C   -0.195159
    89  C   -0.039675
    90  C   -0.266759
    91  C    0.259738
    92  O   -0.521356
    93  H    0.256794
    94  H    0.027760
    95  H    0.035182
    96  H    0.004708
    97  H    0.166888
    98  H    0.139982
    99  H    0.103668
   100  H    0.135892
   101  H    0.393978
   102  N   -0.507121
   103  C    0.157507
   104  C    0.430162
   105  O   -0.550239
   106  C    0.243870
   107  C    0.024066
   108  C   -0.360990
   109  C   -0.310439
   110  H    0.285916
   111  H   -0.007350
   112  H   -0.032221
   113  H    0.002054
   114  H    0.078615
   115  H    0.097703
   116  H    0.077648
   117  H    0.070287
   118  H    0.086376
   119  H    0.050992
   120  H    0.073191
   121  N    0.001966
   122  C   -0.133840
   123  C    0.570490
   124  O   -0.467120
   125  C    0.106493
   126  O   -0.569514
   127  H   -0.000801
   128  H    0.102149
   129  H    0.055061
   130  H   -0.001779
   131  H    0.416515
   132  N   -0.471709
   133  C    0.189874
   134  C    0.404856
   135  O   -0.505659
   136  C   -0.258946
   137  H    0.258527
   138  H    0.057263
   139  H    0.086039
   140  H    0.055843
   141  H    0.096452
   142  N   -0.307185
   143  C    0.107023
   144  C    0.481845
   145  O   -0.543799
   146  C   -0.382270
   147  H    0.252709
   148  H    0.072601
   149  H    0.092827
   150  H    0.091239
   151  H    0.137250
   152  N   -0.150788
   153  C   -0.361216
   154  C    0.688640
   155  O   -0.626454
   156  C   -0.034390
   157  C    0.009766
   158  C    0.679201
   159  O   -0.736254
   160  O   -0.638339
   161  H    0.172233
   162  H    0.149977
   163  H    0.045532
   164  H    0.092261
   165  H   -0.043482
   166  H   -0.026817
   167  N   -0.208029
   168  C   -0.245402
   169  H    0.108558
   170  H    0.106006
   171  H    0.077996
   172  H    0.243578
   173  Ca   1.685597
   174  O   -0.782219
   175  H    0.369806
   176  H    0.416503
 Sum of ESP charges =   0.00000

 Normal termination of Gaussian 16 at Sun Sep 15 01:05:31 2019.
