 Gaussian 16, Revision A.03,
 Gaussian 16:  ES64L-G16RevA.03 25-Dec-2016

 ----------------------------------------------------------------------
 #b3lyp/svp scf=(tight,noincore) Test #IOP(5/87=12) Density=Current Pop
 =(MK,readradii) iop(6/33=2) iop(6/42=6)
 ----------------------------------------------------------------------

 -----------------
 CaMKII_loop3_69.0
 -----------------
 Symbolic Z-matrix:
 Charge =  0 Multiplicity = 1

                         Standard orientation:
 ---------------------------------------------------------------------
 Center     Atomic      Atomic             Coordinates (Angstroms)
 Number     Number       Type             X           Y           Z
 ---------------------------------------------------------------------
      1          6           0        2.159760    1.528770    5.592063
      2          6           0        1.343443    1.567848    4.309019
      3          8           0        1.913004    1.668557    3.222301
      4          1           0        3.165675    1.898612    5.393416
      5          1           0        1.684371    2.157588    6.345187
      6          1           0        2.215570    0.502715    5.956871
      7          7           0        0.014173    1.517766    4.344130
      8          6           0       -0.787264    1.520633    3.137030
      9          6           0       -0.853208    2.830783    2.369659
     10          8           0       -1.813664    3.578789    2.590592
     11          6           0       -2.193237    0.976996    3.403486
     12          6           0       -3.145981    0.942979    2.208447
     13          8           0       -4.372227    0.867850    2.431330
     14          8           0       -2.716947    0.855490    1.038457
     15          1           0       -0.487701    1.514850    5.219295
     16          1           0       -0.329776    0.772209    2.491688
     17          1           0       -2.622488    1.561930    4.218162
     18          1           0       -2.091932   -0.054545    3.725294
     19          7           0        0.201400    3.161757    1.621624
     20          6           0        0.450530    4.546667    1.254802
     21          6           0       -0.657832    5.285173    0.536302
     22          8           0       -0.854253    6.466834    0.823525
     23          6           0        1.707897    4.502232    0.393376
     24          6           0        2.298630    5.897719    0.231969
     25          6           0        3.607209    6.023676   -0.543760
     26          6           0        3.264157    5.687827   -1.994284
     27          7           0        4.435601    5.571835   -2.875628
     28          1           0        0.866681    2.443549    1.387146
     29          1           0        0.518971    5.121192    2.178997
     30          1           0        1.532395    4.115749   -0.619012
     31          1           0        2.489576    3.841096    0.782190
     32          1           0        2.566837    6.248255    1.219587
     33          1           0        1.546970    6.599832   -0.152406
     34          1           0        4.431568    5.427698   -0.166475
     35          1           0        3.974589    7.055983   -0.505380
     36          1           0        2.564529    6.427087   -2.375092
     37          1           0        2.692833    4.759432   -2.018211
     38          1           0        4.044284    5.383453   -3.784189
     39          1           0        4.994830    6.417290   -2.792754
     40          1           0        4.941584    4.737990   -2.609953
     41          7           0       -1.395673    4.617670   -0.364270
     42          6           0       -2.553982    5.163451   -1.038467
     43          6           0       -3.923008    4.725443   -0.532684
     44          8           0       -4.939768    4.807221   -1.214894
     45          6           0       -2.459295    4.872640   -2.530903
     46          6           0       -2.264889    3.420300   -2.941530
     47          8           0       -2.334594    3.111451   -4.146998
     48          8           0       -2.281059    2.590709   -2.000033
     49          1           0       -1.119021    3.672195   -0.580929
     50          1           0       -2.592062    6.255465   -1.062037
     51          1           0       -1.571072    5.367639   -2.924520
     52          1           0       -3.289016    5.320390   -3.080524
     53          7           0       -3.986496    4.116176    0.654819
     54          6           0       -5.168791    3.729612    1.405317
     55          6           0       -5.923993    2.558625    0.786884
     56          8           0       -7.041603    2.344306    1.267109
     57          1           0       -3.132887    3.895547    1.153994
     58          1           0       -5.933835    4.511816    1.363296
     59          1           0       -4.862706    3.507092    2.425659
     60          7           0       -5.444984    1.925561   -0.280393
     61          6           0       -6.127668    0.995626   -1.158893
     62          6           0       -6.219131   -0.416876   -0.589882
     63          8           0       -6.744453   -1.257702   -1.327682
     64          6           0       -5.462452    1.083611   -2.527194
     65          6           0       -4.419218    0.010657   -2.786295
     66          7           0       -4.296423   -0.406403   -4.046843
     67          8           0       -3.674972   -0.453198   -1.915527
     68          1           0       -4.533405    2.156027   -0.642759
     69          1           0       -7.151095    1.365331   -1.210030
     70          1           0       -4.983490    2.055409   -2.617220
     71          1           0       -6.152373    1.097964   -3.378018
     72          1           0       -4.799870    0.032683   -4.808056
     73          1           0       -3.467821   -0.954302   -4.232116
     74          7           0       -5.795361   -0.689896    0.641409
     75          6           0       -6.171677   -1.873814    1.387080
     76          6           0       -5.070916   -2.909552    1.499200
     77          8           0       -5.338528   -4.061313    1.866256
     78          1           0       -5.353230    0.057896    1.178650
     79          1           0       -6.904326   -2.424548    0.792674
     80          1           0       -6.528409   -1.589974    2.373172
     81          7           0       -3.822129   -2.534483    1.216085
     82          6           0       -2.778980   -3.501494    0.948262
     83          6           0       -1.424285   -2.812909    0.929516
     84          8           0       -1.328168   -1.664378    0.490498
     85          6           0       -2.930009   -4.048196   -0.462663
     86          6           0       -4.190404   -4.809115   -0.841881
     87          6           0       -4.291317   -6.164633   -0.532222
     88          6           0       -5.246858   -4.051677   -1.365323
     89          6           0       -5.479792   -6.860815   -0.756403
     90          6           0       -6.411150   -4.769865   -1.685059
     91          6           0       -6.510453   -6.140259   -1.384126
     92          8           0       -7.693578   -6.765183   -1.671502
     93          1           0       -3.645960   -1.556994    1.026138
     94          1           0       -2.813514   -4.267607    1.720841
     95          1           0       -2.143564   -4.788713   -0.522152
     96          1           0       -2.857711   -3.254241   -1.206980
     97          1           0       -3.415573   -6.614219   -0.074134
     98          1           0       -5.162868   -2.977815   -1.438585
     99          1           0       -5.512185   -7.931471   -0.656169
    100          1           0       -7.181786   -4.202101   -2.187715
    101          1           0       -8.242868   -6.215835   -2.239478
    102          7           0       -0.379312   -3.455460    1.461268
    103          6           0        1.001656   -2.999916    1.523771
    104          6           0        1.805682   -3.785687    0.501711
    105          8           0        2.016952   -4.995290    0.597241
    106          6           0        1.608155   -3.122223    2.921484
    107          6           0        0.708762   -2.705285    4.073419
    108          6           0        2.989127   -2.478794    2.961648
    109          6           0        1.275748   -3.123630    5.429890
    110          1           0       -0.545681   -4.350048    1.878441
    111          1           0        1.063276   -1.951194    1.225637
    112          1           0        1.734425   -4.189830    3.114543
    113          1           0       -0.253525   -3.199656    3.970938
    114          1           0        0.509412   -1.632086    4.075111
    115          1           0        3.650829   -3.140761    2.389940
    116          1           0        2.997749   -1.506129    2.462500
    117          1           0        3.384011   -2.423622    3.971907
    118          1           0        2.250263   -2.694479    5.668743
    119          1           0        0.611698   -2.607371    6.123515
    120          1           0        1.320837   -4.201477    5.568134
    121          7           0        2.405461   -3.027375   -0.416945
    122          6           0        3.346839   -3.526497   -1.409560
    123          6           0        4.777151   -3.242430   -0.953915
    124          8           0        5.008520   -2.462838   -0.028385
    125          6           0        3.190802   -2.813531   -2.745573
    126          8           0        3.505596   -1.439299   -2.669480
    127          1           0        2.276588   -2.030992   -0.362981
    128          1           0        3.271498   -4.609337   -1.537158
    129          1           0        2.235992   -3.024719   -3.214868
    130          1           0        3.860291   -3.176590   -3.516010
    131          1           0        3.438617   -1.120729   -3.580264
    132          7           0        5.730502   -3.975629   -1.533777
    133          6           0        7.092073   -3.910208   -1.050408
    134          6           0        7.650739   -2.519307   -1.313061
    135          8           0        8.430292   -2.068899   -0.470190
    136          6           0        7.897580   -4.916955   -1.867365
    137          1           0        5.542169   -4.661094   -2.245092
    138          1           0        7.087759   -4.074175    0.019169
    139          1           0        8.903974   -5.022875   -1.455357
    140          1           0        7.432795   -5.905932   -1.917352
    141          1           0        7.946663   -4.655521   -2.922942
    142          7           0        7.203713   -1.822841   -2.353687
    143          6           0        7.407520   -0.399669   -2.541955
    144          6           0        6.968545    0.401973   -1.319183
    145          8           0        7.607182    1.428972   -1.061278
    146          6           0        6.682700   -0.040649   -3.837849
    147          1           0        6.529667   -2.300745   -2.935383
    148          1           0        8.467150   -0.226727   -2.698720
    149          1           0        6.950836    0.983653   -4.090651
    150          1           0        6.986832   -0.789565   -4.567937
    151          1           0        5.599972   -0.079001   -3.708508
    152          7           0        5.808002    0.196981   -0.702321
    153          6           0        5.314555    1.032626    0.372206
    154          6           0        5.986080    0.603333    1.663469
    155          8           0        6.276657    1.521154    2.444475
    156          6           0        3.785560    1.031888    0.423892
    157          6           0        3.159016    1.415462   -0.907203
    158          6           0        1.645501    1.256027   -0.914469
    159          8           0        1.068402    0.837382    0.116935
    160          8           0        0.988298    1.596951   -1.914896
    161          1           0        5.212481   -0.487575   -1.146435
    162          1           0        5.687713    2.037705    0.217387
    163          1           0        3.406947    1.713545    1.174690
    164          1           0        3.476489    0.022737    0.723542
    165          1           0        3.532798    0.833890   -1.760761
    166          1           0        3.379207    2.440749   -1.227831
    167          7           0        6.417790   -0.628843    1.918361
    168          6           0        7.181274   -1.143750    3.040173
    169          1           0        8.235507   -0.904172    2.901755
    170          1           0        6.824261   -0.687919    3.963352
    171          1           0        7.059468   -2.225011    3.097301
    172          1           0        6.102645   -1.357471    1.291636
    173         20           0       -1.278709    0.406400   -1.162722
    174          8           0       -1.356382    0.181068   -3.738395
    175          1           0       -0.437195    0.059870   -3.969708
    176          1           0       -1.625889    0.941258   -4.247490
 ---------------------------------------------------------------------

 SCF Done:  E(RB3LYP) =  -5333.60872274     A.U. after   20 cycles

 The electronic state is 1-A.
 Alpha  occ. eigenvalues -- -145.37988 -19.21566 -19.16891 -19.16029 -19.12836
 Alpha  occ. eigenvalues --  -19.12804 -19.12520 -19.12137 -19.10046 -19.09876
 Alpha  occ. eigenvalues --  -19.09835 -19.09805 -19.08696 -19.08587 -19.07720
 Alpha  occ. eigenvalues --  -19.06491 -19.05563 -19.04798 -19.04467 -19.04393
 Alpha  occ. eigenvalues --  -19.04158 -19.04011 -19.02173 -19.02118 -15.43707
 Alpha  occ. eigenvalues --  -14.58360 -14.41471 -14.39428 -14.39086 -14.38205
 Alpha  occ. eigenvalues --  -14.36118 -14.35315 -14.34683 -14.33615 -14.33286
 Alpha  occ. eigenvalues --  -14.33052 -14.31630 -14.29213 -14.28823 -14.28757
 Alpha  occ. eigenvalues --  -12.57345 -12.57283 -12.57258 -10.34077 -10.33768
 Alpha  occ. eigenvalues --  -10.30985 -10.30981 -10.30967 -10.30608 -10.29356
 Alpha  occ. eigenvalues --  -10.29290 -10.28875 -10.28510 -10.27939 -10.27534
 Alpha  occ. eigenvalues --  -10.26977 -10.26816 -10.26652 -10.26454 -10.25998
 Alpha  occ. eigenvalues --  -10.25034 -10.24128 -10.23873 -10.23813 -10.23635
 Alpha  occ. eigenvalues --  -10.23347 -10.23196 -10.23157 -10.23029 -10.23003
 Alpha  occ. eigenvalues --  -10.22676 -10.22652 -10.21999 -10.21943 -10.21516
 Alpha  occ. eigenvalues --  -10.21155 -10.20763 -10.20762 -10.20133 -10.20037
 Alpha  occ. eigenvalues --  -10.19578 -10.19295 -10.19138 -10.18835 -10.18348
 Alpha  occ. eigenvalues --  -10.18265 -10.17744 -10.17553 -10.17513 -10.16681
 Alpha  occ. eigenvalues --  -10.16110 -10.15868 -10.15756 -10.15486 -10.15342
 Alpha  occ. eigenvalues --  -10.15138 -10.15074  -1.80545  -1.13562  -1.09952
 Alpha  occ. eigenvalues --   -1.08726  -1.08309  -1.08104  -1.07819  -1.05771
 Alpha  occ. eigenvalues --   -1.05362  -1.04982  -1.04781  -1.03395  -1.03150
 Alpha  occ. eigenvalues --   -1.02401  -1.02173  -1.01442  -1.01286  -1.00210
 Alpha  occ. eigenvalues --   -0.99658  -0.99157  -0.98626  -0.98154  -0.97946
 Alpha  occ. eigenvalues --   -0.97686  -0.97076  -0.95954  -0.95837  -0.95046
 Alpha  occ. eigenvalues --   -0.94821  -0.94483  -0.92742  -0.91468  -0.91307
 Alpha  occ. eigenvalues --   -0.90100  -0.89495  -0.89070  -0.89067  -0.88913
 Alpha  occ. eigenvalues --   -0.88225  -0.87682  -0.86820  -0.85834  -0.85262
 Alpha  occ. eigenvalues --   -0.84584  -0.82862  -0.81781  -0.81715  -0.80944
 Alpha  occ. eigenvalues --   -0.80282  -0.79724  -0.77405  -0.77009  -0.75832
 Alpha  occ. eigenvalues --   -0.75443  -0.74893  -0.74519  -0.73927  -0.73522
 Alpha  occ. eigenvalues --   -0.72173  -0.72163  -0.71829  -0.71652  -0.71222
 Alpha  occ. eigenvalues --   -0.70722  -0.70039  -0.69372  -0.68612  -0.68375
 Alpha  occ. eigenvalues --   -0.68071  -0.67515  -0.66531  -0.64534  -0.64305
 Alpha  occ. eigenvalues --   -0.63795  -0.63647  -0.63567  -0.63189  -0.62971
 Alpha  occ. eigenvalues --   -0.62550  -0.62087  -0.61659  -0.61392  -0.60206
 Alpha  occ. eigenvalues --   -0.59992  -0.59716  -0.58874  -0.58512  -0.57986
 Alpha  occ. eigenvalues --   -0.57685  -0.57624  -0.56903  -0.56679  -0.56409
 Alpha  occ. eigenvalues --   -0.56288  -0.56175  -0.55516  -0.55460  -0.55012
 Alpha  occ. eigenvalues --   -0.54702  -0.54437  -0.54183  -0.53917  -0.53343
 Alpha  occ. eigenvalues --   -0.53219  -0.52937  -0.52838  -0.52455  -0.52389
 Alpha  occ. eigenvalues --   -0.52116  -0.51636  -0.51451  -0.50856  -0.50588
 Alpha  occ. eigenvalues --   -0.50441  -0.49900  -0.49719  -0.49496  -0.49298
 Alpha  occ. eigenvalues --   -0.49178  -0.49116  -0.48674  -0.48475  -0.47896
 Alpha  occ. eigenvalues --   -0.47865  -0.47451  -0.47341  -0.47058  -0.46726
 Alpha  occ. eigenvalues --   -0.46599  -0.46569  -0.46375  -0.46235  -0.46174
 Alpha  occ. eigenvalues --   -0.45872  -0.45566  -0.45377  -0.45200  -0.45058
 Alpha  occ. eigenvalues --   -0.44843  -0.44821  -0.44606  -0.44437  -0.44381
 Alpha  occ. eigenvalues --   -0.44129  -0.43929  -0.43893  -0.43796  -0.43442
 Alpha  occ. eigenvalues --   -0.43105  -0.43018  -0.42970  -0.42916  -0.42780
 Alpha  occ. eigenvalues --   -0.42679  -0.42534  -0.42365  -0.42229  -0.41961
 Alpha  occ. eigenvalues --   -0.41731  -0.41498  -0.41305  -0.41201  -0.41007
 Alpha  occ. eigenvalues --   -0.40927  -0.40785  -0.40699  -0.40562  -0.40480
 Alpha  occ. eigenvalues --   -0.40445  -0.40364  -0.40212  -0.39937  -0.39894
 Alpha  occ. eigenvalues --   -0.39513  -0.39403  -0.39318  -0.39122  -0.39045
 Alpha  occ. eigenvalues --   -0.39026  -0.38902  -0.38697  -0.38609  -0.38431
 Alpha  occ. eigenvalues --   -0.38386  -0.38279  -0.38068  -0.37930  -0.37610
 Alpha  occ. eigenvalues --   -0.37563  -0.37383  -0.37282  -0.37175  -0.36934
 Alpha  occ. eigenvalues --   -0.36588  -0.36407  -0.36069  -0.35941  -0.35794
 Alpha  occ. eigenvalues --   -0.35727  -0.35604  -0.35223  -0.35165  -0.35065
 Alpha  occ. eigenvalues --   -0.34923  -0.34797  -0.34148  -0.34065  -0.33948
 Alpha  occ. eigenvalues --   -0.33851  -0.33706  -0.33332  -0.33190  -0.32965
 Alpha  occ. eigenvalues --   -0.32761  -0.32120  -0.32021  -0.31930  -0.31917
 Alpha  occ. eigenvalues --   -0.31681  -0.31627  -0.31347  -0.31099  -0.30407
 Alpha  occ. eigenvalues --   -0.30025  -0.29772  -0.29542  -0.29524  -0.28597
 Alpha  occ. eigenvalues --   -0.28318  -0.27996  -0.27386  -0.27366  -0.27291
 Alpha  occ. eigenvalues --   -0.27220  -0.27132  -0.26183  -0.25805  -0.25652
 Alpha  occ. eigenvalues --   -0.25470  -0.25135  -0.24530  -0.23385  -0.23345
 Alpha  occ. eigenvalues --   -0.23168  -0.22807  -0.22692  -0.22606  -0.22329
 Alpha  occ. eigenvalues --   -0.22263  -0.22248  -0.22145  -0.21405  -0.20930
 Alpha  occ. eigenvalues --   -0.20651  -0.20280  -0.20095  -0.19495  -0.18593
 Alpha  occ. eigenvalues --   -0.18464  -0.18192  -0.17439
 Alpha virt. eigenvalues --   -0.10556  -0.05093  -0.04613  -0.04108  -0.03880
 Alpha virt. eigenvalues --   -0.02108  -0.01585  -0.01538  -0.00576  -0.00287
 Alpha virt. eigenvalues --    0.00048   0.00336   0.01405   0.01578   0.01819

 Mulliken charges:
               1
     1  C    0.062980
     2  C    0.024136
     3  O   -0.294885
     4  H    0.044064
     5  H    0.017246
     6  H    0.031798
     7  N   -0.116657
     8  C    0.096844
     9  C    0.075477
    10  O   -0.307792
    11  C    0.095781
    12  C    0.141969
    13  O   -0.379371
    14  O   -0.455175
    15  H    0.114028
    16  H    0.010219
    17  H    0.001469
    18  H   -0.005099
    19  N   -0.116433
    20  C    0.162373
    21  C    0.033532
    22  O   -0.281025
    23  C   -0.047333
    24  C    0.007635
    25  C    0.023299
    26  C   -0.072734
    27  N    0.097501
    28  H    0.171897
    29  H    0.015321
    30  H    0.020067
    31  H    0.027808
    32  H    0.018880
    33  H    0.034999
    34  H    0.032170
    35  H    0.020661
    36  H    0.073153
    37  H    0.088007
    38  H    0.196229
    39  H    0.206353
    40  H    0.202129
    41  N   -0.137728
    42  C    0.186424
    43  C    0.039817
    44  O   -0.285841
    45  C    0.038359
    46  C    0.149315
    47  O   -0.386683
    48  O   -0.495617
    49  H    0.128272
    50  H    0.012772
    51  H   -0.041263
    52  H    0.029283
    53  N   -0.179981
    54  C    0.230561
    55  C    0.048383
    56  O   -0.322827
    57  H    0.146439
    58  H    0.019749
    59  H    0.037419
    60  N   -0.141046
    61  C    0.166946
    62  C    0.069960
    63  O   -0.337866
    64  C    0.068729
    65  C    0.082380
    66  N   -0.027216
    67  O   -0.371025
    68  H    0.138964
    69  H    0.019784
    70  H    0.067230
    71  H   -0.005989
    72  H    0.125894
    73  H    0.119587
    74  N   -0.165582
    75  C    0.254334
    76  C    0.001325
    77  O   -0.306395
    78  H    0.175031
    79  H    0.030961
    80  H    0.043311
    81  N   -0.144045
    82  C    0.156296
    83  C    0.104135
    84  O   -0.358628
    85  C    0.110472
    86  C   -0.024868
    87  C    0.007991
    88  C    0.000665
    89  C    0.001059
    90  C   -0.044071
    91  C    0.184906
    92  O   -0.214595
    93  H    0.156009
    94  H   -0.005059
    95  H   -0.036738
    96  H   -0.000526
    97  H   -0.052823
    98  H   -0.000329
    99  H   -0.035025
   100  H   -0.032878
   101  H    0.169949
   102  N   -0.108773
   103  C    0.131724
   104  C    0.084338
   105  O   -0.276029
   106  C   -0.095618
   107  C    0.019869
   108  C    0.050964
   109  C    0.019721
   110  H    0.132016
   111  H    0.013247
   112  H   -0.014946
   113  H   -0.013578
   114  H    0.008779
   115  H    0.012458
   116  H    0.036779
   117  H    0.004188
   118  H    0.008496
   119  H    0.007972
   120  H    0.017315
   121  N   -0.122244
   122  C    0.119335
   123  C    0.078463
   124  O   -0.269153
   125  C    0.202338
   126  O   -0.295631
   127  H    0.142933
   128  H    0.038430
   129  H    0.021620
   130  H   -0.028440
   131  H    0.192683
   132  N   -0.135944
   133  C    0.098671
   134  C    0.044588
   135  O   -0.257045
   136  C    0.039918
   137  H    0.118612
   138  H    0.029092
   139  H    0.055847
   140  H    0.021837
   141  H    0.002765
   142  N   -0.126706
   143  C    0.115683
   144  C    0.057607
   145  O   -0.295293
   146  C    0.046869
   147  H    0.094795
   148  H    0.020068
   149  H    0.021918
   150  H    0.026407
   151  H   -0.028118
   152  N   -0.154495
   153  C    0.156764
   154  C    0.058604
   155  O   -0.309328
   156  C    0.043707
   157  C    0.069914
   158  C    0.083802
   159  O   -0.403089
   160  O   -0.412175
   161  H    0.134417
   162  H   -0.025220
   163  H    0.048917
   164  H    0.006977
   165  H   -0.028816
   166  H   -0.076357
   167  N   -0.147286
   168  C    0.142097
   169  H    0.032530
   170  H    0.024533
   171  H    0.007909
   172  H    0.127580
   173  Ca   1.271468
   174  O   -0.298747
   175  H    0.166240
   176  H    0.169639
 Sum of Mulliken charges =  -0.00000

 Dipole moment (field-independent basis, Debye):
    X=             33.9009    Y=              1.7714    Z=            -19.6922  Tot=             39.2453
 Quadrupole moment (field-independent basis, Debye-Ang):
   XX=           -673.8405   YY=           -514.2782   ZZ=           -476.4211
   XY=             46.6264   XZ=            -67.2596   YZ=            -31.4040

 ESP charges:
               1
     1  C   -0.448432
     2  C    0.847669
     3  O   -0.687671
     4  H    0.140960
     5  H    0.098427
     6  H    0.121196
     7  N   -0.796048
     8  C    0.470128
     9  C    0.339769
    10  O   -0.469713
    11  C   -0.305996
    12  C    0.791727
    13  O   -0.671629
    14  O   -0.970221
    15  H    0.362397
    16  H    0.049955
    17  H    0.064605
    18  H    0.050483
    19  N   -0.054160
    20  C   -0.294959
    21  C    0.631185
    22  O   -0.571415
    23  C    0.064273
    24  C   -0.284534
    25  C    0.037879
    26  C    0.082325
    27  N   -0.587314
    28  H    0.159859
    29  H    0.137188
    30  H    0.044783
    31  H    0.086994
    32  H    0.108681
    33  H    0.099344
    34  H    0.034642
    35  H    0.025739
    36  H    0.094795
    37  H    0.064473
    38  H    0.391027
    39  H    0.391427
    40  H    0.387134
    41  N   -0.397121
    42  C   -0.028165
    43  C    0.462140
    44  O   -0.553281
    45  C   -0.083313
    46  C    0.613723
    47  O   -0.668400
    48  O   -0.606168
    49  H    0.190039
    50  H    0.107193
    51  H   -0.007169
    52  H    0.064552
    53  N   -0.184798
    54  C   -0.315382
    55  C    0.701819
    56  O   -0.612389
    57  H    0.178003
    58  H    0.132116
    59  H    0.153505
    60  N   -0.428468
    61  C   -0.122053
    62  C    0.393977
    63  O   -0.553881
    64  C   -0.081024
    65  C    0.553995
    66  N   -0.741968
    67  O   -0.603353
    68  H    0.339577
    69  H    0.140313
    70  H    0.112983
    71  H    0.055958
    72  H    0.372385
    73  H    0.362104
    74  N    0.029106
    75  C   -0.573581
    76  C    0.753070
    77  O   -0.545257
    78  H    0.262567
    79  H    0.208545
    80  H    0.189255
    81  N   -0.845411
    82  C    0.391538
    83  C    0.447929
    84  O   -0.536399
    85  C   -0.160136
    86  C    0.212562
    87  C   -0.397313
    88  C   -0.413487
    89  C    0.016671
    90  C   -0.147083
    91  C    0.225195
    92  O   -0.538560
    93  H    0.543782
    94  H    0.023669
    95  H    0.004299
    96  H    0.018965
    97  H    0.170672
    98  H    0.330669
    99  H    0.091317
   100  H    0.118565
   101  H    0.399519
   102  N   -0.505537
   103  C   -0.106212
   104  C    0.640267
   105  O   -0.553092
   106  C    0.359323
   107  C    0.280157
   108  C   -0.385729
   109  C   -0.384612
   110  H    0.291087
   111  H    0.060169
   112  H   -0.061440
   113  H   -0.052111
   114  H   -0.054200
   115  H    0.078810
   116  H    0.041834
   117  H    0.096759
   118  H    0.088417
   119  H    0.075506
   120  H    0.089695
   121  N   -0.427953
   122  C   -0.021606
   123  C    0.517914
   124  O   -0.400529
   125  C    0.088470
   126  O   -0.489225
   127  H    0.262625
   128  H    0.103200
   129  H    0.058975
   130  H    0.005855
   131  H    0.388894
   132  N   -0.469993
   133  C    0.104500
   134  C    0.567162
   135  O   -0.536840
   136  C   -0.310434
   137  H    0.294046
   138  H    0.092297
   139  H    0.116102
   140  H    0.097605
   141  H    0.080867
   142  N   -0.559828
   143  C    0.362600
   144  C    0.220855
   145  O   -0.530393
   146  C   -0.443706
   147  H    0.267656
   148  H    0.051761
   149  H    0.119252
   150  H    0.122383
   151  H    0.091209
   152  N    0.125261
   153  C   -0.351112
   154  C    0.599098
   155  O   -0.571190
   156  C   -0.369363
   157  C    0.008932
   158  C    0.671703
   159  O   -0.700253
   160  O   -0.777757
   161  H    0.149831
   162  H    0.156054
   163  H    0.197005
   164  H    0.180916
   165  H   -0.058623
   166  H    0.023322
   167  N   -0.119251
   168  C   -0.269662
   169  H    0.116332
   170  H    0.099146
   171  H    0.104562
   172  H    0.125088
   173  Ca   1.595277
   174  O   -0.801211
   175  H    0.385237
   176  H    0.392756
 Sum of ESP charges =  -0.00000

 Normal termination of Gaussian 16 at Sat Sep 14 23:57:30 2019.
