 Gaussian 16, Revision A.03,
 Gaussian 16:  ES64L-G16RevA.03 25-Dec-2016

 ----------------------------------------------------------------------
 #b3lyp/svp scf=(tight,noincore) Test #IOP(5/87=12) Density=Current Pop
 =(MK,readradii) iop(6/33=2) iop(6/42=6)
 ----------------------------------------------------------------------

 -----------------
 CaMKII_loop3_83.0
 -----------------
 Symbolic Z-matrix:
 Charge =  0 Multiplicity = 1

                         Standard orientation:
 ---------------------------------------------------------------------
 Center     Atomic      Atomic             Coordinates (Angstroms)
 Number     Number       Type             X           Y           Z
 ---------------------------------------------------------------------
      1          6           0        1.825583    1.693043    6.130463
      2          6           0        1.392225    1.780891    4.673588
      3          8           0        2.212286    1.786447    3.755944
      4          1           0        2.914138    1.725033    6.187967
      5          1           0        1.409196    2.533346    6.685489
      6          1           0        1.466792    0.758569    6.561367
      7          7           0        0.101571    1.828610    4.340071
      8          6           0       -0.497141    1.792868    3.025968
      9          6           0       -0.537841    3.121122    2.272521
     10          8           0       -1.302075    4.002642    2.651295
     11          6           0       -1.891885    1.174101    3.124032
     12          6           0       -2.628820    1.228537    1.793745
     13          8           0       -2.031939    1.504786    0.731474
     14          8           0       -3.863427    1.063165    1.771436
     15          1           0       -0.532995    1.775577    5.120465
     16          1           0        0.089363    1.058291    2.469093
     17          1           0       -2.461629    1.853175    3.747530
     18          1           0       -1.889966    0.165427    3.542570
     19          7           0        0.308069    3.316159    1.263067
     20          6           0        0.701380    4.649067    0.863615
     21          6           0       -0.460108    5.316373    0.129688
     22          8           0       -0.484249    6.544000    0.218856
     23          6           0        2.048517    4.606346    0.167916
     24          6           0        2.688814    5.964847   -0.122251
     25          6           0        3.901156    5.722634   -1.019278
     26          6           0        4.640965    7.044463   -1.232942
     27          7           0        5.751142    6.843223   -2.172202
     28          1           0        1.017844    2.641219    1.017556
     29          1           0        0.930130    5.175885    1.789809
     30          1           0        1.895217    4.039658   -0.747433
     31          1           0        2.824727    4.043286    0.701359
     32          1           0        3.030722    6.441775    0.801458
     33          1           0        2.060679    6.551617   -0.787267
     34          1           0        3.651401    5.183384   -1.928031
     35          1           0        4.666687    5.068771   -0.597820
     36          1           0        4.978295    7.418729   -0.267524
     37          1           0        3.840092    7.642879   -1.667685
     38          1           0        5.388630    6.723011   -3.107260
     39          1           0        6.426115    7.587221   -2.067420
     40          1           0        6.294120    6.034195   -1.888564
     41          7           0       -1.427800    4.688114   -0.537517
     42          6           0       -2.456497    5.346553   -1.324244
     43          6           0       -3.858918    5.097190   -0.782918
     44          8           0       -4.796653    5.763804   -1.213473
     45          6           0       -2.367007    5.016245   -2.810713
     46          6           0       -2.240052    3.534984   -3.146049
     47          8           0       -2.647893    3.177089   -4.270716
     48          8           0       -1.864923    2.661796   -2.336283
     49          1           0       -1.371812    3.697599   -0.677321
     50          1           0       -2.374701    6.419319   -1.149079
     51          1           0       -1.645924    5.643637   -3.335516
     52          1           0       -3.276872    5.404673   -3.268391
     53          7           0       -4.009933    4.189703    0.177167
     54          6           0       -5.268803    3.976006    0.865193
     55          6           0       -6.253587    2.994440    0.235171
     56          8           0       -7.446257    3.188926    0.451070
     57          1           0       -3.207504    3.683353    0.524608
     58          1           0       -5.735250    4.950741    0.981035
     59          1           0       -5.126119    3.523011    1.849336
     60          7           0       -5.785359    1.917263   -0.398747
     61          6           0       -6.673389    0.962815   -1.030518
     62          6           0       -6.765502   -0.343352   -0.249274
     63          8           0       -7.542960   -1.235381   -0.600193
     64          6           0       -6.009956    0.779533   -2.391791
     65          6           0       -4.865716   -0.217460   -2.464035
     66          7           0       -4.819297   -1.096593   -3.464770
     67          8           0       -4.004247   -0.243670   -1.582852
     68          1           0       -4.785151    1.746279   -0.434075
     69          1           0       -7.606244    1.412566   -1.351774
     70          1           0       -5.727862    1.740935   -2.811588
     71          1           0       -6.808490    0.288813   -2.946443
     72          1           0       -5.529141   -1.113719   -4.177040
     73          1           0       -3.988038   -1.671762   -3.561663
     74          7           0       -6.122044   -0.480983    0.909138
     75          6           0       -6.334355   -1.573907    1.835227
     76          6           0       -5.209759   -2.605313    1.800798
     77          8           0       -5.432332   -3.721836    2.250507
     78          1           0       -5.416331    0.229021    1.043910
     79          1           0       -7.235805   -2.125585    1.560383
     80          1           0       -6.418432   -1.232943    2.871410
     81          7           0       -4.030644   -2.238963    1.297531
     82          6           0       -3.007761   -3.182022    0.893982
     83          6           0       -1.601955   -2.611832    0.826216
     84          8           0       -1.479483   -1.426693    0.476864
     85          6           0       -3.305522   -3.715021   -0.515326
     86          6           0       -4.535705   -4.581023   -0.636110
     87          6           0       -4.493293   -5.972061   -0.475752
     88          6           0       -5.740659   -3.942470   -0.961277
     89          6           0       -5.644842   -6.733463   -0.685279
     90          6           0       -6.871606   -4.686506   -1.305615
     91          6           0       -6.805502   -6.089242   -1.159462
     92          8           0       -7.815319   -6.902682   -1.596594
     93          1           0       -3.987126   -1.347430    0.833017
     94          1           0       -3.066877   -4.006412    1.593972
     95          1           0       -2.531773   -4.369710   -0.910160
     96          1           0       -3.356195   -2.949694   -1.286435
     97          1           0       -3.518830   -6.392014   -0.306749
     98          1           0       -5.666092   -2.889316   -1.204398
     99          1           0       -5.676038   -7.783732   -0.456670
    100          1           0       -7.713462   -4.169662   -1.727457
    101          1           0       -8.476330   -6.348649   -2.014938
    102          7           0       -0.585736   -3.314330    1.325710
    103          6           0        0.798524   -2.898735    1.328201
    104          6           0        1.446687   -3.869369    0.350522
    105          8           0        1.067624   -5.027635    0.186417
    106          6           0        1.424747   -3.015019    2.721873
    107          6           0        0.683855   -2.104396    3.699904
    108          6           0        2.896175   -2.611808    2.837714
    109          6           0        0.648632   -2.616462    5.132889
    110          1           0       -0.790800   -4.236757    1.694055
    111          1           0        0.889045   -1.891219    0.916964
    112          1           0        1.398279   -4.048556    3.071303
    113          1           0       -0.338280   -1.869879    3.392912
    114          1           0        1.094550   -1.105178    3.547935
    115          1           0        3.276809   -2.569079    3.859767
    116          1           0        3.486958   -3.298280    2.234281
    117          1           0        3.041441   -1.602037    2.459613
    118          1           0        0.257258   -3.622603    5.217191
    119          1           0        1.675562   -2.499824    5.489556
    120          1           0       -0.033565   -1.985541    5.707037
    121          7           0        2.502827   -3.360433   -0.285207
    122          6           0        3.427191   -4.077282   -1.144962
    123          6           0        4.826801   -3.747517   -0.651963
    124          8           0        5.072322   -2.908729    0.207196
    125          6           0        3.297639   -3.714140   -2.624537
    126          8           0        3.102746   -2.322208   -2.744289
    127          1           0        2.704484   -2.387970   -0.123190
    128          1           0        3.247127   -5.148005   -1.007014
    129          1           0        2.435086   -4.198670   -3.079875
    130          1           0        4.230152   -3.886845   -3.172617
    131          1           0        2.667388   -2.232743   -3.600420
    132          7           0        5.857746   -4.388886   -1.191962
    133          6           0        7.213351   -4.151288   -0.731655
    134          6           0        7.724189   -2.725378   -0.906078
    135          8           0        8.226513   -2.101361    0.023262
    136          6           0        8.032818   -5.150676   -1.540727
    137          1           0        5.724032   -5.114527   -1.887423
    138          1           0        7.326572   -4.398333    0.329406
    139          1           0        7.967316   -6.172042   -1.160831
    140          1           0        7.815241   -5.044006   -2.603921
    141          1           0        9.062793   -4.810247   -1.433677
    142          7           0        7.487865   -2.115370   -2.063075
    143          6           0        7.820132   -0.739237   -2.367631
    144          6           0        7.077868    0.199977   -1.422475
    145          8           0        7.592950    1.240993   -1.040537
    146          6           0        7.675655   -0.534832   -3.875127
    147          1           0        6.993924   -2.622776   -2.778800
    148          1           0        8.847558   -0.453996   -2.113790
    149          1           0        8.374831   -1.120430   -4.465321
    150          1           0        6.606356   -0.550175   -4.090217
    151          1           0        7.906128    0.523089   -3.995894
    152          7           0        5.824549   -0.082383   -1.034706
    153          6           0        5.304459    0.629626    0.102066
    154          6           0        5.918134    0.282527    1.453704
    155          8           0        6.172202    1.224135    2.207246
    156          6           0        3.787545    0.517661    0.156244
    157          6           0        3.144336    1.258037   -1.019437
    158          6           0        1.662226    0.911690   -1.073210
    159          8           0        1.260047    0.566699   -2.199058
    160          8           0        0.941999    0.910799   -0.049212
    161          1           0        5.348833   -0.953176   -1.230702
    162          1           0        5.449481    1.699458   -0.044319
    163          1           0        3.391563    1.049636    1.021751
    164          1           0        3.422126   -0.506156    0.087204
    165          1           0        3.739328    1.033412   -1.890601
    166          1           0        3.305897    2.319208   -0.842477
    167          7           0        6.246207   -0.968929    1.799574
    168          6           0        6.824054   -1.172605    3.107094
    169          1           0        7.909542   -1.102791    3.038226
    170          1           0        6.453809   -0.409676    3.791539
    171          1           0        6.546688   -2.159931    3.477987
    172          1           0        5.920943   -1.661674    1.137677
    173         20           0       -1.351307    0.361845   -1.465120
    174          8           0       -0.403941   -1.833905   -2.370923
    175          1           0       -0.948048   -2.467319   -2.841280
    176          1           0        0.463662   -2.249447   -2.327465
 ---------------------------------------------------------------------

 SCF Done:  E(RB3LYP) =  -5333.52887320     A.U. after   19 cycles

 The electronic state is 1-A.
 Alpha  occ. eigenvalues -- -145.36298 -19.19698 -19.19011 -19.15984 -19.14469
 Alpha  occ. eigenvalues --  -19.12748 -19.12445 -19.12191 -19.11495 -19.10144
 Alpha  occ. eigenvalues --  -19.06249 -19.06191 -19.06063 -19.06041 -19.05655
 Alpha  occ. eigenvalues --  -19.05476 -19.05302 -19.04122 -19.03678 -19.03175
 Alpha  occ. eigenvalues --  -19.03161 -19.02957 -19.02333 -18.99175 -15.42061
 Alpha  occ. eigenvalues --  -14.58452 -14.41481 -14.38792 -14.38700 -14.38026
 Alpha  occ. eigenvalues --  -14.37370 -14.35640 -14.32759 -14.32564 -14.31465
 Alpha  occ. eigenvalues --  -14.31038 -14.30366 -14.29958 -14.29434 -14.29234
 Alpha  occ. eigenvalues --  -12.55675 -12.55639 -12.55615 -10.34196 -10.34020
 Alpha  occ. eigenvalues --  -10.31089 -10.31049 -10.30671 -10.30078 -10.29691
 Alpha  occ. eigenvalues --  -10.28927 -10.28896 -10.27668 -10.25998 -10.25723
 Alpha  occ. eigenvalues --  -10.25689 -10.25068 -10.24937 -10.24910 -10.24722
 Alpha  occ. eigenvalues --  -10.24328 -10.23770 -10.23607 -10.23529 -10.23278
 Alpha  occ. eigenvalues --  -10.23160 -10.22635 -10.22557 -10.22552 -10.22423
 Alpha  occ. eigenvalues --  -10.21820 -10.21242 -10.21216 -10.20776 -10.20277
 Alpha  occ. eigenvalues --  -10.20092 -10.19813 -10.19441 -10.19179 -10.19104
 Alpha  occ. eigenvalues --  -10.18992 -10.18906 -10.17904 -10.17617 -10.17598
 Alpha  occ. eigenvalues --  -10.17541 -10.17482 -10.17316 -10.17306 -10.17036
 Alpha  occ. eigenvalues --  -10.16978 -10.16970 -10.16715 -10.16546 -10.16297
 Alpha  occ. eigenvalues --  -10.14902 -10.13193  -1.78906  -1.13644  -1.09972
 Alpha  occ. eigenvalues --   -1.07614  -1.06837  -1.06544  -1.06297  -1.05747
 Alpha  occ. eigenvalues --   -1.05515  -1.05240  -1.04996  -1.03830  -1.03604
 Alpha  occ. eigenvalues --   -1.03200  -1.00701  -0.99846  -0.99736  -0.99076
 Alpha  occ. eigenvalues --   -0.98834  -0.98745  -0.98207  -0.97885  -0.97464
 Alpha  occ. eigenvalues --   -0.97046  -0.96297  -0.96034  -0.95641  -0.95398
 Alpha  occ. eigenvalues --   -0.94017  -0.92546  -0.92193  -0.90871  -0.90292
 Alpha  occ. eigenvalues --   -0.88833  -0.88726  -0.88619  -0.87955  -0.87694
 Alpha  occ. eigenvalues --   -0.87409  -0.87048  -0.86819  -0.85265  -0.84861
 Alpha  occ. eigenvalues --   -0.84381  -0.83163  -0.82388  -0.80813  -0.80164
 Alpha  occ. eigenvalues --   -0.79557  -0.78149  -0.77878  -0.76916  -0.75277
 Alpha  occ. eigenvalues --   -0.74945  -0.74425  -0.73720  -0.72635  -0.72294
 Alpha  occ. eigenvalues --   -0.72213  -0.71368  -0.71212  -0.71016  -0.70722
 Alpha  occ. eigenvalues --   -0.70557  -0.70006  -0.69290  -0.67987  -0.67796
 Alpha  occ. eigenvalues --   -0.66477  -0.66066  -0.66013  -0.65296  -0.64370
 Alpha  occ. eigenvalues --   -0.63369  -0.63289  -0.63083  -0.62683  -0.62087
 Alpha  occ. eigenvalues --   -0.61154  -0.60946  -0.60512  -0.60439  -0.60330
 Alpha  occ. eigenvalues --   -0.59769  -0.59419  -0.59281  -0.58746  -0.58065
 Alpha  occ. eigenvalues --   -0.57265  -0.57233  -0.56903  -0.56828  -0.56569
 Alpha  occ. eigenvalues --   -0.56381  -0.56364  -0.55917  -0.55449  -0.55000
 Alpha  occ. eigenvalues --   -0.54476  -0.54109  -0.53989  -0.53800  -0.53497
 Alpha  occ. eigenvalues --   -0.52945  -0.52719  -0.52486  -0.52139  -0.51744
 Alpha  occ. eigenvalues --   -0.51361  -0.51179  -0.50940  -0.50639  -0.50468
 Alpha  occ. eigenvalues --   -0.49774  -0.49444  -0.49193  -0.48991  -0.48727
 Alpha  occ. eigenvalues --   -0.48407  -0.48034  -0.47465  -0.47343  -0.47111
 Alpha  occ. eigenvalues --   -0.47092  -0.47026  -0.46966  -0.46620  -0.46531
 Alpha  occ. eigenvalues --   -0.46434  -0.46249  -0.46151  -0.45754  -0.45557
 Alpha  occ. eigenvalues --   -0.45287  -0.45107  -0.44911  -0.44848  -0.44684
 Alpha  occ. eigenvalues --   -0.44578  -0.44233  -0.43986  -0.43911  -0.43379
 Alpha  occ. eigenvalues --   -0.43369  -0.43158  -0.42998  -0.42905  -0.42784
 Alpha  occ. eigenvalues --   -0.42724  -0.42645  -0.42542  -0.42082  -0.42004
 Alpha  occ. eigenvalues --   -0.41889  -0.41637  -0.41461  -0.41355  -0.41263
 Alpha  occ. eigenvalues --   -0.41125  -0.41098  -0.41019  -0.40865  -0.40645
 Alpha  occ. eigenvalues --   -0.40563  -0.40470  -0.40202  -0.39905  -0.39784
 Alpha  occ. eigenvalues --   -0.39748  -0.39582  -0.39445  -0.39272  -0.39013
 Alpha  occ. eigenvalues --   -0.38901  -0.38784  -0.38669  -0.38634  -0.38486
 Alpha  occ. eigenvalues --   -0.38376  -0.38232  -0.38118  -0.37921  -0.37859
 Alpha  occ. eigenvalues --   -0.37654  -0.37237  -0.37117  -0.37041  -0.37015
 Alpha  occ. eigenvalues --   -0.36772  -0.36700  -0.36606  -0.36442  -0.36422
 Alpha  occ. eigenvalues --   -0.35699  -0.35520  -0.35479  -0.35302  -0.35204
 Alpha  occ. eigenvalues --   -0.34990  -0.34586  -0.34244  -0.33986  -0.33838
 Alpha  occ. eigenvalues --   -0.33712  -0.33676  -0.33560  -0.33277  -0.33256
 Alpha  occ. eigenvalues --   -0.33243  -0.33020  -0.32990  -0.32771  -0.32643
 Alpha  occ. eigenvalues --   -0.32501  -0.32336  -0.32324  -0.31842  -0.31545
 Alpha  occ. eigenvalues --   -0.31249  -0.31079  -0.30940  -0.30393  -0.30231
 Alpha  occ. eigenvalues --   -0.30097  -0.29840  -0.29635  -0.29226  -0.28619
 Alpha  occ. eigenvalues --   -0.28192  -0.27833  -0.27485  -0.27287  -0.27201
 Alpha  occ. eigenvalues --   -0.25712  -0.24658  -0.24451  -0.24069  -0.24007
 Alpha  occ. eigenvalues --   -0.23785  -0.23706  -0.23428  -0.22684  -0.22264
 Alpha  occ. eigenvalues --   -0.22215  -0.22008  -0.21889  -0.21833  -0.21201
 Alpha  occ. eigenvalues --   -0.21064  -0.20860  -0.20694  -0.20469  -0.20166
 Alpha  occ. eigenvalues --   -0.20068  -0.19885  -0.19497  -0.18614  -0.18344
 Alpha  occ. eigenvalues --   -0.18139  -0.17843  -0.15362
 Alpha virt. eigenvalues --   -0.10324  -0.04748  -0.04457  -0.03933  -0.03869
 Alpha virt. eigenvalues --   -0.02209  -0.01540  -0.00640  -0.00600  -0.00361
 Alpha virt. eigenvalues --   -0.00209   0.00199   0.00320   0.00620   0.02284

 Mulliken charges:
               1
     1  C    0.054717
     2  C    0.007448
     3  O   -0.298444
     4  H    0.032805
     5  H    0.027730
     6  H    0.023803
     7  N   -0.099132
     8  C    0.117965
     9  C    0.073675
    10  O   -0.286121
    11  C    0.045007
    12  C    0.157584
    13  O   -0.462127
    14  O   -0.386959
    15  H    0.097322
    16  H    0.011321
    17  H    0.008333
    18  H    0.009108
    19  N   -0.099361
    20  C    0.170265
    21  C    0.067347
    22  O   -0.320975
    23  C   -0.056696
    24  C    0.079051
    25  C   -0.125586
    26  C    0.033387
    27  N    0.094136
    28  H    0.136618
    29  H   -0.008006
    30  H    0.025596
    31  H    0.036809
    32  H    0.022030
    33  H    0.031018
    34  H    0.026361
    35  H    0.016405
    36  H    0.083433
    37  H    0.079021
    38  H    0.203671
    39  H    0.189853
    40  H    0.192562
    41  N   -0.127525
    42  C    0.136760
    43  C    0.037610
    44  O   -0.290506
    45  C    0.060715
    46  C    0.120948
    47  O   -0.376872
    48  O   -0.482145
    49  H    0.141284
    50  H    0.009879
    51  H   -0.017851
    52  H    0.013027
    53  N   -0.149152
    54  C    0.225818
    55  C    0.034768
    56  O   -0.295182
    57  H    0.148021
    58  H    0.015404
    59  H    0.035813
    60  N   -0.172960
    61  C    0.143603
    62  C    0.053033
    63  O   -0.309288
    64  C    0.071026
    65  C    0.063003
    66  N   -0.024115
    67  O   -0.353862
    68  H    0.144395
    69  H    0.037035
    70  H    0.083926
    71  H   -0.005893
    72  H    0.136838
    73  H    0.120755
    74  N   -0.157141
    75  C    0.265263
    76  C   -0.006950
    77  O   -0.288447
    78  H    0.147249
    79  H    0.039815
    80  H    0.037635
    81  N   -0.121073
    82  C    0.151026
    83  C    0.144324
    84  O   -0.357043
    85  C    0.108031
    86  C   -0.071101
    87  C    0.022895
    88  C    0.028176
    89  C    0.001974
    90  C   -0.037355
    91  C    0.165818
    92  O   -0.203188
    93  H    0.139930
    94  H   -0.007116
    95  H   -0.031469
    96  H   -0.050627
    97  H   -0.049459
    98  H   -0.028367
    99  H   -0.029968
   100  H   -0.034052
   101  H    0.167704
   102  N   -0.106040
   103  C    0.106060
   104  C    0.047834
   105  O   -0.280996
   106  C   -0.071188
   107  C   -0.017712
   108  C    0.042599
   109  C    0.059055
   110  H    0.134514
   111  H    0.038211
   112  H   -0.020013
   113  H   -0.002369
   114  H    0.021913
   115  H    0.014316
   116  H    0.000999
   117  H    0.028427
   118  H    0.008757
   119  H    0.008939
   120  H    0.009317
   121  N   -0.132474
   122  C    0.119099
   123  C    0.072782
   124  O   -0.275830
   125  C    0.209431
   126  O   -0.297815
   127  H    0.162259
   128  H    0.043273
   129  H    0.015620
   130  H   -0.012984
   131  H    0.180436
   132  N   -0.112776
   133  C    0.097123
   134  C    0.034559
   135  O   -0.233087
   136  C    0.014670
   137  H    0.122685
   138  H    0.028810
   139  H    0.048087
   140  H    0.003923
   141  H    0.034610
   142  N   -0.123998
   143  C    0.085380
   144  C    0.067552
   145  O   -0.269602
   146  C    0.057557
   147  H    0.099717
   148  H    0.024303
   149  H    0.041486
   150  H    0.010944
   151  H    0.014995
   152  N   -0.138204
   153  C    0.140805
   154  C    0.059248
   155  O   -0.300902
   156  C   -0.037454
   157  C    0.131237
   158  C    0.105161
   159  O   -0.413760
   160  O   -0.396040
   161  H    0.107691
   162  H   -0.030656
   163  H    0.055459
   164  H   -0.026447
   165  H   -0.043403
   166  H   -0.059487
   167  N   -0.151098
   168  C    0.153991
   169  H    0.018197
   170  H    0.036011
   171  H   -0.007431
   172  H    0.120163
   173  Ca   1.288583
   174  O   -0.294844
   175  H    0.171634
   176  H    0.172420
 Sum of Mulliken charges =  -0.00000

 Dipole moment (field-independent basis, Debye):
    X=             37.0914    Y=             -3.7018    Z=            -17.1146  Tot=             41.0169
 Quadrupole moment (field-independent basis, Debye-Ang):
   XX=           -564.4999   YY=           -460.3486   ZZ=           -511.0106
   XY=            132.3525   XZ=            -75.5725   YZ=             -3.9771

 ESP charges:
               1
     1  C   -0.445061
     2  C    0.859249
     3  O   -0.661440
     4  H    0.132072
     5  H    0.109839
     6  H    0.102537
     7  N   -0.876866
     8  C    0.566210
     9  C    0.583313
    10  O   -0.576932
    11  C   -0.529572
    12  C    0.842831
    13  O   -0.813410
    14  O   -0.653303
    15  H    0.361610
    16  H   -0.061685
    17  H    0.108012
    18  H    0.123818
    19  N   -0.308918
    20  C   -0.327423
    21  C    0.694366
    22  O   -0.599339
    23  C    0.353723
    24  C   -0.600254
    25  C    0.386751
    26  C    0.012886
    27  N   -0.525796
    28  H    0.214723
    29  H    0.143270
    30  H   -0.010520
    31  H    0.026800
    32  H    0.154049
    33  H    0.155330
    34  H   -0.053733
    35  H   -0.063188
    36  H    0.092012
    37  H    0.071256
    38  H    0.380489
    39  H    0.375641
    40  H    0.360856
    41  N   -0.526535
    42  C    0.121389
    43  C    0.521692
    44  O   -0.566078
    45  C   -0.306949
    46  C    0.802142
    47  O   -0.702639
    48  O   -0.849878
    49  H    0.313216
    50  H    0.073126
    51  H    0.075571
    52  H    0.093671
    53  N   -0.258323
    54  C   -0.257036
    55  C    0.642283
    56  O   -0.592931
    57  H    0.267595
    58  H    0.128951
    59  H    0.126267
    60  N   -0.318094
    61  C   -0.057745
    62  C    0.342705
    63  O   -0.513814
    64  C   -0.260933
    65  C    0.681741
    66  N   -0.877959
    67  O   -0.517225
    68  H    0.178350
    69  H    0.171801
    70  H    0.156690
    71  H    0.067602
    72  H    0.411029
    73  H    0.401269
    74  N    0.043491
    75  C   -0.373020
    76  C    0.744121
    77  O   -0.566564
    78  H    0.085346
    79  H    0.159874
    80  H    0.135883
    81  N   -0.776409
    82  C    0.519527
    83  C    0.376022
    84  O   -0.456483
    85  C   -0.069293
    86  C   -0.252101
    87  C    0.014805
    88  C    0.198772
    89  C   -0.391099
    90  C   -0.537752
    91  C    0.552214
    92  O   -0.590834
    93  H    0.394858
    94  H    0.001617
    95  H    0.036021
    96  H   -0.012977
    97  H    0.079782
    98  H    0.069083
    99  H    0.191037
   100  H    0.185417
   101  H    0.411848
   102  N   -0.767428
   103  C    0.409478
   104  C    0.362198
   105  O   -0.531105
   106  C    0.036613
   107  C    0.128624
   108  C   -0.169555
   109  C   -0.433669
   110  H    0.345417
   111  H    0.001653
   112  H    0.012902
   113  H    0.035756
   114  H    0.056102
   115  H    0.082645
   116  H   -0.013482
   117  H   -0.009801
   118  H    0.112618
   119  H    0.091510
   120  H    0.108046
   121  N   -0.060468
   122  C   -0.052040
   123  C    0.425492
   124  O   -0.334210
   125  C    0.020326
   126  O   -0.511189
   127  H    0.114325
   128  H    0.097586
   129  H    0.057163
   130  H    0.037736
   131  H    0.397855
   132  N   -0.428732
   133  C    0.172590
   134  C    0.543775
   135  O   -0.543187
   136  C   -0.356897
   137  H    0.280675
   138  H    0.070747
   139  H    0.126419
   140  H    0.075162
   141  H    0.104441
   142  N   -0.517115
   143  C    0.240693
   144  C    0.431420
   145  O   -0.545981
   146  C   -0.407651
   147  H    0.296769
   148  H    0.064698
   149  H    0.134924
   150  H    0.093971
   151  H    0.110166
   152  N   -0.261784
   153  C    0.176832
   154  C    0.409495
   155  O   -0.563696
   156  C   -0.430251
   157  C   -0.092097
   158  C    0.770100
   159  O   -0.760389
   160  O   -0.722229
   161  H    0.184172
   162  H    0.056185
   163  H    0.184860
   164  H    0.141226
   165  H   -0.001505
   166  H    0.004977
   167  N    0.073314
   168  C   -0.288734
   169  H    0.101492
   170  H    0.118595
   171  H    0.075499
   172  H    0.015870
   173  Ca   1.571161
   174  O   -0.833492
   175  H    0.401325
   176  H    0.422744
 Sum of ESP charges =   0.00000

 Normal termination of Gaussian 16 at Sun Sep 15 01:02:45 2019.
