 Gaussian 16, Revision A.03,
 Gaussian 16:  ES64L-G16RevA.03 25-Dec-2016

 ----------------------------------------------------------------------
 #b3lyp/svp scf=(tight,noincore) Test #IOP(5/87=12) Density=Current Pop
 =(MK,readradii) iop(6/33=2) iop(6/42=6)
 ----------------------------------------------------------------------

 ------------------
 CaMKII_loop3_113.0
 ------------------
 Symbolic Z-matrix:
 Charge =  0 Multiplicity = 1

                         Standard orientation:
 ---------------------------------------------------------------------
 Center     Atomic      Atomic             Coordinates (Angstroms)
 Number     Number       Type             X           Y           Z
 ---------------------------------------------------------------------
      1          6           0        1.902592    2.843935    5.885371
      2          6           0        1.378349    2.444085    4.514171
      3          8           0        2.167729    2.323269    3.580960
      4          1           0        2.166178    3.901673    5.879208
      5          1           0        1.132223    2.666497    6.635151
      6          1           0        2.785663    2.251813    6.124188
      7          7           0        0.055318    2.372502    4.335941
      8          6           0       -0.489545    2.186561    3.001044
      9          6           0       -0.652287    3.524920    2.294709
     10          8           0       -1.618977    4.233428    2.570440
     11          6           0       -1.828059    1.462882    3.061625
     12          6           0       -2.551669    1.341352    1.727714
     13          8           0       -2.043194    1.842804    0.700825
     14          8           0       -3.536591    0.597323    1.599460
     15          1           0       -0.590583    2.527789    5.092444
     16          1           0        0.099398    1.506207    2.386174
     17          1           0       -2.440364    2.071402    3.728398
     18          1           0       -1.630805    0.479185    3.488275
     19          7           0        0.199252    3.598140    1.272691
     20          6           0        0.331994    4.740793    0.386111
     21          6           0       -0.938908    5.188478   -0.329281
     22          8           0       -0.969682    6.291207   -0.866908
     23          6           0        1.451740    4.449375   -0.607540
     24          6           0        2.031829    5.546414   -1.494616
     25          6           0        3.209065    4.981225   -2.274857
     26          6           0        3.920051    6.108631   -3.018601
     27          7           0        3.133102    6.835496   -4.016038
     28          1           0        0.795318    2.798344    1.131513
     29          1           0        0.695599    5.573098    0.977261
     30          1           0        1.099948    3.596822   -1.182863
     31          1           0        2.255790    4.067269    0.034721
     32          1           0        2.140170    6.462409   -0.921802
     33          1           0        1.144211    5.733451   -2.109231
     34          1           0        2.888688    4.188064   -2.961919
     35          1           0        3.939985    4.667822   -1.528040
     36          1           0        4.879500    5.788574   -3.411184
     37          1           0        4.162152    6.777149   -2.192483
     38          1           0        2.454718    7.447464   -3.586164
     39          1           0        3.795999    7.506819   -4.372257
     40          1           0        2.670492    6.309684   -4.747757
     41          7           0       -1.944796    4.324723   -0.493953
     42          6           0       -3.150305    4.631369   -1.236393
     43          6           0       -4.495944    4.314008   -0.612824
     44          8           0       -5.496877    4.798325   -1.129031
     45          6           0       -3.000903    4.022483   -2.632221
     46          6           0       -2.794410    2.513589   -2.631580
     47          8           0       -3.533914    1.717434   -2.024067
     48          8           0       -1.685425    2.072705   -3.012333
     49          1           0       -2.036691    3.474675    0.041466
     50          1           0       -3.221089    5.706237   -1.425992
     51          1           0       -2.097620    4.473905   -3.057425
     52          1           0       -3.847937    4.342126   -3.233853
     53          7           0       -4.471920    3.538113    0.474288
     54          6           0       -5.708135    3.267042    1.176493
     55          6           0       -6.688766    2.261024    0.583542
     56          8           0       -7.886242    2.379184    0.832318
     57          1           0       -3.576257    3.103537    0.665158
     58          1           0       -6.324198    4.155692    1.319900
     59          1           0       -5.462176    2.923501    2.183511
     60          7           0       -6.208000    1.284273   -0.178115
     61          6           0       -6.933191    0.210457   -0.846258
     62          6           0       -7.261891   -0.973061    0.045842
     63          8           0       -8.371386   -1.485408   -0.072152
     64          6           0       -6.206174   -0.266370   -2.099886
     65          6           0       -5.127290   -1.328289   -1.951103
     66          7           0       -5.326590   -2.457657   -2.640528
     67          8           0       -4.115821   -1.169629   -1.264693
     68          1           0       -5.223354    1.375859   -0.378825
     69          1           0       -7.879668    0.660705   -1.130789
     70          1           0       -5.812403    0.610812   -2.623714
     71          1           0       -7.006887   -0.693916   -2.693656
     72          1           0       -6.136433   -2.584510   -3.234551
     73          1           0       -4.704295   -3.206114   -2.394439
     74          7           0       -6.329400   -1.282206    0.950932
     75          6           0       -6.350137   -2.455075    1.803720
     76          6           0       -5.003042   -3.072354    2.156853
     77          8           0       -4.981734   -3.972927    2.985414
     78          1           0       -5.539881   -0.664887    1.012386
     79          1           0       -6.839512   -3.307718    1.343598
     80          1           0       -6.912192   -2.283806    2.720269
     81          7           0       -3.900733   -2.703210    1.503134
     82          6           0       -2.662088   -3.460053    1.556498
     83          6           0       -1.439241   -2.598750    1.252851
     84          8           0       -1.503543   -1.716135    0.395497
     85          6           0       -2.705508   -4.816809    0.876847
     86          6           0       -3.330956   -4.935396   -0.501287
     87          6           0       -4.512085   -5.674719   -0.603448
     88          6           0       -2.588072   -4.604512   -1.643320
     89          6           0       -5.023288   -5.976312   -1.871326
     90          6           0       -3.125179   -4.807128   -2.916883
     91          6           0       -4.353611   -5.493012   -3.016469
     92          8           0       -4.820296   -5.653913   -4.289228
     93          1           0       -3.873973   -1.802199    1.043610
     94          1           0       -2.465026   -3.833680    2.561520
     95          1           0       -3.182810   -5.515153    1.552791
     96          1           0       -1.660606   -5.104116    0.753012
     97          1           0       -5.056698   -5.906662    0.302365
     98          1           0       -1.657075   -4.073324   -1.544912
     99          1           0       -5.903096   -6.602655   -1.889575
    100          1           0       -2.732259   -4.407534   -3.836197
    101          1           0       -5.779062   -5.733214   -4.256385
    102          7           0       -0.309266   -3.023898    1.824259
    103          6           0        1.012104   -2.444704    1.806458
    104          6           0        1.957497   -3.401001    1.078016
    105          8           0        1.934740   -4.612737    1.263432
    106          6           0        1.448152   -2.083747    3.218999
    107          6           0        0.460758   -1.600019    4.284063
    108          6           0        2.583598   -1.068647    3.088867
    109          6           0        1.020541   -1.735488    5.689478
    110          1           0       -0.392800   -3.926663    2.248095
    111          1           0        1.037681   -1.590142    1.124132
    112          1           0        1.929008   -2.924094    3.705819
    113          1           0       -0.477815   -2.120896    4.065504
    114          1           0        0.199556   -0.541161    4.190822
    115          1           0        2.830539   -0.718437    4.085448
    116          1           0        3.465385   -1.593897    2.731845
    117          1           0        2.244443   -0.248739    2.444876
    118          1           0        0.340170   -1.310880    6.437144
    119          1           0        1.055716   -2.787757    5.959832
    120          1           0        2.010727   -1.339447    5.874094
    121          7           0        2.951906   -2.955412    0.311986
    122          6           0        3.965140   -3.793489   -0.303223
    123          6           0        5.330789   -3.344865    0.211790
    124          8           0        5.485586   -2.422947    1.010229
    125          6           0        3.958729   -3.662267   -1.823795
    126          8           0        4.141753   -2.281102   -2.076354
    127          1           0        3.030409   -1.955799    0.154788
    128          1           0        3.871386   -4.872083   -0.185133
    129          1           0        3.021710   -3.921597   -2.315468
    130          1           0        4.854115   -4.197358   -2.115104
    131          1           0        3.815737   -2.094863   -2.959489
    132          7           0        6.407351   -3.875700   -0.373555
    133          6           0        7.773950   -3.409087   -0.253226
    134          6           0        8.112748   -2.038082   -0.811940
    135          8           0        8.729232   -1.286080   -0.044711
    136          6           0        8.695869   -4.470064   -0.832702
    137          1           0        6.280907   -4.637336   -1.026029
    138          1           0        8.027747   -3.323338    0.804287
    139          1           0        9.688188   -4.009585   -0.819967
    140          1           0        8.593530   -5.282031   -0.114414
    141          1           0        8.498072   -4.835759   -1.847859
    142          7           0        7.637595   -1.649436   -1.994557
    143          6           0        7.555130   -0.338157   -2.605907
    144          6           0        6.903136    0.687398   -1.691938
    145          8           0        7.350826    1.806948   -1.478439
    146          6           0        6.851265   -0.480718   -3.956185
    147          1           0        7.375720   -2.435734   -2.564870
    148          1           0        8.569647    0.058697   -2.729037
    149          1           0        5.923369   -1.011216   -3.740125
    150          1           0        6.650685    0.436597   -4.503177
    151          1           0        7.414805   -1.175489   -4.583174
    152          7           0        5.767547    0.332171   -1.084031
    153          6           0        5.053574    1.157328   -0.140073
    154          6           0        5.726009    1.307255    1.217813
    155          8           0        5.786549    2.367831    1.834346
    156          6           0        3.639520    0.617002    0.009254
    157          6           0        2.845891    0.792688   -1.283916
    158          6           0        1.332151    0.678612   -1.209908
    159          8           0        0.660326    0.749560   -0.150230
    160          8           0        0.733927    0.429080   -2.283062
    161          1           0        5.250247   -0.453086   -1.475020
    162          1           0        5.030571    2.176626   -0.512234
    163          1           0        3.211190    1.248490    0.782918
    164          1           0        3.707791   -0.420569    0.349527
    165          1           0        3.205834    0.084320   -2.029071
    166          1           0        3.005442    1.789571   -1.681996
    167          7           0        6.455118    0.263179    1.599918
    168          6           0        7.146324    0.205748    2.868081
    169          1           0        7.318533    1.217856    3.233133
    170          1           0        6.539608   -0.342110    3.589236
    171          1           0        8.102552   -0.300689    2.738606
    172          1           0        6.518989   -0.559798    1.017570
    173         20           0       -1.699448    0.191388   -1.314408
    174          8           0       -2.007707   -1.758447   -3.250052
    175          1           0       -2.002286   -2.008809   -4.168251
    176          1           0       -1.507739   -2.450266   -2.814944
 ---------------------------------------------------------------------

 SCF Done:  E(RB3LYP) =  -5333.55068449     A.U. after   18 cycles

 The electronic state is 1-A.
 Alpha  occ. eigenvalues -- -145.33146 -19.19345 -19.17900 -19.16655 -19.13528
 Alpha  occ. eigenvalues --  -19.12816 -19.11581 -19.10667 -19.09751 -19.09284
 Alpha  occ. eigenvalues --  -19.07495 -19.06833 -19.06606 -19.06242 -19.06089
 Alpha  occ. eigenvalues --  -19.05825 -19.05637 -19.04830 -19.04724 -19.04017
 Alpha  occ. eigenvalues --  -19.03758 -19.03289 -19.03025 -19.02149 -15.38932
 Alpha  occ. eigenvalues --  -14.57815 -14.39525 -14.38621 -14.37411 -14.37392
 Alpha  occ. eigenvalues --  -14.34941 -14.34657 -14.33659 -14.33597 -14.32257
 Alpha  occ. eigenvalues --  -14.32097 -14.31073 -14.30065 -14.29750 -14.29458
 Alpha  occ. eigenvalues --  -12.52546 -12.52499 -12.52487 -10.33581 -10.32159
 Alpha  occ. eigenvalues --  -10.31154 -10.30464 -10.29707 -10.29059 -10.28447
 Alpha  occ. eigenvalues --  -10.28196 -10.27395 -10.26810 -10.26601 -10.26325
 Alpha  occ. eigenvalues --  -10.26128 -10.26077 -10.25974 -10.24913 -10.24736
 Alpha  occ. eigenvalues --  -10.24642 -10.24490 -10.24392 -10.24388 -10.24029
 Alpha  occ. eigenvalues --  -10.23532 -10.23001 -10.22768 -10.22533 -10.22277
 Alpha  occ. eigenvalues --  -10.22215 -10.21970 -10.21407 -10.21316 -10.21255
 Alpha  occ. eigenvalues --  -10.20788 -10.20783 -10.20534 -10.20503 -10.20450
 Alpha  occ. eigenvalues --  -10.19886 -10.19695 -10.19640 -10.19129 -10.18595
 Alpha  occ. eigenvalues --  -10.18353 -10.18149 -10.17781 -10.17743 -10.17740
 Alpha  occ. eigenvalues --  -10.17521 -10.17508 -10.17311 -10.17255 -10.15649
 Alpha  occ. eigenvalues --  -10.15427 -10.13806  -1.75926  -1.13146  -1.07997
 Alpha  occ. eigenvalues --   -1.06622  -1.06528  -1.05404  -1.04583  -1.04377
 Alpha  occ. eigenvalues --   -1.03938  -1.03598  -1.03339  -1.02939  -1.02702
 Alpha  occ. eigenvalues --   -1.01679  -1.01037  -1.00478  -1.00020  -0.99929
 Alpha  occ. eigenvalues --   -0.99483  -0.98789  -0.98730  -0.98586  -0.98170
 Alpha  occ. eigenvalues --   -0.97084  -0.96275  -0.96167  -0.95248  -0.94833
 Alpha  occ. eigenvalues --   -0.93468  -0.91825  -0.90725  -0.90179  -0.89703
 Alpha  occ. eigenvalues --   -0.89603  -0.89358  -0.89195  -0.89064  -0.87880
 Alpha  occ. eigenvalues --   -0.87674  -0.87402  -0.86989  -0.86722  -0.86579
 Alpha  occ. eigenvalues --   -0.85707  -0.83402  -0.82008  -0.80815  -0.80690
 Alpha  occ. eigenvalues --   -0.79421  -0.79125  -0.78215  -0.76458  -0.76347
 Alpha  occ. eigenvalues --   -0.75833  -0.75695  -0.74632  -0.73693  -0.73071
 Alpha  occ. eigenvalues --   -0.72200  -0.71905  -0.70932  -0.70674  -0.70175
 Alpha  occ. eigenvalues --   -0.70119  -0.69817  -0.69239  -0.68211  -0.67589
 Alpha  occ. eigenvalues --   -0.67585  -0.66525  -0.66015  -0.64563  -0.64280
 Alpha  occ. eigenvalues --   -0.63483  -0.62962  -0.62852  -0.62616  -0.62305
 Alpha  occ. eigenvalues --   -0.61935  -0.61142  -0.60923  -0.60628  -0.60185
 Alpha  occ. eigenvalues --   -0.60083  -0.59128  -0.58886  -0.58154  -0.58012
 Alpha  occ. eigenvalues --   -0.57346  -0.56996  -0.56829  -0.56516  -0.56163
 Alpha  occ. eigenvalues --   -0.56057  -0.55997  -0.55733  -0.55646  -0.55041
 Alpha  occ. eigenvalues --   -0.54805  -0.54081  -0.53966  -0.53851  -0.53296
 Alpha  occ. eigenvalues --   -0.52595  -0.52501  -0.52215  -0.52041  -0.51838
 Alpha  occ. eigenvalues --   -0.51300  -0.51075  -0.50893  -0.50710  -0.50471
 Alpha  occ. eigenvalues --   -0.50229  -0.49967  -0.49298  -0.48426  -0.48358
 Alpha  occ. eigenvalues --   -0.48202  -0.47895  -0.47639  -0.47593  -0.47535
 Alpha  occ. eigenvalues --   -0.47482  -0.47265  -0.46986  -0.46784  -0.46715
 Alpha  occ. eigenvalues --   -0.46034  -0.45904  -0.45874  -0.45800  -0.45785
 Alpha  occ. eigenvalues --   -0.45556  -0.45064  -0.44843  -0.44759  -0.44673
 Alpha  occ. eigenvalues --   -0.44419  -0.44317  -0.44135  -0.44072  -0.43731
 Alpha  occ. eigenvalues --   -0.43597  -0.43392  -0.43097  -0.43035  -0.42806
 Alpha  occ. eigenvalues --   -0.42787  -0.42653  -0.42397  -0.42299  -0.41997
 Alpha  occ. eigenvalues --   -0.41956  -0.41833  -0.41712  -0.41685  -0.41485
 Alpha  occ. eigenvalues --   -0.41241  -0.41149  -0.41035  -0.40937  -0.40801
 Alpha  occ. eigenvalues --   -0.40598  -0.40545  -0.40374  -0.40289  -0.40033
 Alpha  occ. eigenvalues --   -0.39859  -0.39760  -0.39298  -0.39140  -0.38991
 Alpha  occ. eigenvalues --   -0.38969  -0.38749  -0.38693  -0.38578  -0.38486
 Alpha  occ. eigenvalues --   -0.38419  -0.38216  -0.38131  -0.37976  -0.37904
 Alpha  occ. eigenvalues --   -0.37644  -0.37568  -0.37444  -0.37293  -0.37151
 Alpha  occ. eigenvalues --   -0.37089  -0.36852  -0.36754  -0.36714  -0.36513
 Alpha  occ. eigenvalues --   -0.36167  -0.35972  -0.35607  -0.35473  -0.35339
 Alpha  occ. eigenvalues --   -0.35246  -0.35153  -0.34928  -0.34770  -0.34654
 Alpha  occ. eigenvalues --   -0.34602  -0.34454  -0.34234  -0.34032  -0.33943
 Alpha  occ. eigenvalues --   -0.33819  -0.33511  -0.33416  -0.33388  -0.33037
 Alpha  occ. eigenvalues --   -0.32726  -0.32453  -0.32228  -0.31758  -0.31665
 Alpha  occ. eigenvalues --   -0.31235  -0.30864  -0.30705  -0.30643  -0.29804
 Alpha  occ. eigenvalues --   -0.29391  -0.29060  -0.28818  -0.28166  -0.28050
 Alpha  occ. eigenvalues --   -0.27678  -0.27032  -0.26661  -0.26604  -0.26387
 Alpha  occ. eigenvalues --   -0.25558  -0.25422  -0.25026  -0.24671  -0.24559
 Alpha  occ. eigenvalues --   -0.24454  -0.24143  -0.23874  -0.23546  -0.23254
 Alpha  occ. eigenvalues --   -0.23054  -0.22773  -0.22719  -0.22398  -0.22255
 Alpha  occ. eigenvalues --   -0.22095  -0.21709  -0.21565  -0.21481  -0.21320
 Alpha  occ. eigenvalues --   -0.21020  -0.20701  -0.20388  -0.19681  -0.19308
 Alpha  occ. eigenvalues --   -0.19202  -0.18487  -0.17915
 Alpha virt. eigenvalues --   -0.09484  -0.03740  -0.03712  -0.03330  -0.03023
 Alpha virt. eigenvalues --   -0.02101  -0.02057  -0.01380  -0.01082  -0.00127
 Alpha virt. eigenvalues --    0.00193   0.00337   0.00560   0.01228   0.02372

 Mulliken charges:
               1
     1  C    0.073463
     2  C    0.027616
     3  O   -0.290905
     4  H    0.045548
     5  H   -0.011687
     6  H    0.031794
     7  N   -0.126964
     8  C    0.022744
     9  C    0.103997
    10  O   -0.282670
    11  C    0.087511
    12  C    0.144552
    13  O   -0.482316
    14  O   -0.356057
    15  H    0.117261
    16  H    0.031905
    17  H    0.004042
    18  H    0.001496
    19  N   -0.134893
    20  C    0.199741
    21  C    0.084593
    22  O   -0.322797
    23  C   -0.096261
    24  C   -0.018798
    25  C   -0.000306
    26  C    0.004496
    27  N    0.091271
    28  H    0.155342
    29  H   -0.009250
    30  H    0.052093
    31  H    0.027915
    32  H    0.004442
    33  H    0.011620
    34  H    0.058527
    35  H    0.070582
    36  H    0.073443
    37  H    0.066745
    38  H    0.194751
    39  H    0.187172
    40  H    0.203990
    41  N   -0.138094
    42  C    0.059145
    43  C    0.081696
    44  O   -0.282042
    45  C    0.142377
    46  C    0.081385
    47  O   -0.433389
    48  O   -0.427502
    49  H    0.189024
    50  H    0.011880
    51  H   -0.032997
    52  H    0.002306
    53  N   -0.156811
    54  C    0.234037
    55  C    0.007213
    56  O   -0.291831
    57  H    0.116046
    58  H    0.016211
    59  H    0.021708
    60  N   -0.145212
    61  C    0.128549
    62  C    0.042630
    63  O   -0.266467
    64  C    0.096376
    65  C    0.053953
    66  N   -0.056953
    67  O   -0.333216
    68  H    0.149822
    69  H    0.012975
    70  H    0.062690
    71  H   -0.017352
    72  H    0.121767
    73  H    0.149844
    74  N   -0.181121
    75  C    0.256187
    76  C   -0.006664
    77  O   -0.297813
    78  H    0.153311
    79  H    0.026066
    80  H    0.031411
    81  N   -0.136158
    82  C    0.136535
    83  C    0.120596
    84  O   -0.354532
    85  C    0.097737
    86  C   -0.004550
    87  C   -0.029067
    88  C    0.012738
    89  C   -0.032287
    90  C   -0.005330
    91  C    0.111944
    92  O   -0.210113
    93  H    0.168521
    94  H   -0.001271
    95  H    0.019196
    96  H   -0.008337
    97  H    0.006980
    98  H   -0.037991
    99  H   -0.024662
   100  H   -0.051903
   101  H    0.180037
   102  N   -0.120844
   103  C    0.191895
   104  C    0.036757
   105  O   -0.296154
   106  C   -0.088265
   107  C    0.030826
   108  C    0.017926
   109  C    0.017993
   110  H    0.130807
   111  H    0.012223
   112  H   -0.024831
   113  H   -0.010670
   114  H    0.020247
   115  H   -0.002975
   116  H    0.016150
   117  H    0.059015
   118  H    0.007386
   119  H   -0.002890
   120  H    0.016963
   121  N   -0.109223
   122  C    0.080751
   123  C    0.103615
   124  O   -0.250865
   125  C    0.232044
   126  O   -0.311285
   127  H    0.142772
   128  H    0.045264
   129  H    0.029069
   130  H   -0.037638
   131  H    0.199821
   132  N   -0.119040
   133  C    0.076197
   134  C    0.046641
   135  O   -0.264758
   136  C    0.006659
   137  H    0.112473
   138  H    0.029840
   139  H    0.045097
   140  H    0.037690
   141  H    0.014913
   142  N   -0.100432
   143  C    0.114385
   144  C    0.040777
   145  O   -0.250622
   146  C    0.044561
   147  H    0.093427
   148  H    0.021271
   149  H   -0.030054
   150  H    0.038073
   151  H    0.018697
   152  N   -0.168614
   153  C    0.128801
   154  C    0.061317
   155  O   -0.276668
   156  C   -0.037664
   157  C    0.113230
   158  C    0.107950
   159  O   -0.410151
   160  O   -0.418837
   161  H    0.132882
   162  H   -0.027818
   163  H    0.060102
   164  H   -0.002410
   165  H   -0.047714
   166  H   -0.028665
   167  N   -0.165850
   168  C    0.131621
   169  H    0.031682
   170  H    0.009792
   171  H    0.013561
   172  H    0.144225
   173  Ca   1.268023
   174  O   -0.253227
   175  H    0.178741
   176  H    0.159042
 Sum of Mulliken charges =  -0.00000

 Dipole moment (field-independent basis, Debye):
    X=             27.4053    Y=             -2.8302    Z=            -22.2803  Tot=             35.4326
 Quadrupole moment (field-independent basis, Debye-Ang):
   XX=           -673.7027   YY=           -423.0476   ZZ=           -462.2960
   XY=             83.0699   XZ=            -63.9943   YZ=            -54.3916

 ESP charges:
               1
     1  C   -0.415979
     2  C    0.758331
     3  O   -0.610792
     4  H    0.134196
     5  H    0.070077
     6  H    0.121749
     7  N   -0.701546
     8  C    0.190834
     9  C    0.561008
    10  O   -0.564280
    11  C   -0.389054
    12  C    0.740346
    13  O   -0.402973
    14  O   -0.712550
    15  H    0.370889
    16  H    0.051731
    17  H    0.111504
    18  H    0.077144
    19  N   -0.252611
    20  C   -0.278886
    21  C    0.636003
    22  O   -0.611095
    23  C    0.137489
    24  C   -0.027098
    25  C   -0.196372
    26  C    0.132218
    27  N   -0.424884
    28  H    0.209693
    29  H    0.118567
    30  H    0.061239
    31  H    0.015242
    32  H    0.028264
    33  H    0.018134
    34  H    0.091869
    35  H    0.118910
    36  H    0.055807
    37  H    0.064670
    38  H    0.334822
    39  H    0.324566
    40  H    0.371802
    41  N   -0.236202
    42  C   -0.008873
    43  C    0.469126
    44  O   -0.520923
    45  C   -0.235477
    46  C    0.685424
    47  O   -0.675405
    48  O   -0.726609
    49  H   -0.015307
    50  H    0.104572
    51  H    0.057525
    52  H    0.075770
    53  N   -0.262919
    54  C   -0.194649
    55  C    0.488385
    56  O   -0.551561
    57  H    0.256413
    58  H    0.121216
    59  H    0.104903
    60  N   -0.159864
    61  C    0.024697
    62  C    0.450995
    63  O   -0.534749
    64  C   -0.271038
    65  C    0.668682
    66  N   -0.746347
    67  O   -0.563616
    68  H    0.134847
    69  H    0.097822
    70  H    0.122321
    71  H    0.063733
    72  H    0.359526
    73  H    0.291593
    74  N   -0.212511
    75  C   -0.073434
    76  C    0.612133
    77  O   -0.573094
    78  H    0.156115
    79  H    0.073695
    80  H    0.081611
    81  N   -0.563034
    82  C    0.093973
    83  C    0.695723
    84  O   -0.588221
    85  C   -0.288670
    86  C    0.133079
    87  C   -0.105571
    88  C   -0.204918
    89  C   -0.362516
    90  C   -0.236104
    91  C    0.432408
    92  O   -0.559698
    93  H    0.351716
    94  H    0.089047
    95  H    0.119633
    96  H    0.082069
    97  H    0.164591
    98  H    0.153547
    99  H    0.162437
   100  H    0.135203
   101  H    0.404447
   102  N   -0.579469
   103  C    0.026011
   104  C    0.559697
   105  O   -0.571292
   106  C    0.201282
   107  C    0.152972
   108  C   -0.088266
   109  C   -0.341483
   110  H    0.290251
   111  H    0.094920
   112  H   -0.030304
   113  H   -0.052848
   114  H    0.019298
   115  H    0.033575
   116  H    0.003668
   117  H   -0.004107
   118  H    0.083228
   119  H    0.065185
   120  H    0.097910
   121  N   -0.378645
   122  C    0.257892
   123  C    0.363240
   124  O   -0.379657
   125  C   -0.178245
   126  O   -0.382550
   127  H    0.198500
   128  H    0.068390
   129  H    0.122407
   130  H    0.054092
   131  H    0.386110
   132  N   -0.486353
   133  C    0.320710
   134  C    0.437276
   135  O   -0.500965
   136  C   -0.472211
   137  H    0.284705
   138  H    0.061434
   139  H    0.133961
   140  H    0.127433
   141  H    0.120536
   142  N   -0.422784
   143  C    0.250953
   144  C    0.282816
   145  O   -0.497725
   146  C   -0.384564
   147  H    0.247490
   148  H    0.048409
   149  H    0.064035
   150  H    0.138862
   151  H    0.102966
   152  N    0.067822
   153  C   -0.268447
   154  C    0.573498
   155  O   -0.559938
   156  C   -0.150408
   157  C   -0.007007
   158  C    0.835814
   159  O   -0.816696
   160  O   -0.783313
   161  H    0.093691
   162  H    0.088751
   163  H    0.192545
   164  H   -0.122618
   165  H   -0.042016
   166  H   -0.022236
   167  N   -0.092387
   168  C   -0.209660
   169  H    0.106819
   170  H    0.065216
   171  H    0.079469
   172  H    0.118385
   173  Ca   1.509938
   174  O   -0.704137
   175  H    0.409003
   176  H    0.322516
 Sum of ESP charges =  -0.00000

 Normal termination of Gaussian 16 at Sat Sep 14 23:49:32 2019.
