 Gaussian 16, Revision A.03,
 Gaussian 16:  ES64L-G16RevA.03 25-Dec-2016

 ----------------------------------------------------------------------
 #b3lyp/svp scf=(tight,noincore) Test #IOP(5/87=12) Density=Current Pop
 =(MK,readradii) iop(6/33=2) iop(6/42=6)
 ----------------------------------------------------------------------

 -----------------
 CaMKII_loop3_88.0
 -----------------
 Symbolic Z-matrix:
 Charge =  0 Multiplicity = 1

                         Standard orientation:
 ---------------------------------------------------------------------
 Center     Atomic      Atomic             Coordinates (Angstroms)
 Number     Number       Type             X           Y           Z
 ---------------------------------------------------------------------
      1          6           0        2.053931    1.680395    5.427839
      2          6           0        1.291894    1.890179    4.121589
      3          8           0        1.973284    2.105028    3.114987
      4          1           0        2.660493    0.777406    5.352773
      5          1           0        2.700217    2.538065    5.614083
      6          1           0        1.345372    1.573905    6.249649
      7          7           0       -0.045267    1.901716    4.068986
      8          6           0       -0.856190    1.997995    2.875992
      9          6           0       -1.163756    3.415031    2.401005
     10          8           0       -2.212196    4.025034    2.543029
     11          6           0       -2.122449    1.180711    3.112918
     12          6           0       -2.950640    0.889929    1.867146
     13          8           0       -4.083450    0.384608    2.044322
     14          8           0       -2.514063    1.180780    0.735684
     15          1           0       -0.537116    1.779435    4.942904
     16          1           0       -0.290851    1.457148    2.121488
     17          1           0       -2.677128    1.663509    3.914502
     18          1           0       -1.777808    0.213385    3.479801
     19          7           0       -0.177223    4.010963    1.720845
     20          6           0       -0.145689    5.347192    1.162904
     21          6           0       -1.441591    5.833037    0.532434
     22          8           0       -1.687971    7.035528    0.494856
     23          6           0        0.971471    5.448077    0.129523
     24          6           0        0.888131    6.654959   -0.791287
     25          6           0        2.129824    6.767995   -1.672208
     26          6           0        1.842334    7.616112   -2.902065
     27          7           0        1.829773    9.067629   -2.621815
     28          1           0        0.617726    3.409047    1.556976
     29          1           0        0.016603    6.009661    2.015193
     30          1           0        0.829093    4.552397   -0.481694
     31          1           0        1.914512    5.462174    0.672546
     32          1           0        0.807120    7.503565   -0.104697
     33          1           0       -0.012353    6.620247   -1.405472
     34          1           0        2.336528    5.775513   -2.076130
     35          1           0        3.050020    6.994460   -1.142536
     36          1           0        0.859061    7.351815   -3.281437
     37          1           0        2.557454    7.340189   -3.676061
     38          1           0        2.648530    9.423602   -2.158003
     39          1           0        1.665811    9.538626   -3.492894
     40          1           0        1.075555    9.310484   -1.992311
     41          7           0       -2.265814    5.001441   -0.117263
     42          6           0       -3.305136    5.284871   -1.080890
     43          6           0       -4.662045    4.817565   -0.559717
     44          8           0       -5.683633    5.210715   -1.111705
     45          6           0       -3.029543    4.540459   -2.375495
     46          6           0       -2.481393    3.151728   -2.109117
     47          8           0       -3.263726    2.174817   -2.108485
     48          8           0       -1.246661    3.043796   -1.901542
     49          1           0       -2.003645    4.032841   -0.011524
     50          1           0       -3.419465    6.353683   -1.253719
     51          1           0       -2.341279    5.059159   -3.047241
     52          1           0       -3.932113    4.349803   -2.949967
     53          7           0       -4.669470    3.845510    0.356828
     54          6           0       -5.841215    3.253725    0.962965
     55          6           0       -6.225799    1.815567    0.608566
     56          8           0       -7.242633    1.410876    1.161804
     57          1           0       -3.732870    3.610336    0.653433
     58          1           0       -6.735410    3.724698    0.554554
     59          1           0       -5.811292    3.370903    2.041610
     60          7           0       -5.617089    1.162040   -0.379652
     61          6           0       -6.265937    0.044639   -1.037004
     62          6           0       -6.519605   -1.254023   -0.295365
     63          8           0       -7.244410   -2.087368   -0.835915
     64          6           0       -5.748641   -0.167045   -2.458024
     65          6           0       -4.492256   -1.027826   -2.450821
     66          7           0       -4.318222   -1.718235   -3.581505
     67          8           0       -3.688254   -1.178517   -1.527255
     68          1           0       -4.753975    1.550347   -0.720755
     69          1           0       -7.300563    0.316193   -1.253814
     70          1           0       -5.495546    0.796924   -2.904908
     71          1           0       -6.527501   -0.745385   -2.954411
     72          1           0       -5.040822   -1.580586   -4.282577
     73          1           0       -3.678327   -2.498475   -3.605165
     74          7           0       -5.993679   -1.404167    0.925479
     75          6           0       -5.970341   -2.636806    1.681557
     76          6           0       -4.657687   -3.399015    1.557545
     77          8           0       -4.612825   -4.553709    1.973681
     78          1           0       -5.453664   -0.634225    1.298002
     79          1           0       -6.846739   -3.251498    1.470415
     80          1           0       -6.156513   -2.411290    2.726058
     81          7           0       -3.636060   -2.886064    0.860581
     82          6           0       -2.411615   -3.574490    0.533159
     83          6           0       -1.129596   -2.769164    0.685732
     84          8           0       -1.213411   -1.575419    0.388161
     85          6           0       -2.666392   -4.179203   -0.845068
     86          6           0       -3.787474   -5.178916   -0.987013
     87          6           0       -3.508508   -6.552783   -0.832524
     88          6           0       -5.093698   -4.740224   -1.203877
     89          6           0       -4.543365   -7.500315   -0.921157
     90          6           0       -6.134618   -5.674252   -1.217139
     91          6           0       -5.862037   -7.054928   -1.137568
     92          8           0       -6.822694   -8.011134   -1.266440
     93          1           0       -3.653545   -1.902214    0.631161
     94          1           0       -2.326415   -4.405073    1.242083
     95          1           0       -1.721207   -4.626778   -1.147889
     96          1           0       -2.782348   -3.416567   -1.615937
     97          1           0       -2.488473   -6.846278   -0.692562
     98          1           0       -5.340948   -3.688130   -1.250402
     99          1           0       -4.349267   -8.559814   -0.901464
    100          1           0       -7.129923   -5.301101   -1.413165
    101          1           0       -7.640803   -7.545696   -1.488625
    102          7           0       -0.038220   -3.425890    1.090218
    103          6           0        1.278741   -2.816905    1.130854
    104          6           0        2.154884   -3.538446    0.108675
    105          8           0        2.351356   -4.748425    0.209917
    106          6           0        1.865212   -2.852447    2.543011
    107          6           0        0.943876   -2.766090    3.762922
    108          6           0        2.838055   -1.680787    2.692640
    109          6           0        1.603412   -3.108327    5.092617
    110          1           0       -0.144947   -4.401578    1.317468
    111          1           0        1.118785   -1.779199    0.825925
    112          1           0        2.461536   -3.753700    2.668876
    113          1           0        0.167959   -3.490342    3.517137
    114          1           0        0.430495   -1.810779    3.793257
    115          1           0        3.628382   -1.864997    1.967968
    116          1           0        2.333630   -0.716341    2.613265
    117          1           0        3.421686   -1.658280    3.609901
    118          1           0        0.884202   -3.066994    5.909640
    119          1           0        1.855161   -4.156751    4.987595
    120          1           0        2.528921   -2.600486    5.362676
    121          7           0        2.809355   -2.812677   -0.799250
    122          6           0        3.968946   -3.218925   -1.560572
    123          6           0        5.300471   -3.122733   -0.825867
    124          8           0        5.478504   -2.346708    0.105523
    125          6           0        4.047196   -2.533982   -2.910879
    126          8           0        4.439729   -1.187077   -2.755753
    127          1           0        2.604047   -1.825212   -0.724681
    128          1           0        3.893539   -4.283873   -1.803057
    129          1           0        3.041982   -2.478549   -3.320112
    130          1           0        4.784907   -3.047767   -3.522360
    131          1           0        4.741764   -1.057344   -3.658219
    132          7           0        6.334310   -3.876804   -1.227182
    133          6           0        7.681790   -3.720655   -0.719524
    134          6           0        8.223447   -2.312819   -0.898986
    135          8           0        8.904546   -1.839361    0.006354
    136          6           0        8.673766   -4.702569   -1.332817
    137          1           0        6.212747   -4.609449   -1.909717
    138          1           0        7.657034   -3.884386    0.358613
    139          1           0        8.995513   -4.381084   -2.319795
    140          1           0        9.567195   -4.591371   -0.718309
    141          1           0        8.249800   -5.705594   -1.252235
    142          7           0        7.802565   -1.534204   -1.897594
    143          6           0        8.104964   -0.114861   -1.978960
    144          6           0        7.317195    0.728737   -0.994093
    145          8           0        7.909463    1.479608   -0.227861
    146          6           0        7.789114    0.349666   -3.397111
    147          1           0        7.467790   -1.888229   -2.776566
    148          1           0        9.176226   -0.032524   -1.790764
    149          1           0        8.047421    1.393991   -3.563432
    150          1           0        8.317690   -0.372934   -4.021176
    151          1           0        6.726913    0.269488   -3.588945
    152          7           0        6.023416    0.460838   -0.802087
    153          6           0        5.268018    1.105771    0.255474
    154          6           0        5.730493    0.735908    1.655195
    155          8           0        5.612454    1.624909    2.493433
    156          6           0        3.800396    0.698879    0.151913
    157          6           0        3.121253    1.581931   -0.878224
    158          6           0        1.642364    1.230315   -1.004536
    159          8           0        1.192684    1.159750   -2.166434
    160          8           0        0.930713    0.916028   -0.022356
    161          1           0        5.567492   -0.244316   -1.366525
    162          1           0        5.405573    2.185464    0.221698
    163          1           0        3.300213    0.733606    1.125726
    164          1           0        3.717972   -0.291378   -0.283631
    165          1           0        3.622538    1.518487   -1.838843
    166          1           0        3.171043    2.623229   -0.548651
    167          7           0        6.362927   -0.395584    1.981773
    168          6           0        7.092562   -0.733440    3.186300
    169          1           0        7.658807   -1.650100    3.021944
    170          1           0        7.778061    0.076326    3.436290
    171          1           0        6.391437   -0.882776    4.006699
    172          1           0        6.306829   -1.077508    1.245001
    173         20           0       -1.398683    0.411471   -1.395722
    174          8           0       -0.325575   -1.632428   -2.629503
    175          1           0        0.181888   -1.224452   -3.322494
    176          1           0       -0.482869   -2.530714   -2.949566
 ---------------------------------------------------------------------

 SCF Done:  E(RB3LYP) =  -5333.56180667     A.U. after   16 cycles

 The electronic state is 1-A.
 Alpha  occ. eigenvalues -- -145.35570 -19.19481 -19.19034 -19.14271 -19.13276
 Alpha  occ. eigenvalues --  -19.11522 -19.10946 -19.10701 -19.10526 -19.07151
 Alpha  occ. eigenvalues --  -19.07026 -19.06956 -19.06398 -19.06059 -19.05496
 Alpha  occ. eigenvalues --  -19.05300 -19.04712 -19.04575 -19.04039 -19.03803
 Alpha  occ. eigenvalues --  -19.03309 -19.03217 -19.03085 -19.01398 -15.41302
 Alpha  occ. eigenvalues --  -14.58377 -14.39318 -14.37686 -14.37077 -14.36680
 Alpha  occ. eigenvalues --  -14.36569 -14.33283 -14.32633 -14.32357 -14.32172
 Alpha  occ. eigenvalues --  -14.30971 -14.30571 -14.29521 -14.29477 -14.29343
 Alpha  occ. eigenvalues --  -12.54919 -12.54878 -12.54867 -10.34545 -10.32029
 Alpha  occ. eigenvalues --  -10.29816 -10.29566 -10.29395 -10.29166 -10.28888
 Alpha  occ. eigenvalues --  -10.27449 -10.26275 -10.26203 -10.25834 -10.25638
 Alpha  occ. eigenvalues --  -10.25626 -10.25343 -10.24761 -10.23914 -10.23780
 Alpha  occ. eigenvalues --  -10.23539 -10.23538 -10.23241 -10.22883 -10.22652
 Alpha  occ. eigenvalues --  -10.22550 -10.22527 -10.22378 -10.22258 -10.22219
 Alpha  occ. eigenvalues --  -10.22077 -10.21407 -10.21276 -10.21002 -10.20470
 Alpha  occ. eigenvalues --  -10.19807 -10.19395 -10.19216 -10.18999 -10.18443
 Alpha  occ. eigenvalues --  -10.18253 -10.17858 -10.17722 -10.17483 -10.17083
 Alpha  occ. eigenvalues --  -10.16833 -10.16782 -10.16546 -10.16515 -10.16305
 Alpha  occ. eigenvalues --  -10.16198 -10.16190 -10.16055 -10.15397 -10.14791
 Alpha  occ. eigenvalues --  -10.14739 -10.14378  -1.78157  -1.13595  -1.08263
 Alpha  occ. eigenvalues --   -1.06749  -1.06297  -1.05735  -1.05491  -1.04786
 Alpha  occ. eigenvalues --   -1.04246  -1.03973  -1.03880  -1.03025  -1.02951
 Alpha  occ. eigenvalues --   -1.01265  -1.00513  -1.00494  -1.00069  -0.99065
 Alpha  occ. eigenvalues --   -0.98659  -0.98444  -0.98021  -0.97818  -0.96914
 Alpha  occ. eigenvalues --   -0.96660  -0.96592  -0.95690  -0.94294  -0.93653
 Alpha  occ. eigenvalues --   -0.93429  -0.91479  -0.90735  -0.90061  -0.89627
 Alpha  occ. eigenvalues --   -0.89331  -0.89278  -0.88472  -0.88256  -0.88238
 Alpha  occ. eigenvalues --   -0.87370  -0.87019  -0.86560  -0.85988  -0.85768
 Alpha  occ. eigenvalues --   -0.82568  -0.82104  -0.81255  -0.80646  -0.79556
 Alpha  occ. eigenvalues --   -0.78328  -0.76751  -0.76408  -0.76294  -0.76052
 Alpha  occ. eigenvalues --   -0.75190  -0.74572  -0.73965  -0.72436  -0.71730
 Alpha  occ. eigenvalues --   -0.71610  -0.70971  -0.69789  -0.69764  -0.69532
 Alpha  occ. eigenvalues --   -0.69368  -0.68848  -0.68279  -0.68102  -0.67591
 Alpha  occ. eigenvalues --   -0.66296  -0.65202  -0.65154  -0.64156  -0.64053
 Alpha  occ. eigenvalues --   -0.63051  -0.63023  -0.62267  -0.61856  -0.61738
 Alpha  occ. eigenvalues --   -0.61370  -0.61120  -0.59801  -0.59621  -0.58930
 Alpha  occ. eigenvalues --   -0.58703  -0.58496  -0.57993  -0.57748  -0.57375
 Alpha  occ. eigenvalues --   -0.56593  -0.56479  -0.56277  -0.56178  -0.55769
 Alpha  occ. eigenvalues --   -0.55696  -0.54794  -0.54766  -0.54492  -0.53703
 Alpha  occ. eigenvalues --   -0.53670  -0.53116  -0.53094  -0.53047  -0.52810
 Alpha  occ. eigenvalues --   -0.52219  -0.52172  -0.51844  -0.51712  -0.51089
 Alpha  occ. eigenvalues --   -0.50885  -0.50682  -0.50011  -0.49578  -0.49235
 Alpha  occ. eigenvalues --   -0.49133  -0.48945  -0.48866  -0.48691  -0.48258
 Alpha  occ. eigenvalues --   -0.48191  -0.47332  -0.47039  -0.46944  -0.46835
 Alpha  occ. eigenvalues --   -0.46407  -0.46325  -0.46054  -0.45882  -0.45865
 Alpha  occ. eigenvalues --   -0.45603  -0.45498  -0.45246  -0.45148  -0.45036
 Alpha  occ. eigenvalues --   -0.44651  -0.44128  -0.44010  -0.43948  -0.43845
 Alpha  occ. eigenvalues --   -0.43649  -0.43518  -0.43416  -0.43133  -0.42931
 Alpha  occ. eigenvalues --   -0.42902  -0.42788  -0.42575  -0.42196  -0.42142
 Alpha  occ. eigenvalues --   -0.42045  -0.41923  -0.41755  -0.41670  -0.41534
 Alpha  occ. eigenvalues --   -0.41269  -0.41191  -0.40991  -0.40730  -0.40589
 Alpha  occ. eigenvalues --   -0.40492  -0.40293  -0.40182  -0.40079  -0.39916
 Alpha  occ. eigenvalues --   -0.39846  -0.39774  -0.39646  -0.39530  -0.39328
 Alpha  occ. eigenvalues --   -0.39222  -0.39125  -0.38960  -0.38769  -0.38632
 Alpha  occ. eigenvalues --   -0.38540  -0.38399  -0.38288  -0.38114  -0.37861
 Alpha  occ. eigenvalues --   -0.37841  -0.37755  -0.37496  -0.37282  -0.37135
 Alpha  occ. eigenvalues --   -0.37067  -0.36999  -0.36919  -0.36720  -0.36675
 Alpha  occ. eigenvalues --   -0.36550  -0.36402  -0.36042  -0.35923  -0.35781
 Alpha  occ. eigenvalues --   -0.35765  -0.35632  -0.35457  -0.35234  -0.34872
 Alpha  occ. eigenvalues --   -0.34773  -0.34583  -0.34293  -0.34008  -0.33780
 Alpha  occ. eigenvalues --   -0.33736  -0.33691  -0.33538  -0.33331  -0.33169
 Alpha  occ. eigenvalues --   -0.32952  -0.32516  -0.32422  -0.32177  -0.32015
 Alpha  occ. eigenvalues --   -0.31743  -0.31595  -0.31082  -0.31020  -0.30887
 Alpha  occ. eigenvalues --   -0.30659  -0.30425  -0.30240  -0.29726  -0.29600
 Alpha  occ. eigenvalues --   -0.29251  -0.29198  -0.28289  -0.27994  -0.27657
 Alpha  occ. eigenvalues --   -0.26864  -0.26245  -0.25946  -0.25666  -0.25521
 Alpha  occ. eigenvalues --   -0.25024  -0.24516  -0.24103  -0.23880  -0.23682
 Alpha  occ. eigenvalues --   -0.23421  -0.23131  -0.22746  -0.22662  -0.22602
 Alpha  occ. eigenvalues --   -0.22515  -0.22190  -0.21931  -0.21866  -0.21797
 Alpha  occ. eigenvalues --   -0.21615  -0.21219  -0.20536  -0.20236  -0.20046
 Alpha  occ. eigenvalues --   -0.19835  -0.19676  -0.19536  -0.19434  -0.19200
 Alpha  occ. eigenvalues --   -0.18782  -0.18575  -0.17415
 Alpha virt. eigenvalues --   -0.10096  -0.04119  -0.03577  -0.03228  -0.02236
 Alpha virt. eigenvalues --   -0.01798  -0.00533  -0.00475  -0.00131   0.00362
 Alpha virt. eigenvalues --    0.00919   0.01214   0.01462   0.01966   0.02746

 Mulliken charges:
               1
     1  C    0.086064
     2  C    0.007976
     3  O   -0.296862
     4  H    0.042615
     5  H    0.045170
     6  H   -0.020028
     7  N   -0.115874
     8  C    0.077784
     9  C    0.072116
    10  O   -0.274492
    11  C    0.039407
    12  C    0.185037
    13  O   -0.388985
    14  O   -0.470155
    15  H    0.111912
    16  H    0.045147
    17  H    0.007543
    18  H    0.003448
    19  N   -0.132761
    20  C    0.197883
    21  C    0.018999
    22  O   -0.316671
    23  C   -0.044454
    24  C   -0.011734
    25  C   -0.012676
    26  C    0.025179
    27  N    0.077911
    28  H    0.138396
    29  H    0.002641
    30  H    0.067794
    31  H    0.026349
    32  H   -0.001398
    33  H    0.036415
    34  H    0.053825
    35  H    0.028732
    36  H    0.075735
    37  H    0.072750
    38  H    0.187643
    39  H    0.191329
    40  H    0.196710
    41  N   -0.127659
    42  C    0.091329
    43  C    0.043038
    44  O   -0.291608
    45  C    0.202425
    46  C    0.028316
    47  O   -0.412427
    48  O   -0.408944
    49  H    0.162835
    50  H    0.002843
    51  H   -0.032017
    52  H    0.005860
    53  N   -0.159183
    54  C    0.233264
    55  C    0.039909
    56  O   -0.314331
    57  H    0.134200
    58  H    0.034143
    59  H    0.032927
    60  N   -0.125962
    61  C    0.157109
    62  C    0.042500
    63  O   -0.317250
    64  C    0.053816
    65  C    0.038203
    66  N   -0.035997
    67  O   -0.331069
    68  H    0.148469
    69  H    0.015235
    70  H    0.058706
    71  H    0.025001
    72  H    0.127895
    73  H    0.120758
    74  N   -0.139963
    75  C    0.232709
    76  C    0.034778
    77  O   -0.303529
    78  H    0.158552
    79  H    0.028473
    80  H    0.021381
    81  N   -0.161630
    82  C    0.148576
    83  C    0.130124
    84  O   -0.330443
    85  C    0.157643
    86  C   -0.019391
    87  C    0.015285
    88  C    0.001159
    89  C   -0.006540
    90  C   -0.048953
    91  C    0.165638
    92  O   -0.196399
    93  H    0.158892
    94  H   -0.014437
    95  H   -0.062410
    96  H   -0.054605
    97  H   -0.053659
    98  H   -0.018246
    99  H   -0.037413
   100  H   -0.035372
   101  H    0.172502
   102  N   -0.136451
   103  C    0.172054
   104  C    0.057250
   105  O   -0.284406
   106  C   -0.099145
   107  C    0.049713
   108  C    0.001441
   109  C    0.035965
   110  H    0.137335
   111  H    0.028899
   112  H   -0.020477
   113  H   -0.028788
   114  H    0.002104
   115  H    0.000682
   116  H    0.067658
   117  H   -0.003750
   118  H    0.010977
   119  H   -0.006331
   120  H    0.016463
   121  N   -0.108864
   122  C    0.102537
   123  C    0.097703
   124  O   -0.254884
   125  C    0.230018
   126  O   -0.280738
   127  H    0.158298
   128  H    0.015451
   129  H    0.004780
   130  H   -0.010210
   131  H    0.174909
   132  N   -0.125638
   133  C    0.075559
   134  C    0.057281
   135  O   -0.251708
   136  C    0.047786
   137  H    0.110078
   138  H    0.031226
   139  H    0.007739
   140  H    0.046731
   141  H    0.034434
   142  N   -0.123671
   143  C    0.088044
   144  C    0.055726
   145  O   -0.255785
   146  C    0.036262
   147  H    0.080544
   148  H    0.015723
   149  H    0.038381
   150  H    0.007453
   151  H   -0.021375
   152  N   -0.152915
   153  C    0.148896
   154  C    0.031812
   155  O   -0.298929
   156  C   -0.019984
   157  C    0.123674
   158  C    0.094922
   159  O   -0.429514
   160  O   -0.397089
   161  H    0.129902
   162  H   -0.004387
   163  H    0.080186
   164  H   -0.052225
   165  H   -0.044104
   166  H   -0.021986
   167  N   -0.150149
   168  C    0.157367
   169  H    0.007875
   170  H    0.025066
   171  H    0.005685
   172  H    0.127409
   173  Ca   1.257847
   174  O   -0.286443
   175  H    0.178853
   176  H    0.181777
 Sum of Mulliken charges =  -0.00000

 Dipole moment (field-independent basis, Debye):
    X=             23.1543    Y=             14.5143    Z=            -26.4417  Tot=             38.0257
 Quadrupole moment (field-independent basis, Debye-Ang):
   XX=           -695.4536   YY=           -332.2148   ZZ=           -469.1320
   XY=             37.3915   XZ=            -47.5434   YZ=            -63.7933

 ESP charges:
               1
     1  C   -0.413786
     2  C    0.679638
     3  O   -0.568242
     4  H    0.135173
     5  H    0.141400
     6  H    0.065301
     7  N   -0.669738
     8  C    0.270200
     9  C    0.593074
    10  O   -0.553431
    11  C   -0.464719
    12  C    1.009664
    13  O   -0.746302
    14  O   -0.949653
    15  H    0.347294
    16  H    0.147444
    17  H    0.106973
    18  H    0.092925
    19  N   -0.562690
    20  C    0.315266
    21  C    0.451122
    22  O   -0.601803
    23  C   -0.284774
    24  C    0.069916
    25  C   -0.061105
    26  C    0.033045
    27  N   -0.403199
    28  H    0.289252
    29  H    0.021247
    30  H    0.105169
    31  H    0.109237
    32  H   -0.020664
    33  H    0.038389
    34  H    0.067991
    35  H    0.048633
    36  H    0.094841
    37  H    0.076690
    38  H    0.343823
    39  H    0.338680
    40  H    0.333586
    41  N   -0.245436
    42  C    0.168891
    43  C    0.376300
    44  O   -0.548048
    45  C   -0.395636
    46  C    0.772938
    47  O   -0.743806
    48  O   -0.713487
    49  H    0.180635
    50  H    0.070602
    51  H    0.083662
    52  H    0.120432
    53  N   -0.120823
    54  C   -0.206909
    55  C    0.697435
    56  O   -0.618777
    57  H    0.137615
    58  H    0.117989
    59  H    0.104745
    60  N   -0.532390
    61  C    0.114213
    62  C    0.420667
    63  O   -0.545783
    64  C   -0.333738
    65  C    0.589838
    66  N   -0.855859
    67  O   -0.405771
    68  H    0.360395
    69  H    0.095734
    70  H    0.147148
    71  H    0.098412
    72  H    0.390941
    73  H    0.398429
    74  N   -0.245899
    75  C   -0.114599
    76  C    0.476847
    77  O   -0.524394
    78  H    0.325809
    79  H    0.125056
    80  H    0.083681
    81  N   -0.297683
    82  C    0.030949
    83  C    0.624813
    84  O   -0.502681
    85  C    0.413263
    86  C   -0.136348
    87  C   -0.192216
    88  C   -0.267160
    89  C   -0.107011
    90  C   -0.149594
    91  C    0.280156
    92  O   -0.528885
    93  H    0.101241
    94  H    0.039387
    95  H   -0.109248
    96  H   -0.125954
    97  H    0.115203
    98  H    0.224331
    99  H    0.116859
   100  H    0.099866
   101  H    0.396083
   102  N   -0.629523
   103  C   -0.091593
   104  C    0.673957
   105  O   -0.574168
   106  C    0.432868
   107  C    0.011777
   108  C   -0.387579
   109  C   -0.256907
   110  H    0.332296
   111  H    0.086784
   112  H   -0.056132
   113  H   -0.017038
   114  H    0.022291
   115  H    0.001103
   116  H    0.110233
   117  H    0.106501
   118  H    0.075916
   119  H    0.051415
   120  H    0.061921
   121  N   -0.515160
   122  C    0.159024
   123  C    0.462845
   124  O   -0.385218
   125  C   -0.062694
   126  O   -0.415297
   127  H    0.370821
   128  H    0.054526
   129  H    0.069442
   130  H    0.046298
   131  H    0.378355
   132  N   -0.505222
   133  C    0.243807
   134  C    0.468155
   135  O   -0.522803
   136  C   -0.394275
   137  H    0.289674
   138  H    0.062631
   139  H    0.091124
   140  H    0.128250
   141  H    0.120085
   142  N   -0.355223
   143  C    0.244007
   144  C    0.344707
   145  O   -0.526855
   146  C   -0.396902
   147  H    0.228949
   148  H    0.051007
   149  H    0.136968
   150  H    0.079126
   151  H    0.084086
   152  N   -0.082625
   153  C   -0.066669
   154  C    0.456388
   155  O   -0.573203
   156  C    0.131157
   157  C   -0.175811
   158  C    0.896476
   159  O   -0.791236
   160  O   -0.846116
   161  H    0.013932
   162  H    0.091298
   163  H    0.047720
   164  H   -0.108471
   165  H   -0.004865
   166  H    0.010689
   167  N    0.000395
   168  C   -0.242717
   169  H    0.091113
   170  H    0.110062
   171  H    0.064772
   172  H    0.088487
   173  Ca   1.569445
   174  O   -0.906945
   175  H    0.444445
   176  H    0.435619
 Sum of ESP charges =  -0.00000

 Normal termination of Gaussian 16 at Sun Sep 15 01:04:03 2019.
