 Gaussian 16, Revision A.03,
 Gaussian 16:  ES64L-G16RevA.03 25-Dec-2016

 ----------------------------------------------------------------------
 #b3lyp/svp scf=(tight,noincore) Test #IOP(5/87=12) Density=Current Pop
 =(MK,readradii) iop(6/33=2) iop(6/42=6)
 ----------------------------------------------------------------------

 -----------------
 CaMKII_loop3_99.0
 -----------------
 Symbolic Z-matrix:
 Charge =  0 Multiplicity = 1

                         Standard orientation:
 ---------------------------------------------------------------------
 Center     Atomic      Atomic             Coordinates (Angstroms)
 Number     Number       Type             X           Y           Z
 ---------------------------------------------------------------------
      1          6           0        2.509431    2.282281    4.607047
      2          6           0        1.648837    2.330525    3.354550
      3          8           0        2.185790    2.599723    2.279090
      4          1           0        3.547395    2.480820    4.341444
      5          1           0        2.165234    3.036925    5.313852
      6          1           0        2.433856    1.295143    5.063284
      7          7           0        0.330443    2.268391    3.549683
      8          6           0       -0.566405    2.155181    2.420547
      9          6           0       -0.959287    3.574338    2.061328
     10          8           0       -2.092005    4.047918    2.087243
     11          6           0       -1.760963    1.223231    2.654215
     12          6           0       -2.809289    1.246370    1.557686
     13          8           0       -4.002568    1.180577    1.916932
     14          8           0       -2.356683    1.269820    0.391154
     15          1           0       -0.027904    2.091484    4.470928
     16          1           0       -0.125600    1.783745    1.494898
     17          1           0       -2.245466    1.491729    3.589558
     18          1           0       -1.238335    0.295000    2.900481
     19          7           0        0.047964    4.398189    1.743812
     20          6           0        0.057562    5.831677    1.504608
     21          6           0       -0.865247    6.224406    0.359625
     22          8           0       -1.176688    7.401185    0.187008
     23          6           0        1.497706    6.277533    1.270301
     24          6           0        2.240797    5.622789    0.112145
     25          6           0        3.480883    6.441479   -0.221519
     26          6           0        4.641056    5.812409   -0.990851
     27          7           0        4.304016    5.607172   -2.409894
     28          1           0        0.991553    4.066483    1.856107
     29          1           0       -0.339400    6.385209    2.353974
     30          1           0        1.954314    5.963670    2.213699
     31          1           0        1.482600    7.363673    1.151259
     32          1           0        1.598090    5.567287   -0.764637
     33          1           0        2.615199    4.632408    0.371316
     34          1           0        3.956353    6.848795    0.676658
     35          1           0        3.161757    7.296482   -0.823207
     36          1           0        4.894091    4.897755   -0.443695
     37          1           0        5.494532    6.449523   -0.827865
     38          1           0        5.062857    5.177396   -2.923658
     39          1           0        3.537334    4.961315   -2.470459
     40          1           0        3.967935    6.365531   -2.989842
     41          7           0       -1.264911    5.266122   -0.477010
     42          6           0       -2.173209    5.402834   -1.603422
     43          6           0       -3.576987    4.929550   -1.269489
     44          8           0       -4.465299    5.209235   -2.066721
     45          6           0       -1.734619    4.467686   -2.727627
     46          6           0       -1.612276    3.010314   -2.312295
     47          8           0       -0.615208    2.811173   -1.582775
     48          8           0       -2.406454    2.113966   -2.670682
     49          1           0       -0.797539    4.387070   -0.349606
     50          1           0       -2.057936    6.451591   -1.892769
     51          1           0       -0.810540    4.886530   -3.130302
     52          1           0       -2.429098    4.609383   -3.559325
     53          7           0       -3.802333    4.354563   -0.086819
     54          6           0       -5.102574    4.010675    0.447704
     55          6           0       -5.794711    2.789108   -0.149890
     56          8           0       -6.965164    2.630810    0.165518
     57          1           0       -2.981861    4.227904    0.482201
     58          1           0       -5.826563    4.818469    0.346173
     59          1           0       -4.888000    3.569347    1.422275
     60          7           0       -5.215811    2.042490   -1.094737
     61          6           0       -5.943279    0.930397   -1.679406
     62          6           0       -6.490859   -0.130053   -0.739618
     63          8           0       -7.336739   -0.949856   -1.106239
     64          6           0       -5.308517    0.432578   -2.969621
     65          6           0       -4.369082   -0.748264   -2.794484
     66          7           0       -4.565855   -1.791069   -3.614020
     67          8           0       -3.502860   -0.758799   -1.931147
     68          1           0       -4.224672    2.116535   -1.225353
     69          1           0       -6.833988    1.430117   -2.079928
     70          1           0       -4.864336    1.276073   -3.491750
     71          1           0       -6.155709    0.096698   -3.577937
     72          1           0       -5.265049   -1.770390   -4.338796
     73          1           0       -4.097547   -2.652104   -3.373592
     74          7           0       -5.997530   -0.196579    0.499374
     75          6           0       -6.251586   -1.164612    1.536132
     76          6           0       -5.210037   -2.233759    1.841258
     77          8           0       -5.555176   -3.076598    2.682746
     78          1           0       -5.281799    0.449556    0.797434
     79          1           0       -7.114639   -1.752874    1.219451
     80          1           0       -6.476117   -0.638862    2.465471
     81          7           0       -4.105039   -2.259602    1.111594
     82          6           0       -3.059986   -3.266928    1.119287
     83          6           0       -1.730895   -2.534195    1.006506
     84          8           0       -1.607909   -1.453191    0.434139
     85          6           0       -3.318002   -4.202984   -0.060047
     86          6           0       -4.685714   -4.846202   -0.099238
     87          6           0       -4.885131   -6.062229    0.572261
     88          6           0       -5.624239   -4.306236   -0.979128
     89          6           0       -6.122411   -6.693929    0.428404
     90          6           0       -6.844538   -4.977073   -1.131928
     91          6           0       -7.133307   -6.111028   -0.363060
     92          8           0       -8.325083   -6.720208   -0.619711
     93          1           0       -4.038656   -1.554460    0.388151
     94          1           0       -3.034135   -3.800281    2.071162
     95          1           0       -2.569842   -4.998703   -0.010188
     96          1           0       -3.071768   -3.685465   -0.985110
     97          1           0       -4.106946   -6.628363    1.049775
     98          1           0       -5.360237   -3.365201   -1.442761
     99          1           0       -6.309780   -7.658570    0.883663
    100          1           0       -7.512147   -4.580369   -1.899212
    101          1           0       -8.847411   -6.123682   -1.158161
    102          7           0       -0.697915   -3.099559    1.640158
    103          6           0        0.691453   -2.676274    1.721307
    104          6           0        1.413316   -3.564122    0.715505
    105          8           0        1.297168   -4.785324    0.706754
    106          6           0        1.239038   -2.976030    3.111162
    107          6           0        0.605041   -2.033526    4.134067
    108          6           0        2.739300   -2.749223    3.256333
    109          6           0        1.038707   -2.232715    5.583155
    110          1           0       -0.830009   -3.962472    2.135367
    111          1           0        0.857110   -1.623959    1.500872
    112          1           0        1.045001   -4.010845    3.368858
    113          1           0       -0.480649   -2.062845    4.168976
    114          1           0        0.877126   -1.038390    3.806844
    115          1           0        2.997614   -1.691470    3.366934
    116          1           0        3.061354   -3.335239    4.117707
    117          1           0        3.307563   -3.156150    2.414913
    118          1           0        0.354527   -1.689503    6.245438
    119          1           0        0.902146   -3.276790    5.867509
    120          1           0        2.071439   -1.964070    5.798084
    121          7           0        2.161660   -2.884544   -0.155503
    122          6           0        3.161023   -3.471915   -1.021279
    123          6           0        4.574379   -3.500884   -0.424970
    124          8           0        5.011673   -2.699033    0.384974
    125          6           0        3.249996   -2.835750   -2.406335
    126          8           0        1.949295   -2.778343   -2.935561
    127          1           0        2.099273   -1.876285   -0.045855
    128          1           0        2.817117   -4.495502   -1.175547
    129          1           0        3.860407   -3.489509   -3.037998
    130          1           0        3.741977   -1.862945   -2.330137
    131          1           0        1.959463   -2.513409   -3.852025
    132          7           0        5.430411   -4.422279   -0.872674
    133          6           0        6.850721   -4.459866   -0.594449
    134          6           0        7.560312   -3.178587   -0.996570
    135          8           0        8.367707   -2.677289   -0.203718
    136          6           0        7.406145   -5.664190   -1.347581
    137          1           0        5.059439   -5.138425   -1.484486
    138          1           0        7.033051   -4.613131    0.467185
    139          1           0        8.168066   -6.165449   -0.759946
    140          1           0        6.620908   -6.401543   -1.534970
    141          1           0        7.806988   -5.409766   -2.337275
    142          7           0        7.177315   -2.580421   -2.127460
    143          6           0        7.586000   -1.250365   -2.542824
    144          6           0        7.196797   -0.091891   -1.620080
    145          8           0        7.907649    0.893669   -1.463678
    146          6           0        7.202541   -1.024770   -4.000963
    147          1           0        6.634063   -3.155854   -2.754081
    148          1           0        8.665127   -1.193416   -2.644017
    149          1           0        7.650604   -0.063826   -4.269338
    150          1           0        7.729881   -1.699043   -4.678213
    151          1           0        6.131393   -1.042066   -4.237059
    152          7           0        6.040360   -0.302559   -0.992965
    153          6           0        5.536308    0.651779   -0.032304
    154          6           0        6.111151    0.542685    1.380018
    155          8           0        6.564384    1.510041    1.976762
    156          6           0        4.037557    0.389570    0.103318
    157          6           0        3.349001    1.081528   -1.078919
    158          6           0        1.968874    0.485533   -1.281254
    159          8           0        1.410137   -0.132906   -0.340167
    160          8           0        1.295596    0.675652   -2.318149
    161          1           0        5.627507   -1.217870   -1.092255
    162          1           0        5.690609    1.697583   -0.290537
    163          1           0        3.704659    0.770431    1.058422
    164          1           0        3.826036   -0.673343    0.148870
    165          1           0        3.977769    1.081714   -1.976889
    166          1           0        3.174683    2.120862   -0.803423
    167          7           0        6.262443   -0.698917    1.834150
    168          6           0        7.023204   -1.056723    3.021802
    169          1           0        8.077004   -0.833243    2.858263
    170          1           0        6.658784   -0.482762    3.873746
    171          1           0        6.904835   -2.121904    3.222839
    172          1           0        5.871509   -1.456710    1.288421
    173         20           0       -1.068253    0.236624   -1.564109
    174          8           0       -0.392720   -2.212077   -2.033169
    175          1           0        0.452259   -2.677014   -2.005875
    176          1           0       -1.022858   -2.892378   -2.287562
 ---------------------------------------------------------------------

 SCF Done:  E(RB3LYP) =  -5333.60838802     A.U. after   20 cycles

 The electronic state is 1-A.
 Alpha  occ. eigenvalues -- -145.33781 -19.19428 -19.15903 -19.14979 -19.14371
 Alpha  occ. eigenvalues --  -19.12767 -19.11481 -19.11226 -19.11161 -19.11155
 Alpha  occ. eigenvalues --  -19.10124 -19.08379 -19.07489 -19.07199 -19.06690
 Alpha  occ. eigenvalues --  -19.06679 -19.06166 -19.05339 -19.04412 -19.04071
 Alpha  occ. eigenvalues --  -19.03624 -19.03006 -19.02657 -19.02427 -15.39577
 Alpha  occ. eigenvalues --  -14.57997 -14.41190 -14.39876 -14.36781 -14.36756
 Alpha  occ. eigenvalues --  -14.36746 -14.36565 -14.35997 -14.33544 -14.32460
 Alpha  occ. eigenvalues --  -14.31755 -14.31412 -14.29039 -14.28811 -14.28283
 Alpha  occ. eigenvalues --  -12.53208 -12.53143 -12.53117 -10.34099 -10.34045
 Alpha  occ. eigenvalues --  -10.31664 -10.29873 -10.29756 -10.29671 -10.29662
 Alpha  occ. eigenvalues --  -10.29203 -10.28731 -10.27984 -10.27760 -10.26833
 Alpha  occ. eigenvalues --  -10.26477 -10.26451 -10.26185 -10.25844 -10.25482
 Alpha  occ. eigenvalues --  -10.24795 -10.23757 -10.23636 -10.23354 -10.23310
 Alpha  occ. eigenvalues --  -10.23202 -10.23153 -10.22878 -10.22872 -10.22595
 Alpha  occ. eigenvalues --  -10.22534 -10.22520 -10.22412 -10.21770 -10.21406
 Alpha  occ. eigenvalues --  -10.21386 -10.20652 -10.19934 -10.19887 -10.19775
 Alpha  occ. eigenvalues --  -10.19378 -10.19168 -10.18669 -10.18387 -10.18284
 Alpha  occ. eigenvalues --  -10.18192 -10.18183 -10.18107 -10.17671 -10.17453
 Alpha  occ. eigenvalues --  -10.17322 -10.17270 -10.17211 -10.16860 -10.16500
 Alpha  occ. eigenvalues --  -10.15611 -10.15094  -1.76614  -1.13095  -1.09890
 Alpha  occ. eigenvalues --   -1.07838  -1.05559  -1.04813  -1.04535  -1.04318
 Alpha  occ. eigenvalues --   -1.04223  -1.04143  -1.03909  -1.03842  -1.03402
 Alpha  occ. eigenvalues --   -1.02838  -1.01854  -1.01754  -1.00994  -1.00517
 Alpha  occ. eigenvalues --   -1.00197  -0.99633  -0.98033  -0.97530  -0.97107
 Alpha  occ. eigenvalues --   -0.96810  -0.96744  -0.96141  -0.95976  -0.94206
 Alpha  occ. eigenvalues --   -0.93643  -0.93577  -0.92877  -0.91515  -0.91432
 Alpha  occ. eigenvalues --   -0.91084  -0.90844  -0.89139  -0.89128  -0.88843
 Alpha  occ. eigenvalues --   -0.88259  -0.88013  -0.86573  -0.85640  -0.84963
 Alpha  occ. eigenvalues --   -0.84035  -0.83273  -0.82547  -0.81759  -0.81427
 Alpha  occ. eigenvalues --   -0.80004  -0.79293  -0.77864  -0.77421  -0.75832
 Alpha  occ. eigenvalues --   -0.75558  -0.74855  -0.74610  -0.72987  -0.72854
 Alpha  occ. eigenvalues --   -0.72363  -0.72102  -0.71649  -0.71283  -0.71084
 Alpha  occ. eigenvalues --   -0.70564  -0.69417  -0.68669  -0.68400  -0.68010
 Alpha  occ. eigenvalues --   -0.67359  -0.67186  -0.65739  -0.64916  -0.64711
 Alpha  occ. eigenvalues --   -0.64118  -0.63711  -0.63334  -0.63183  -0.62347
 Alpha  occ. eigenvalues --   -0.62227  -0.61263  -0.61177  -0.60604  -0.60476
 Alpha  occ. eigenvalues --   -0.60424  -0.60118  -0.59594  -0.59219  -0.58622
 Alpha  occ. eigenvalues --   -0.57653  -0.57507  -0.57278  -0.56981  -0.56273
 Alpha  occ. eigenvalues --   -0.55815  -0.55434  -0.55403  -0.55256  -0.54836
 Alpha  occ. eigenvalues --   -0.54246  -0.54079  -0.53815  -0.53524  -0.53278
 Alpha  occ. eigenvalues --   -0.53069  -0.52878  -0.52756  -0.52414  -0.52157
 Alpha  occ. eigenvalues --   -0.51917  -0.51805  -0.51136  -0.51118  -0.50387
 Alpha  occ. eigenvalues --   -0.50201  -0.50050  -0.49878  -0.49773  -0.49108
 Alpha  occ. eigenvalues --   -0.49064  -0.48668  -0.48444  -0.48239  -0.47895
 Alpha  occ. eigenvalues --   -0.47601  -0.47503  -0.47418  -0.47120  -0.46989
 Alpha  occ. eigenvalues --   -0.46636  -0.46468  -0.46262  -0.46066  -0.45931
 Alpha  occ. eigenvalues --   -0.45878  -0.45657  -0.45245  -0.45159  -0.44806
 Alpha  occ. eigenvalues --   -0.44657  -0.44496  -0.44043  -0.43938  -0.43819
 Alpha  occ. eigenvalues --   -0.43562  -0.43344  -0.43321  -0.43012  -0.43000
 Alpha  occ. eigenvalues --   -0.42902  -0.42871  -0.42566  -0.42436  -0.42174
 Alpha  occ. eigenvalues --   -0.42161  -0.42110  -0.41846  -0.41769  -0.41686
 Alpha  occ. eigenvalues --   -0.41604  -0.41504  -0.41400  -0.41179  -0.41040
 Alpha  occ. eigenvalues --   -0.40948  -0.40711  -0.40627  -0.40532  -0.40493
 Alpha  occ. eigenvalues --   -0.40261  -0.40201  -0.39976  -0.39714  -0.39497
 Alpha  occ. eigenvalues --   -0.39418  -0.39283  -0.39095  -0.38990  -0.38824
 Alpha  occ. eigenvalues --   -0.38695  -0.38565  -0.38544  -0.38443  -0.38289
 Alpha  occ. eigenvalues --   -0.38172  -0.38062  -0.38022  -0.37841  -0.37777
 Alpha  occ. eigenvalues --   -0.37523  -0.37358  -0.37192  -0.37102  -0.37015
 Alpha  occ. eigenvalues --   -0.36610  -0.36546  -0.36241  -0.36014  -0.35959
 Alpha  occ. eigenvalues --   -0.35744  -0.35143  -0.34920  -0.34865  -0.34705
 Alpha  occ. eigenvalues --   -0.34449  -0.34230  -0.34160  -0.33914  -0.33801
 Alpha  occ. eigenvalues --   -0.33745  -0.33666  -0.33335  -0.33198  -0.33013
 Alpha  occ. eigenvalues --   -0.32795  -0.32697  -0.32415  -0.32263  -0.31831
 Alpha  occ. eigenvalues --   -0.31783  -0.31741  -0.31242  -0.30802  -0.30629
 Alpha  occ. eigenvalues --   -0.30548  -0.29397  -0.29326  -0.28731  -0.28550
 Alpha  occ. eigenvalues --   -0.28355  -0.27968  -0.27769  -0.26904  -0.26817
 Alpha  occ. eigenvalues --   -0.26592  -0.26450  -0.26003  -0.25961  -0.25568
 Alpha  occ. eigenvalues --   -0.24911  -0.24392  -0.24160  -0.23696  -0.23569
 Alpha  occ. eigenvalues --   -0.23293  -0.23175  -0.22964  -0.22741  -0.22374
 Alpha  occ. eigenvalues --   -0.22264  -0.22155  -0.21982  -0.21852  -0.21238
 Alpha  occ. eigenvalues --   -0.20517  -0.20359  -0.19694  -0.19209  -0.18902
 Alpha  occ. eigenvalues --   -0.18766  -0.18520  -0.17716
 Alpha virt. eigenvalues --   -0.09557  -0.04778  -0.04168  -0.03005  -0.02311
 Alpha virt. eigenvalues --   -0.01820  -0.00979  -0.00777  -0.00078   0.00004
 Alpha virt. eigenvalues --    0.00025   0.00127   0.00771   0.01290   0.01432

 Mulliken charges:
               1
     1  C    0.051336
     2  C    0.050571
     3  O   -0.315291
     4  H    0.041509
     5  H    0.029243
     6  H    0.029696
     7  N   -0.112338
     8  C    0.034731
     9  C    0.080626
    10  O   -0.283395
    11  C    0.130917
    12  C    0.192853
    13  O   -0.372426
    14  O   -0.461996
    15  H    0.123776
    16  H    0.049968
    17  H   -0.025809
    18  H   -0.014805
    19  N   -0.147952
    20  C    0.142501
    21  C    0.025947
    22  O   -0.288682
    23  C    0.014037
    24  C    0.008197
    25  C   -0.082864
    26  C    0.052950
    27  N    0.075065
    28  H    0.121414
    29  H    0.014586
    30  H    0.016586
    31  H    0.028014
    32  H    0.011236
    33  H    0.043196
    34  H    0.046530
    35  H    0.013474
    36  H    0.105523
    37  H    0.067722
    38  H    0.193111
    39  H    0.194797
    40  H    0.185226
    41  N   -0.157285
    42  C    0.085842
    43  C    0.045653
    44  O   -0.284349
    45  C    0.135129
    46  C    0.134645
    47  O   -0.433581
    48  O   -0.425337
    49  H    0.146284
    50  H    0.010176
    51  H   -0.045630
    52  H    0.005259
    53  N   -0.159958
    54  C    0.282794
    55  C   -0.006900
    56  O   -0.305860
    57  H    0.146559
    58  H    0.028065
    59  H    0.031623
    60  N   -0.141375
    61  C    0.133567
    62  C    0.055140
    63  O   -0.313402
    64  C    0.085138
    65  C    0.072652
    66  N   -0.045336
    67  O   -0.326863
    68  H    0.155481
    69  H    0.019954
    70  H    0.058260
    71  H   -0.008909
    72  H    0.133337
    73  H    0.122135
    74  N   -0.166294
    75  C    0.209406
    76  C    0.026871
    77  O   -0.317376
    78  H    0.150145
    79  H    0.031915
    80  H    0.037194
    81  N   -0.139523
    82  C    0.115936
    83  C    0.123363
    84  O   -0.314396
    85  C    0.135385
    86  C    0.020555
    87  C    0.024310
    88  C    0.000052
    89  C   -0.045859
    90  C   -0.054913
    91  C    0.201790
    92  O   -0.194341
    93  H    0.156241
    94  H   -0.000505
    95  H   -0.021169
    96  H   -0.057412
    97  H   -0.036456
    98  H   -0.047599
    99  H   -0.027194
   100  H   -0.028705
   101  H    0.172362
   102  N   -0.112862
   103  C    0.148921
   104  C    0.051723
   105  O   -0.282217
   106  C   -0.114506
   107  C    0.013499
   108  C    0.048257
   109  C    0.028911
   110  H    0.121188
   111  H    0.031550
   112  H   -0.012936
   113  H    0.009256
   114  H   -0.008006
   115  H    0.019825
   116  H    0.011691
   117  H    0.006303
   118  H    0.009729
   119  H    0.001001
   120  H    0.014078
   121  N   -0.153833
   122  C    0.073815
   123  C    0.095857
   124  O   -0.277363
   125  C    0.259921
   126  O   -0.291373
   127  H    0.178926
   128  H    0.014301
   129  H   -0.019939
   130  H    0.006142
   131  H    0.185113
   132  N   -0.116849
   133  C    0.080206
   134  C    0.057806
   135  O   -0.241278
   136  C    0.036163
   137  H    0.120755
   138  H    0.033852
   139  H    0.049520
   140  H    0.011380
   141  H    0.022204
   142  N   -0.142356
   143  C    0.104507
   144  C    0.074643
   145  O   -0.258673
   146  C    0.009393
   147  H    0.105058
   148  H    0.016776
   149  H    0.027855
   150  H    0.021810
   151  H    0.010588
   152  N   -0.138844
   153  C    0.124653
   154  C    0.041915
   155  O   -0.274006
   156  C    0.005213
   157  C    0.084398
   158  C    0.134257
   159  O   -0.427174
   160  O   -0.428475
   161  H    0.134303
   162  H   -0.037646
   163  H    0.023054
   164  H   -0.034085
   165  H   -0.022227
   166  H   -0.001335
   167  N   -0.169952
   168  C    0.152384
   169  H    0.028240
   170  H    0.015644
   171  H    0.005709
   172  H    0.124105
   173  Ca   1.288979
   174  O   -0.306813
   175  H    0.176474
   176  H    0.164421
 Sum of Mulliken charges =  -0.00000

 Dipole moment (field-independent basis, Debye):
    X=             32.6197    Y=             -2.8633    Z=            -16.3610  Tot=             36.6050
 Quadrupole moment (field-independent basis, Debye-Ang):
   XX=           -673.1987   YY=           -492.4909   ZZ=           -479.2317
   XY=             75.7082   XZ=            -37.8696   YZ=              6.9670

 ESP charges:
               1
     1  C   -0.451787
     2  C    0.867474
     3  O   -0.628893
     4  H    0.128695
     5  H    0.113670
     6  H    0.111892
     7  N   -0.833676
     8  C    0.448314
     9  C    0.571856
    10  O   -0.507638
    11  C   -0.328262
    12  C    0.622405
    13  O   -0.596281
    14  O   -0.704230
    15  H    0.380360
    16  H   -0.011561
    17  H    0.061215
    18  H    0.080874
    19  N   -0.551308
    20  C    0.299089
    21  C    0.363988
    22  O   -0.564168
    23  C   -0.321854
    24  C    0.284666
    25  C   -0.038804
    26  C   -0.018045
    27  N   -0.369414
    28  H    0.280796
    29  H    0.037765
    30  H    0.072137
    31  H    0.077240
    32  H   -0.038961
    33  H   -0.032074
    34  H    0.046037
    35  H    0.009587
    36  H    0.118766
    37  H    0.097411
    38  H    0.336029
    39  H    0.306907
    40  H    0.350920
    41  N   -0.079358
    42  C    0.010153
    43  C    0.338211
    44  O   -0.530729
    45  C   -0.263060
    46  C    0.735789
    47  O   -0.699961
    48  O   -0.757602
    49  H    0.049443
    50  H    0.103329
    51  H    0.048571
    52  H    0.088169
    53  N    0.089367
    54  C   -0.473712
    55  C    0.728791
    56  O   -0.602050
    57  H    0.053902
    58  H    0.175031
    59  H    0.172164
    60  N   -0.537980
    61  C    0.075111
    62  C    0.298995
    63  O   -0.545189
    64  C   -0.269135
    65  C    0.594856
    66  N   -0.770343
    67  O   -0.550582
    68  H    0.369609
    69  H    0.122131
    70  H    0.149542
    71  H    0.065902
    72  H    0.387284
    73  H    0.340187
    74  N    0.143183
    75  C   -0.551133
    76  C    0.825327
    77  O   -0.600343
    78  H    0.124970
    79  H    0.187146
    80  H    0.162607
    81  N   -0.866975
    82  C    0.559737
    83  C    0.564320
    84  O   -0.551318
    85  C   -0.347527
    86  C    0.073057
    87  C   -0.100188
    88  C   -0.104186
    89  C   -0.312147
    90  C   -0.422115
    91  C    0.501005
    92  O   -0.582695
    93  H    0.508250
    94  H   -0.030291
    95  H    0.061716
    96  H    0.055162
    97  H    0.120642
    98  H    0.169100
    99  H    0.166729
   100  H    0.163449
   101  H    0.414990
   102  N   -0.708996
   103  C   -0.044418
   104  C    0.639921
   105  O   -0.583253
   106  C    0.191809
   107  C    0.076629
   108  C   -0.247015
   109  C   -0.311790
   110  H    0.330196
   111  H    0.110185
   112  H   -0.000131
   113  H    0.030309
   114  H    0.000180
   115  H    0.061944
   116  H    0.073443
   117  H    0.027263
   118  H    0.078309
   119  H    0.072722
   120  H    0.070595
   121  N   -0.327327
   122  C    0.034962
   123  C    0.364285
   124  O   -0.269589
   125  C    0.294565
   126  O   -0.639049
   127  H    0.318562
   128  H    0.062024
   129  H   -0.015887
   130  H   -0.007112
   131  H    0.430446
   132  N   -0.476032
   133  C    0.256013
   134  C    0.397178
   135  O   -0.495613
   136  C   -0.272574
   137  H    0.280108
   138  H    0.056850
   139  H    0.100887
   140  H    0.077690
   141  H    0.064122
   142  N   -0.301307
   143  C    0.010734
   144  C    0.404931
   145  O   -0.509593
   146  C   -0.298595
   147  H    0.227174
   148  H    0.115079
   149  H    0.105893
   150  H    0.100488
   151  H    0.061344
   152  N   -0.043299
   153  C   -0.056029
   154  C    0.496840
   155  O   -0.558925
   156  C    0.297925
   157  C   -0.133309
   158  C    0.778966
   159  O   -0.718472
   160  O   -0.789380
   161  H    0.045014
   162  H    0.012329
   163  H   -0.042542
   164  H   -0.259579
   165  H   -0.022301
   166  H    0.028198
   167  N   -0.088167
   168  C   -0.297507
   169  H    0.132311
   170  H    0.098356
   171  H    0.107406
   172  H    0.066151
   173  Ca   1.661377
   174  O   -0.886692
   175  H    0.429102
   176  H    0.403221
 Sum of ESP charges =  -0.00000

 Normal termination of Gaussian 16 at Sun Sep 15 01:27:29 2019.
