 Gaussian 16, Revision A.03,
 Gaussian 16:  ES64L-G16RevA.03 25-Dec-2016

 ----------------------------------------------------------------------
 #b3lyp/svp scf=(tight,noincore) Test #IOP(5/87=12) Density=Current Pop
 =(MK,readradii) iop(6/33=2) iop(6/42=6)
 ----------------------------------------------------------------------

 -----------------
 CaMKII_loop3_67.0
 -----------------
 Symbolic Z-matrix:
 Charge =  0 Multiplicity = 1

                         Standard orientation:
 ---------------------------------------------------------------------
 Center     Atomic      Atomic             Coordinates (Angstroms)
 Number     Number       Type             X           Y           Z
 ---------------------------------------------------------------------
      1          6           0        2.463597    1.257185    6.004198
      2          6           0        2.083247    1.267654    4.533101
      3          8           0        2.998317    1.245263    3.701149
      4          1           0        3.537097    1.097176    6.100370
      5          1           0        2.197905    2.213136    6.455700
      6          1           0        1.930031    0.453565    6.512308
      7          7           0        0.803043    1.296370    4.156734
      8          6           0        0.279528    1.480528    2.816540
      9          6           0        0.625046    2.902538    2.383984
     10          8           0        0.287882    3.810742    3.132506
     11          6           0       -1.208187    1.122943    2.831978
     12          6           0       -1.787166    1.200467    1.430524
     13          8           0       -1.203921    1.936026    0.596630
     14          8           0       -2.737628    0.466953    1.080125
     15          1           0        0.079798    1.383673    4.858727
     16          1           0        0.754626    0.726841    2.194899
     17          1           0       -1.811250    1.847717    3.374949
     18          1           0       -1.337984    0.103137    3.196735
     19          7           0        1.307949    3.162088    1.261675
     20          6           0        1.606705    4.465431    0.712364
     21          6           0        0.459292    5.318846    0.190613
     22          8           0        0.688683    6.515039    0.003251
     23          6           0        2.745178    4.290006   -0.285636
     24          6           0        3.798591    5.383652   -0.399033
     25          6           0        4.918953    5.152002   -1.400296
     26          6           0        5.547852    6.468886   -1.839504
     27          7           0        4.566611    7.331822   -2.528277
     28          1           0        1.700696    2.332620    0.839972
     29          1           0        1.920857    5.026102    1.596931
     30          1           0        2.287682    4.220836   -1.274025
     31          1           0        3.237452    3.333081   -0.105467
     32          1           0        4.199616    5.582489    0.599238
     33          1           0        3.309939    6.317215   -0.687096
     34          1           0        4.486231    4.605255   -2.234394
     35          1           0        5.735454    4.494667   -1.072063
     36          1           0        6.463247    6.341075   -2.419689
     37          1           0        6.011350    6.956466   -0.984147
     38          1           0        4.180495    6.868085   -3.335222
     39          1           0        3.788055    7.537593   -1.905694
     40          1           0        5.048281    8.195877   -2.744617
     41          7           0       -0.720410    4.759923   -0.056993
     42          6           0       -1.884969    5.446703   -0.584946
     43          6           0       -3.186951    5.147728    0.147895
     44          8           0       -4.170605    5.880531    0.060005
     45          6           0       -2.039287    5.150898   -2.078527
     46          6           0       -2.268070    3.725834   -2.547837
     47          8           0       -2.718548    2.820604   -1.795090
     48          8           0       -2.178567    3.458439   -3.769676
     49          1           0       -0.770490    3.766983    0.107207
     50          1           0       -1.844454    6.508767   -0.354772
     51          1           0       -1.228575    5.576742   -2.669037
     52          1           0       -2.881671    5.792230   -2.324456
     53          7           0       -3.192625    4.042853    0.891145
     54          6           0       -4.283973    3.730441    1.789675
     55          6           0       -5.564952    3.201985    1.180802
     56          8           0       -6.677223    3.304398    1.697780
     57          1           0       -2.445323    3.355853    0.950061
     58          1           0       -4.425916    4.530140    2.527465
     59          1           0       -3.838495    2.966488    2.428834
     60          7           0       -5.354206    2.641536   -0.016146
     61          6           0       -6.397265    1.888322   -0.677732
     62          6           0       -6.739079    0.553653   -0.054498
     63          8           0       -7.620221   -0.148977   -0.555697
     64          6           0       -6.035097    1.637952   -2.143422
     65          6           0       -5.072409    0.489626   -2.410217
     66          7           0       -5.124453    0.103787   -3.686234
     67          8           0       -4.214537    0.041353   -1.654103
     68          1           0       -4.440013    2.650813   -0.438835
     69          1           0       -7.341257    2.434269   -0.708075
     70          1           0       -5.681733    2.553092   -2.619817
     71          1           0       -6.912706    1.353184   -2.723862
     72          1           0       -5.876231    0.348431   -4.311278
     73          1           0       -4.455969   -0.603615   -3.941597
     74          7           0       -6.111612    0.089015    1.036647
     75          6           0       -6.350770   -1.149977    1.739928
     76          6           0       -5.375081   -2.304250    1.564761
     77          8           0       -5.762528   -3.428029    1.872016
     78          1           0       -5.344611    0.636138    1.387880
     79          1           0       -7.326224   -1.543258    1.427166
     80          1           0       -6.353573   -0.913895    2.805553
     81          7           0       -4.212637   -2.044392    0.962682
     82          6           0       -3.216164   -3.029970    0.615440
     83          6           0       -1.807241   -2.481616    0.722881
     84          8           0       -1.280054   -1.771436   -0.128716
     85          6           0       -3.406701   -3.627672   -0.776913
     86          6           0       -4.619387   -4.508120   -1.001420
     87          6           0       -4.491974   -5.871680   -0.738036
     88          6           0       -5.730250   -4.010156   -1.699859
     89          6           0       -5.643350   -6.654341   -0.873218
     90          6           0       -6.850842   -4.839275   -1.848973
     91          6           0       -6.853171   -6.177426   -1.425835
     92          8           0       -7.976842   -6.951258   -1.407217
     93          1           0       -3.983935   -1.092514    0.698442
     94          1           0       -3.234908   -3.851695    1.333087
     95          1           0       -2.514333   -4.166271   -1.107654
     96          1           0       -3.473276   -2.837933   -1.511815
     97          1           0       -3.598763   -6.159426   -0.216619
     98          1           0       -5.791168   -2.953282   -1.920555
     99          1           0       -5.616466   -7.670550   -0.490078
    100          1           0       -7.751703   -4.337047   -2.162209
    101          1           0       -8.754604   -6.496259   -1.743168
    102          7           0       -1.062168   -2.849767    1.766496
    103          6           0        0.363670   -2.660025    1.707471
    104          6           0        0.908591   -3.587496    0.628092
    105          8           0        0.634337   -4.782420    0.582890
    106          6           0        0.954590   -2.958657    3.083055
    107          6           0        0.194491   -2.401466    4.290071
    108          6           0        2.404687   -2.473490    3.161999
    109          6           0        0.519337   -3.146761    5.583829
    110          1           0       -1.384018   -3.692941    2.237634
    111          1           0        0.692788   -1.652406    1.457703
    112          1           0        0.937599   -4.045874    3.125120
    113          1           0       -0.866002   -2.616819    4.172271
    114          1           0        0.323426   -1.324569    4.264195
    115          1           0        2.876382   -2.674870    2.205626
    116          1           0        2.413481   -1.405871    3.411222
    117          1           0        2.943154   -3.019322    3.939637
    118          1           0       -0.081104   -2.587939    6.305555
    119          1           0        0.147297   -4.159066    5.417021
    120          1           0        1.586626   -3.076087    5.797137
    121          7           0        1.608926   -2.938686   -0.310991
    122          6           0        2.443546   -3.671005   -1.243094
    123          6           0        3.874590   -3.876720   -0.768653
    124          8           0        4.286497   -3.157912    0.127587
    125          6           0        2.410196   -2.948902   -2.590631
    126          8           0        3.555601   -2.142206   -2.713879
    127          1           0        1.662531   -1.932195   -0.268541
    128          1           0        1.988458   -4.624515   -1.502349
    129          1           0        1.457732   -2.430311   -2.684847
    130          1           0        2.537803   -3.603087   -3.457728
    131          1           0        3.662865   -1.923605   -3.643669
    132          7           0        4.649684   -4.777554   -1.378020
    133          6           0        6.004827   -4.934287   -0.897270
    134          6           0        6.878125   -3.695671   -1.037908
    135          8           0        7.626313   -3.301471   -0.153702
    136          6           0        6.705599   -6.141827   -1.509453
    137          1           0        4.309450   -5.263994   -2.201681
    138          1           0        5.867307   -5.099929    0.176672
    139          1           0        6.880272   -5.835544   -2.546795
    140          1           0        7.575181   -6.380217   -0.910540
    141          1           0        5.939485   -6.926470   -1.511711
    142          7           0        6.787104   -2.896257   -2.110314
    143          6           0        7.499571   -1.644377   -2.291663
    144          6           0        6.982983   -0.536334   -1.385751
    145          8           0        7.765377    0.269880   -0.895466
    146          6           0        7.252028   -1.175387   -3.727828
    147          1           0        6.109449   -3.210913   -2.795278
    148          1           0        8.584850   -1.691735   -2.197707
    149          1           0        7.731802   -0.229112   -3.971304
    150          1           0        7.676171   -1.904990   -4.420346
    151          1           0        6.203382   -0.981179   -3.950597
    152          7           0        5.672396   -0.468589   -1.162658
    153          6           0        5.088055    0.429614   -0.187632
    154          6           0        5.592333    0.061828    1.205579
    155          8           0        5.961588    0.973155    1.932652
    156          6           0        3.568177    0.383942   -0.127739
    157          6           0        2.911661    0.966605   -1.375172
    158          6           0        1.395719    0.968883   -1.243969
    159          8           0        0.613784    1.794211   -1.747370
    160          8           0        0.855238    0.029315   -0.625834
    161          1           0        4.981326   -1.013852   -1.660966
    162          1           0        5.379219    1.455370   -0.416649
    163          1           0        3.313341    0.938194    0.777116
    164          1           0        3.200956   -0.628488    0.017985
    165          1           0        3.160078    0.338433   -2.227164
    166          1           0        3.329459    1.971394   -1.455446
    167          7           0        5.669870   -1.226511    1.552954
    168          6           0        6.357916   -1.711786    2.724748
    169          1           0        7.430681   -1.736846    2.531512
    170          1           0        6.156748   -1.048405    3.565882
    171          1           0        6.008827   -2.716543    2.962474
    172          1           0        5.206524   -1.880590    0.930144
    173         20           0       -1.598346    0.393141   -1.489523
    174          8           0       -1.723039    0.874396   -4.094815
    175          1           0       -1.170422    0.735830   -4.866510
    176          1           0       -1.888964    1.807145   -4.076207
 ---------------------------------------------------------------------

 SCF Done:  E(RB3LYP) =  -5333.59217850     A.U. after   15 cycles

 The electronic state is 1-A.
 Alpha  occ. eigenvalues -- -145.36232 -19.19179 -19.14880 -19.13598 -19.12516
 Alpha  occ. eigenvalues --  -19.11942 -19.11848 -19.10378 -19.09693 -19.08001
 Alpha  occ. eigenvalues --  -19.07403 -19.07180 -19.07122 -19.07099 -19.06983
 Alpha  occ. eigenvalues --  -19.06642 -19.06539 -19.06360 -19.06045 -19.06002
 Alpha  occ. eigenvalues --  -19.05877 -19.04213 -19.03939 -19.03248 -15.41926
 Alpha  occ. eigenvalues --  -14.57692 -14.39769 -14.36507 -14.36183 -14.36061
 Alpha  occ. eigenvalues --  -14.35481 -14.33851 -14.33737 -14.33077 -14.32951
 Alpha  occ. eigenvalues --  -14.32489 -14.32081 -14.31517 -14.30958 -14.29788
 Alpha  occ. eigenvalues --  -12.55545 -12.55506 -12.55493 -10.34384 -10.31945
 Alpha  occ. eigenvalues --  -10.30104 -10.29459 -10.28806 -10.28256 -10.28131
 Alpha  occ. eigenvalues --  -10.26870 -10.26552 -10.26457 -10.26452 -10.26051
 Alpha  occ. eigenvalues --  -10.25942 -10.25891 -10.25749 -10.25690 -10.25568
 Alpha  occ. eigenvalues --  -10.25487 -10.24793 -10.24378 -10.24234 -10.23617
 Alpha  occ. eigenvalues --  -10.23553 -10.23541 -10.23042 -10.22913 -10.22475
 Alpha  occ. eigenvalues --  -10.22124 -10.22088 -10.21858 -10.21494 -10.21101
 Alpha  occ. eigenvalues --  -10.20923 -10.20625 -10.20063 -10.19931 -10.19281
 Alpha  occ. eigenvalues --  -10.19241 -10.18253 -10.18113 -10.17913 -10.17907
 Alpha  occ. eigenvalues --  -10.17782 -10.17677 -10.17604 -10.17308 -10.17184
 Alpha  occ. eigenvalues --  -10.17180 -10.17149 -10.17133 -10.17114 -10.16999
 Alpha  occ. eigenvalues --  -10.15825 -10.15597  -1.78811  -1.12792  -1.08090
 Alpha  occ. eigenvalues --   -1.06871  -1.06550  -1.06439  -1.06358  -1.05048
 Alpha  occ. eigenvalues --   -1.04215  -1.03649  -1.03203  -1.02839  -1.02269
 Alpha  occ. eigenvalues --   -1.02100  -1.01264  -1.01075  -1.00266  -1.00039
 Alpha  occ. eigenvalues --   -0.99525  -0.99434  -0.99373  -0.98946  -0.98235
 Alpha  occ. eigenvalues --   -0.98019  -0.97444  -0.96406  -0.93258  -0.92970
 Alpha  occ. eigenvalues --   -0.92641  -0.92029  -0.91366  -0.90775  -0.90624
 Alpha  occ. eigenvalues --   -0.90485  -0.90340  -0.90151  -0.89688  -0.89232
 Alpha  occ. eigenvalues --   -0.88279  -0.87908  -0.87506  -0.87192  -0.86403
 Alpha  occ. eigenvalues --   -0.83204  -0.82036  -0.81212  -0.80962  -0.79372
 Alpha  occ. eigenvalues --   -0.78545  -0.77689  -0.77575  -0.77237  -0.77096
 Alpha  occ. eigenvalues --   -0.75816  -0.74715  -0.74225  -0.72462  -0.72446
 Alpha  occ. eigenvalues --   -0.72339  -0.71275  -0.71161  -0.70943  -0.70701
 Alpha  occ. eigenvalues --   -0.69749  -0.69474  -0.68805  -0.68407  -0.67658
 Alpha  occ. eigenvalues --   -0.66182  -0.66121  -0.65443  -0.64981  -0.64564
 Alpha  occ. eigenvalues --   -0.64136  -0.63690  -0.62336  -0.62094  -0.62035
 Alpha  occ. eigenvalues --   -0.61033  -0.60286  -0.60176  -0.59566  -0.59521
 Alpha  occ. eigenvalues --   -0.59165  -0.59093  -0.58659  -0.58329  -0.57787
 Alpha  occ. eigenvalues --   -0.57392  -0.57230  -0.56552  -0.56365  -0.56293
 Alpha  occ. eigenvalues --   -0.56101  -0.55964  -0.55235  -0.54639  -0.54357
 Alpha  occ. eigenvalues --   -0.54241  -0.53701  -0.53471  -0.53460  -0.52848
 Alpha  occ. eigenvalues --   -0.52629  -0.52379  -0.52153  -0.51775  -0.51742
 Alpha  occ. eigenvalues --   -0.51475  -0.51350  -0.51192  -0.50774  -0.50078
 Alpha  occ. eigenvalues --   -0.49529  -0.49456  -0.49431  -0.49155  -0.48940
 Alpha  occ. eigenvalues --   -0.48637  -0.48160  -0.48027  -0.47830  -0.47648
 Alpha  occ. eigenvalues --   -0.47520  -0.47261  -0.46764  -0.46362  -0.46193
 Alpha  occ. eigenvalues --   -0.46042  -0.45874  -0.45536  -0.45390  -0.45290
 Alpha  occ. eigenvalues --   -0.45022  -0.44839  -0.44751  -0.44591  -0.44432
 Alpha  occ. eigenvalues --   -0.44319  -0.43983  -0.43741  -0.43658  -0.43565
 Alpha  occ. eigenvalues --   -0.43279  -0.43163  -0.43043  -0.42823  -0.42742
 Alpha  occ. eigenvalues --   -0.42607  -0.42327  -0.42120  -0.41878  -0.41546
 Alpha  occ. eigenvalues --   -0.41494  -0.41347  -0.41335  -0.41212  -0.41032
 Alpha  occ. eigenvalues --   -0.40945  -0.40859  -0.40697  -0.40497  -0.40413
 Alpha  occ. eigenvalues --   -0.40397  -0.40263  -0.40137  -0.40067  -0.39979
 Alpha  occ. eigenvalues --   -0.39815  -0.39742  -0.39446  -0.39235  -0.39224
 Alpha  occ. eigenvalues --   -0.39173  -0.39107  -0.38944  -0.38809  -0.38573
 Alpha  occ. eigenvalues --   -0.38528  -0.38485  -0.38295  -0.38164  -0.38037
 Alpha  occ. eigenvalues --   -0.37824  -0.37665  -0.37616  -0.37376  -0.37335
 Alpha  occ. eigenvalues --   -0.37099  -0.36891  -0.36700  -0.36655  -0.36447
 Alpha  occ. eigenvalues --   -0.36368  -0.36229  -0.36185  -0.36034  -0.35737
 Alpha  occ. eigenvalues --   -0.35677  -0.35513  -0.35326  -0.34894  -0.34615
 Alpha  occ. eigenvalues --   -0.34467  -0.34106  -0.34045  -0.33789  -0.33682
 Alpha  occ. eigenvalues --   -0.33418  -0.33343  -0.33185  -0.32967  -0.32898
 Alpha  occ. eigenvalues --   -0.32199  -0.32004  -0.31934  -0.31797  -0.31753
 Alpha  occ. eigenvalues --   -0.31677  -0.31412  -0.31147  -0.30992  -0.30927
 Alpha  occ. eigenvalues --   -0.29381  -0.28935  -0.28841  -0.28141  -0.27698
 Alpha  occ. eigenvalues --   -0.27684  -0.26663  -0.26438  -0.25656  -0.25598
 Alpha  occ. eigenvalues --   -0.25365  -0.25301  -0.25281  -0.25210  -0.24864
 Alpha  occ. eigenvalues --   -0.24832  -0.24368  -0.24235  -0.24043  -0.23853
 Alpha  occ. eigenvalues --   -0.23829  -0.23735  -0.23358  -0.23146  -0.22879
 Alpha  occ. eigenvalues --   -0.22556  -0.22477  -0.21777  -0.21640  -0.21464
 Alpha  occ. eigenvalues --   -0.21378  -0.21240  -0.20966  -0.20769  -0.20517
 Alpha  occ. eigenvalues --   -0.20276  -0.19821  -0.18493
 Alpha virt. eigenvalues --   -0.09267  -0.03657  -0.02970  -0.02758  -0.01852
 Alpha virt. eigenvalues --   -0.00795  -0.00378  -0.00046   0.00096   0.00544
 Alpha virt. eigenvalues --    0.00778   0.01399   0.01729   0.02062   0.02660

 Mulliken charges:
               1
     1  C    0.061505
     2  C    0.037151
     3  O   -0.285164
     4  H    0.037359
     5  H    0.034694
     6  H    0.012290
     7  N   -0.115360
     8  C    0.089594
     9  C    0.068557
    10  O   -0.292963
    11  C    0.123140
    12  C    0.089606
    13  O   -0.434596
    14  O   -0.392243
    15  H    0.113692
    16  H    0.001837
    17  H    0.008636
    18  H    0.016600
    19  N   -0.135204
    20  C    0.170687
    21  C    0.050415
    22  O   -0.331181
    23  C    0.014583
    24  C   -0.003032
    25  C   -0.000519
    26  C   -0.000089
    27  N    0.080102
    28  H    0.151944
    29  H    0.016014
    30  H    0.015694
    31  H    0.043873
    32  H    0.028537
    33  H   -0.048663
    34  H    0.020175
    35  H    0.074185
    36  H    0.064137
    37  H    0.073412
    38  H    0.197839
    39  H    0.198559
    40  H    0.196436
    41  N   -0.130813
    42  C    0.138092
    43  C    0.065541
    44  O   -0.277829
    45  C    0.089673
    46  C    0.156063
    47  O   -0.454151
    48  O   -0.403932
    49  H    0.184472
    50  H    0.009660
    51  H   -0.015553
    52  H    0.019057
    53  N   -0.172347
    54  C    0.199707
    55  C    0.042871
    56  O   -0.270903
    57  H    0.138398
    58  H    0.015112
    59  H   -0.004257
    60  N   -0.173632
    61  C    0.197524
    62  C    0.031116
    63  O   -0.305333
    64  C    0.006616
    65  C    0.116178
    66  N   -0.033757
    67  O   -0.349697
    68  H    0.159089
    69  H    0.028861
    70  H    0.069243
    71  H    0.011301
    72  H    0.128508
    73  H    0.117750
    74  N   -0.138250
    75  C    0.202215
    76  C    0.029188
    77  O   -0.288477
    78  H    0.129711
    79  H    0.048784
    80  H    0.026333
    81  N   -0.136057
    82  C    0.154192
    83  C    0.150582
    84  O   -0.374546
    85  C    0.127821
    86  C   -0.057071
    87  C    0.028893
    88  C    0.006097
    89  C   -0.019249
    90  C   -0.059131
    91  C    0.194120
    92  O   -0.200805
    93  H    0.158555
    94  H   -0.017701
    95  H   -0.007386
    96  H   -0.038869
    97  H   -0.030222
    98  H   -0.021998
    99  H   -0.027775
   100  H   -0.039781
   101  H    0.176951
   102  N   -0.106203
   103  C    0.120520
   104  C    0.061266
   105  O   -0.280550
   106  C   -0.115920
   107  C   -0.003839
   108  C    0.049942
   109  C    0.054847
   110  H    0.140071
   111  H    0.021982
   112  H   -0.029032
   113  H   -0.023678
   114  H   -0.003583
   115  H    0.010701
   116  H    0.031183
   117  H    0.002337
   118  H    0.010914
   119  H    0.011698
   120  H    0.014450
   121  N   -0.140600
   122  C    0.092055
   123  C    0.125156
   124  O   -0.262848
   125  C    0.199962
   126  O   -0.300029
   127  H    0.169336
   128  H    0.018887
   129  H    0.035336
   130  H   -0.016778
   131  H    0.183043
   132  N   -0.133716
   133  C    0.067740
   134  C    0.053774
   135  O   -0.253343
   136  C    0.074519
   137  H    0.117258
   138  H    0.028684
   139  H    0.001509
   140  H    0.057616
   141  H    0.022720
   142  N   -0.125136
   143  C    0.134017
   144  C    0.073394
   145  O   -0.260300
   146  C    0.019074
   147  H    0.081487
   148  H    0.016248
   149  H    0.021484
   150  H    0.016605
   151  H   -0.021874
   152  N   -0.152441
   153  C    0.136715
   154  C    0.047430
   155  O   -0.273284
   156  C   -0.055895
   157  C    0.119160
   158  C    0.094757
   159  O   -0.382176
   160  O   -0.430793
   161  H    0.119673
   162  H   -0.037303
   163  H    0.043929
   164  H   -0.026361
   165  H   -0.031372
   166  H   -0.040460
   167  N   -0.170244
   168  C    0.156164
   169  H    0.023050
   170  H    0.024285
   171  H   -0.002419
   172  H    0.142978
   173  Ca   1.274896
   174  O   -0.324449
   175  H    0.166688
   176  H    0.154094
 Sum of Mulliken charges =  -0.00000

 Dipole moment (field-independent basis, Debye):
    X=             22.4286    Y=              5.7070    Z=            -21.2236  Tot=             31.4015
 Quadrupole moment (field-independent basis, Debye-Ang):
   XX=           -620.8081   YY=           -450.4744   ZZ=           -483.5105
   XY=            115.7264   XZ=            -65.0395   YZ=            -44.0763

 ESP charges:
               1
     1  C   -0.483245
     2  C    0.931521
     3  O   -0.644742
     4  H    0.142963
     5  H    0.116198
     6  H    0.104198
     7  N   -0.745818
     8  C    0.326957
     9  C    0.347887
    10  O   -0.535743
    11  C   -0.385827
    12  C    1.408679
    13  O   -0.909729
    14  O   -1.105514
    15  H    0.339854
    16  H   -0.000665
    17  H    0.088877
    18  H    0.051771
    19  N    0.153479
    20  C   -0.714158
    21  C    0.785717
    22  O   -0.625775
    23  C    0.411251
    24  C   -0.040754
    25  C   -0.233328
    26  C    0.196477
    27  N   -0.597047
    28  H    0.003757
    29  H    0.207283
    30  H   -0.005700
    31  H   -0.017165
    32  H    0.041152
    33  H   -0.039956
    34  H    0.051743
    35  H    0.120582
    36  H    0.053348
    37  H    0.074916
    38  H    0.402189
    39  H    0.404841
    40  H    0.378756
    41  N   -0.473387
    42  C    0.022153
    43  C    0.493250
    44  O   -0.538216
    45  C   -0.260988
    46  C    0.775073
    47  O   -0.562989
    48  O   -0.737566
    49  H    0.376466
    50  H    0.102906
    51  H    0.060384
    52  H    0.086153
    53  N   -0.231641
    54  C   -0.013448
    55  C    0.385003
    56  O   -0.536619
    57  H    0.075299
    58  H    0.080242
    59  H    0.026561
    60  N    0.033726
    61  C   -0.305329
    62  C    0.491627
    63  O   -0.532515
    64  C   -0.101790
    65  C    0.621519
    66  N   -0.801663
    67  O   -0.642877
    68  H    0.019287
    69  H    0.182042
    70  H    0.115689
    71  H    0.059510
    72  H    0.395322
    73  H    0.365960
    74  N   -0.162108
    75  C   -0.329013
    76  C    0.741480
    77  O   -0.571994
    78  H    0.237765
    79  H    0.162200
    80  H    0.103153
    81  N   -0.885385
    82  C    0.582733
    83  C    0.594034
    84  O   -0.665565
    85  C   -0.659139
    86  C    0.587893
    87  C   -0.471622
    88  C   -0.438455
    89  C   -0.056963
    90  C   -0.186956
    91  C    0.252940
    92  O   -0.540269
    93  H    0.628100
    94  H   -0.032232
    95  H    0.146467
    96  H    0.103993
    97  H    0.198223
    98  H    0.241125
    99  H    0.118421
   100  H    0.126139
   101  H    0.415890
   102  N   -0.736631
   103  C    0.046119
   104  C    0.680969
   105  O   -0.586478
   106  C    0.054105
   107  C    0.451065
   108  C   -0.089484
   109  C   -0.419619
   110  H    0.359741
   111  H    0.145320
   112  H   -0.034674
   113  H   -0.062126
   114  H   -0.137846
   115  H   -0.054406
   116  H   -0.015965
   117  H    0.049821
   118  H    0.079433
   119  H    0.093635
   120  H    0.086685
   121  N   -0.517311
   122  C    0.140404
   123  C    0.310623
   124  O   -0.208518
   125  C    0.032273
   126  O   -0.400251
   127  H    0.458039
   128  H    0.053256
   129  H    0.060246
   130  H    0.016773
   131  H    0.366019
   132  N   -0.497459
   133  C    0.363789
   134  C    0.405885
   135  O   -0.524510
   136  C   -0.368125
   137  H    0.310742
   138  H    0.020593
   139  H    0.074516
   140  H    0.134813
   141  H    0.093327
   142  N   -0.379776
   143  C    0.214640
   144  C    0.318830
   145  O   -0.508957
   146  C   -0.345467
   147  H    0.195919
   148  H    0.083379
   149  H    0.113035
   150  H    0.085184
   151  H    0.065542
   152  N    0.049064
   153  C   -0.341778
   154  C    0.554909
   155  O   -0.560425
   156  C    0.267408
   157  C   -0.265180
   158  C    0.821210
   159  O   -0.817796
   160  O   -0.805041
   161  H    0.004998
   162  H    0.110277
   163  H    0.062151
   164  H   -0.182239
   165  H    0.043493
   166  H    0.022979
   167  N    0.060462
   168  C   -0.296487
   169  H    0.114230
   170  H    0.096294
   171  H    0.095711
   172  H   -0.052116
   173  Ca   1.633868
   174  O   -0.857325
   175  H    0.401345
   176  H    0.433642
 Sum of ESP charges =  -0.00000

 Normal termination of Gaussian 16 at Sat Sep 14 23:54:17 2019.
