 Gaussian 16, Revision A.03,
 Gaussian 16:  ES64L-G16RevA.03 25-Dec-2016

 ----------------------------------------------------------------------
 #b3lyp/svp scf=(tight,noincore) Test #IOP(5/87=12) Density=Current Pop
 =(MK,readradii) iop(6/33=2) iop(6/42=6)
 ----------------------------------------------------------------------

 -----------------
 CaMKII_loop3_86.0
 -----------------
 Symbolic Z-matrix:
 Charge =  0 Multiplicity = 1

                         Standard orientation:
 ---------------------------------------------------------------------
 Center     Atomic      Atomic             Coordinates (Angstroms)
 Number     Number       Type             X           Y           Z
 ---------------------------------------------------------------------
      1          6           0        2.421761    2.284200    6.056651
      2          6           0        2.005707    2.442246    4.593326
      3          8           0        2.845561    2.525866    3.699875
      4          1           0        3.309104    1.653353    6.115800
      5          1           0        2.644065    3.263653    6.479980
      6          1           0        1.610013    1.821554    6.617839
      7          7           0        0.689267    2.517024    4.370633
      8          6           0        0.023214    2.446301    3.093225
      9          6           0       -0.095302    3.896578    2.634147
     10          8           0       -0.326283    4.876716    3.343496
     11          6           0       -1.297013    1.698066    3.182358
     12          6           0       -1.751245    1.162321    1.834340
     13          8           0       -2.457737    1.811426    1.032760
     14          8           0       -1.333138    0.035837    1.478923
     15          1           0        0.078603    2.392594    5.168134
     16          1           0        0.766368    1.975961    2.449330
     17          1           0       -2.111389    2.272259    3.629677
     18          1           0       -1.039109    0.880578    3.864706
     19          7           0        0.020594    4.038867    1.311112
     20          6           0        0.183254    5.223671    0.499521
     21          6           0       -1.044214    5.517640   -0.357395
     22          8           0       -1.411234    6.689160   -0.408748
     23          6           0        1.454163    5.028210   -0.319066
     24          6           0        1.801401    6.346836   -1.009320
     25          6           0        3.197138    6.269259   -1.623649
     26          6           0        3.239499    5.295970   -2.789588
     27          7           0        4.604676    5.294128   -3.332993
     28          1           0        0.124387    3.203595    0.757445
     29          1           0        0.412780    6.008261    1.218504
     30          1           0        1.279508    4.147992   -0.951768
     31          1           0        2.203708    4.805498    0.436303
     32          1           0        1.852094    7.114991   -0.234227
     33          1           0        1.067142    6.618288   -1.755160
     34          1           0        3.876202    5.849316   -0.879793
     35          1           0        3.516679    7.256742   -1.960948
     36          1           0        2.388072    5.540181   -3.428519
     37          1           0        2.985076    4.316263   -2.376136
     38          1           0        4.731339    4.757478   -4.191459
     39          1           0        4.864733    6.249400   -3.536038
     40          1           0        5.165185    4.849273   -2.617848
     41          7           0       -1.603558    4.494261   -0.994522
     42          6           0       -2.708976    4.729420   -1.903835
     43          6           0       -4.071878    4.475503   -1.283733
     44          8           0       -5.068372    5.008829   -1.783496
     45          6           0       -2.581018    3.797501   -3.103858
     46          6           0       -2.371178    2.340900   -2.695961
     47          8           0       -3.158574    1.747810   -1.925344
     48          8           0       -1.341877    1.722497   -3.041531
     49          1           0       -1.191417    3.572427   -0.875932
     50          1           0       -2.750079    5.759607   -2.258836
     51          1           0       -1.812154    4.054736   -3.826960
     52          1           0       -3.549194    3.848234   -3.604818
     53          7           0       -4.234456    3.699906   -0.204096
     54          6           0       -5.493493    3.641873    0.506789
     55          6           0       -6.452425    2.535875    0.083212
     56          8           0       -7.654963    2.601896    0.320790
     57          1           0       -3.395107    3.182560   -0.006244
     58          1           0       -5.938526    4.634808    0.518056
     59          1           0       -5.221799    3.528794    1.562391
     60          7           0       -5.883084    1.450389   -0.441165
     61          6           0       -6.596526    0.216311   -0.729352
     62          6           0       -6.699837   -0.818852    0.386518
     63          8           0       -7.449721   -1.779536    0.206626
     64          6           0       -6.029377   -0.422792   -1.990775
     65          6           0       -4.592018   -0.933023   -1.875598
     66          7           0       -3.884535   -1.121857   -2.989155
     67          8           0       -4.016892   -1.179161   -0.815058
     68          1           0       -4.963442    1.621932   -0.810398
     69          1           0       -7.619712    0.488235   -0.982626
     70          1           0       -6.190827    0.129099   -2.917571
     71          1           0       -6.542315   -1.356901   -2.182955
     72          1           0       -4.188641   -0.851655   -3.914903
     73          1           0       -3.047849   -1.682208   -2.976354
     74          7           0       -6.003910   -0.641352    1.510608
     75          6           0       -5.996192   -1.451609    2.714736
     76          6           0       -5.058654   -2.639111    2.656754
     77          8           0       -5.170088   -3.496376    3.536856
     78          1           0       -5.418709    0.172608    1.477306
     79          1           0       -7.009407   -1.817936    2.876597
     80          1           0       -5.751382   -0.807762    3.562397
     81          7           0       -4.253734   -2.764551    1.597854
     82          6           0       -3.202989   -3.762031    1.708619
     83          6           0       -1.883535   -3.232357    1.164481
     84          8           0       -1.859991   -2.515266    0.166369
     85          6           0       -3.648410   -5.045284    1.021626
     86          6           0       -4.029808   -4.835119   -0.417563
     87          6           0       -5.371297   -4.636981   -0.758809
     88          6           0       -3.073645   -4.935828   -1.436292
     89          6           0       -5.743937   -4.479173   -2.101655
     90          6           0       -3.427340   -4.789751   -2.781009
     91          6           0       -4.758158   -4.473098   -3.115905
     92          8           0       -5.035905   -4.169345   -4.412975
     93          1           0       -4.292913   -2.185440    0.776455
     94          1           0       -3.088907   -3.969553    2.776008
     95          1           0       -4.406255   -5.586235    1.604073
     96          1           0       -2.767840   -5.693066    1.064922
     97          1           0       -6.088455   -4.480654    0.032801
     98          1           0       -2.052207   -5.165891   -1.142464
     99          1           0       -6.731412   -4.195828   -2.439157
    100          1           0       -2.720902   -4.954156   -3.577072
    101          1           0       -4.270708   -4.222470   -4.990946
    102          7           0       -0.752878   -3.637393    1.737335
    103          6           0        0.578329   -3.078703    1.718573
    104          6           0        1.449985   -3.734614    0.652835
    105          8           0        1.479496   -4.960048    0.671319
    106          6           0        1.240399   -3.191629    3.091675
    107          6           0        0.672987   -2.157287    4.063467
    108          6           0        2.755468   -3.033865    3.065628
    109          6           0        0.913166   -2.572424    5.518279
    110          1           0       -0.909998   -4.246795    2.524827
    111          1           0        0.446064   -2.018940    1.484462
    112          1           0        1.031822   -4.198332    3.443732
    113          1           0       -0.386713   -2.037444    3.859571
    114          1           0        1.212388   -1.229152    3.865950
    115          1           0        3.133244   -3.080115    4.081475
    116          1           0        3.260661   -3.773735    2.450507
    117          1           0        3.064550   -2.062600    2.670643
    118          1           0        1.962517   -2.756145    5.750679
    119          1           0        0.591218   -1.814976    6.221785
    120          1           0        0.318313   -3.459559    5.752459
    121          7           0        2.185754   -2.948262   -0.141957
    122          6           0        3.079654   -3.447359   -1.163938
    123          6           0        4.540506   -3.298577   -0.773717
    124          8           0        4.812176   -2.378209    0.001731
    125          6           0        2.613894   -2.941446   -2.532302
    126          8           0        2.756490   -1.540273   -2.497913
    127          1           0        2.020228   -1.959213   -0.055453
    128          1           0        2.937175   -4.525361   -1.245872
    129          1           0        1.547764   -3.143575   -2.653176
    130          1           0        3.257172   -3.432155   -3.258110
    131          1           0        2.188612   -1.222036   -1.797956
    132          7           0        5.456968   -3.965187   -1.478791
    133          6           0        6.873821   -3.862663   -1.190669
    134          6           0        7.424337   -2.446339   -1.289963
    135          8           0        8.111934   -2.011889   -0.364888
    136          6           0        7.578311   -4.907067   -2.047532
    137          1           0        5.144132   -4.684209   -2.116162
    138          1           0        6.921939   -4.116316   -0.127821
    139          1           0        8.401547   -5.354560   -1.488487
    140          1           0        6.945655   -5.777732   -2.246248
    141          1           0        7.835657   -4.490044   -3.019265
    142          7           0        7.030509   -1.690879   -2.318544
    143          6           0        7.319081   -0.288207   -2.525999
    144          6           0        6.744186    0.654343   -1.481970
    145          8           0        7.373669    1.663367   -1.167294
    146          6           0        6.746814    0.135766   -3.871086
    147          1           0        6.484664   -2.142389   -3.037426
    148          1           0        8.406532   -0.195477   -2.572389
    149          1           0        5.684773   -0.119857   -3.882316
    150          1           0        6.858242    1.219748   -3.927355
    151          1           0        7.252272   -0.422762   -4.658587
    152          7           0        5.660737    0.325629   -0.770152
    153          6           0        5.182101    1.057233    0.379876
    154          6           0        5.999533    0.648160    1.601786
    155          8           0        6.405354    1.523602    2.360344
    156          6           0        3.687046    0.822641    0.609386
    157          6           0        2.814599    1.461038   -0.469403
    158          6           0        1.373168    1.007583   -0.623199
    159          8           0        1.081826   -0.200952   -0.806132
    160          8           0        0.448674    1.836966   -0.485964
    161          1           0        5.346536   -0.621214   -0.901169
    162          1           0        5.376042    2.116337    0.192561
    163          1           0        3.457964    1.223857    1.600772
    164          1           0        3.482906   -0.252689    0.581218
    165          1           0        3.184844    1.193882   -1.459932
    166          1           0        2.863415    2.548864   -0.381920
    167          7           0        6.290244   -0.641503    1.781666
    168          6           0        7.069520   -1.010840    2.955982
    169          1           0        7.874342   -1.684251    2.659986
    170          1           0        7.494224   -0.114009    3.407974
    171          1           0        6.424568   -1.511032    3.677778
    172          1           0        5.827180   -1.331782    1.206786
    173         20           0       -1.580466   -0.127597   -0.975131
    174          8           0       -1.185753   -2.163070   -2.656931
    175          1           0       -0.897325   -2.217029   -3.567753
    176          1           0       -1.193046   -3.075576   -2.353980
 ---------------------------------------------------------------------

 SCF Done:  E(RB3LYP) =  -5333.64364759     A.U. after   15 cycles

 The electronic state is 1-A.
 Alpha  occ. eigenvalues -- -145.35471 -19.21341 -19.17567 -19.14823 -19.13678
 Alpha  occ. eigenvalues --  -19.11923 -19.11885 -19.11271 -19.10320 -19.10244
 Alpha  occ. eigenvalues --  -19.09531 -19.08795 -19.07706 -19.07470 -19.07401
 Alpha  occ. eigenvalues --  -19.07337 -19.06035 -19.05819 -19.05797 -19.05777
 Alpha  occ. eigenvalues --  -19.05439 -19.05172 -19.05114 -19.04523 -15.41180
 Alpha  occ. eigenvalues --  -14.57966 -14.40811 -14.38718 -14.36620 -14.36602
 Alpha  occ. eigenvalues --  -14.36047 -14.34850 -14.33639 -14.33577 -14.33475
 Alpha  occ. eigenvalues --  -14.33187 -14.31872 -14.31841 -14.31059 -14.29778
 Alpha  occ. eigenvalues --  -12.54788 -12.54777 -12.54744 -10.33172 -10.32995
 Alpha  occ. eigenvalues --  -10.30987 -10.30771 -10.29763 -10.28748 -10.28478
 Alpha  occ. eigenvalues --  -10.28470 -10.27150 -10.27089 -10.26509 -10.26508
 Alpha  occ. eigenvalues --  -10.26400 -10.26248 -10.25990 -10.25900 -10.25812
 Alpha  occ. eigenvalues --  -10.25728 -10.24939 -10.24808 -10.24798 -10.24722
 Alpha  occ. eigenvalues --  -10.24599 -10.23400 -10.23338 -10.23220 -10.22993
 Alpha  occ. eigenvalues --  -10.22664 -10.22262 -10.22118 -10.21967 -10.21487
 Alpha  occ. eigenvalues --  -10.21360 -10.21101 -10.20990 -10.20170 -10.20115
 Alpha  occ. eigenvalues --  -10.20040 -10.19908 -10.19725 -10.19198 -10.19164
 Alpha  occ. eigenvalues --  -10.19123 -10.19110 -10.18989 -10.18950 -10.18921
 Alpha  occ. eigenvalues --  -10.18562 -10.17977 -10.17687 -10.17587 -10.17557
 Alpha  occ. eigenvalues --  -10.17428 -10.16921  -1.78131  -1.12894  -1.07925
 Alpha  occ. eigenvalues --   -1.07525  -1.06266  -1.06223  -1.05645  -1.05545
 Alpha  occ. eigenvalues --   -1.04894  -1.04842  -1.04359  -1.04011  -1.03457
 Alpha  occ. eigenvalues --   -1.02866  -1.02678  -1.01095  -1.00944  -1.00558
 Alpha  occ. eigenvalues --   -1.00343  -1.00185  -1.00138  -0.99153  -0.98886
 Alpha  occ. eigenvalues --   -0.98653  -0.97706  -0.97589  -0.95337  -0.93837
 Alpha  occ. eigenvalues --   -0.93683  -0.93349  -0.91805  -0.91271  -0.90936
 Alpha  occ. eigenvalues --   -0.90874  -0.90515  -0.90118  -0.89822  -0.89411
 Alpha  occ. eigenvalues --   -0.89181  -0.88944  -0.87933  -0.87849  -0.86274
 Alpha  occ. eigenvalues --   -0.85284  -0.82968  -0.82148  -0.80479  -0.80234
 Alpha  occ. eigenvalues --   -0.78765  -0.78735  -0.78126  -0.77809  -0.77088
 Alpha  occ. eigenvalues --   -0.76081  -0.74830  -0.74774  -0.74145  -0.73390
 Alpha  occ. eigenvalues --   -0.72875  -0.72498  -0.71787  -0.71444  -0.70919
 Alpha  occ. eigenvalues --   -0.70660  -0.70296  -0.69750  -0.68423  -0.67367
 Alpha  occ. eigenvalues --   -0.67271  -0.66729  -0.66582  -0.65449  -0.65022
 Alpha  occ. eigenvalues --   -0.64454  -0.63365  -0.63247  -0.63062  -0.62778
 Alpha  occ. eigenvalues --   -0.61978  -0.61535  -0.61176  -0.60965  -0.60751
 Alpha  occ. eigenvalues --   -0.60122  -0.59859  -0.59524  -0.59033  -0.58402
 Alpha  occ. eigenvalues --   -0.58070  -0.57632  -0.57465  -0.57273  -0.56781
 Alpha  occ. eigenvalues --   -0.56316  -0.56247  -0.56181  -0.55748  -0.55592
 Alpha  occ. eigenvalues --   -0.55095  -0.54665  -0.54485  -0.54280  -0.53922
 Alpha  occ. eigenvalues --   -0.53660  -0.53337  -0.52867  -0.52479  -0.52079
 Alpha  occ. eigenvalues --   -0.51100  -0.50955  -0.50854  -0.50426  -0.50091
 Alpha  occ. eigenvalues --   -0.50051  -0.49997  -0.49798  -0.49680  -0.49335
 Alpha  occ. eigenvalues --   -0.49022  -0.48687  -0.48489  -0.48274  -0.48093
 Alpha  occ. eigenvalues --   -0.47653  -0.47480  -0.47321  -0.47223  -0.47134
 Alpha  occ. eigenvalues --   -0.46987  -0.46768  -0.46661  -0.46377  -0.46304
 Alpha  occ. eigenvalues --   -0.46107  -0.45840  -0.45552  -0.45370  -0.45305
 Alpha  occ. eigenvalues --   -0.44811  -0.44754  -0.44629  -0.44381  -0.44204
 Alpha  occ. eigenvalues --   -0.43937  -0.43894  -0.43779  -0.43442  -0.43401
 Alpha  occ. eigenvalues --   -0.43207  -0.43044  -0.42938  -0.42901  -0.42794
 Alpha  occ. eigenvalues --   -0.42544  -0.42488  -0.42406  -0.42225  -0.42093
 Alpha  occ. eigenvalues --   -0.41941  -0.41882  -0.41751  -0.41551  -0.41433
 Alpha  occ. eigenvalues --   -0.41307  -0.41244  -0.41134  -0.41025  -0.40911
 Alpha  occ. eigenvalues --   -0.40666  -0.40639  -0.40367  -0.40226  -0.39961
 Alpha  occ. eigenvalues --   -0.39921  -0.39649  -0.39534  -0.39425  -0.39266
 Alpha  occ. eigenvalues --   -0.39065  -0.38951  -0.38820  -0.38687  -0.38527
 Alpha  occ. eigenvalues --   -0.38461  -0.38390  -0.38285  -0.38171  -0.38080
 Alpha  occ. eigenvalues --   -0.38031  -0.37766  -0.37586  -0.37250  -0.36921
 Alpha  occ. eigenvalues --   -0.36854  -0.36753  -0.36680  -0.36533  -0.36419
 Alpha  occ. eigenvalues --   -0.36338  -0.35972  -0.35795  -0.35686  -0.35488
 Alpha  occ. eigenvalues --   -0.35414  -0.35210  -0.34880  -0.34618  -0.34383
 Alpha  occ. eigenvalues --   -0.34265  -0.34037  -0.33972  -0.33864  -0.33662
 Alpha  occ. eigenvalues --   -0.33539  -0.33460  -0.33295  -0.33126  -0.32883
 Alpha  occ. eigenvalues --   -0.32628  -0.32575  -0.31864  -0.31825  -0.30357
 Alpha  occ. eigenvalues --   -0.29648  -0.29526  -0.29348  -0.28502  -0.28418
 Alpha  occ. eigenvalues --   -0.28123  -0.27622  -0.27362  -0.27054  -0.27011
 Alpha  occ. eigenvalues --   -0.26943  -0.26394  -0.25795  -0.25679  -0.25363
 Alpha  occ. eigenvalues --   -0.25289  -0.25154  -0.25131  -0.25000  -0.24603
 Alpha  occ. eigenvalues --   -0.24467  -0.24376  -0.24001  -0.23685  -0.23221
 Alpha  occ. eigenvalues --   -0.22995  -0.22784  -0.22766  -0.22505  -0.22486
 Alpha  occ. eigenvalues --   -0.21951  -0.21802  -0.21131  -0.21112  -0.20997
 Alpha  occ. eigenvalues --   -0.20628  -0.20128  -0.19374
 Alpha virt. eigenvalues --   -0.09660  -0.04124  -0.04014  -0.03575  -0.02793
 Alpha virt. eigenvalues --   -0.02152  -0.01535  -0.00777  -0.00644   0.00007
 Alpha virt. eigenvalues --    0.00179   0.00386   0.00646   0.01158   0.02494

 Mulliken charges:
               1
     1  C    0.048600
     2  C    0.026406
     3  O   -0.283094
     4  H    0.036259
     5  H    0.047887
     6  H   -0.005626
     7  N   -0.113970
     8  C    0.024761
     9  C    0.080080
    10  O   -0.280987
    11  C    0.192995
    12  C    0.094699
    13  O   -0.378385
    14  O   -0.456922
    15  H    0.112494
    16  H    0.011360
    17  H    0.004418
    18  H   -0.012515
    19  N   -0.158522
    20  C    0.140283
    21  C    0.082063
    22  O   -0.277484
    23  C   -0.095896
    24  C    0.069774
    25  C   -0.032876
    26  C   -0.023909
    27  N    0.087856
    28  H    0.150100
    29  H   -0.000584
    30  H    0.029915
    31  H    0.036224
    32  H    0.028690
    33  H    0.027550
    34  H    0.023365
    35  H    0.016885
    36  H    0.083369
    37  H    0.091411
    38  H    0.193771
    39  H    0.191414
    40  H    0.210401
    41  N   -0.150689
    42  C    0.119910
    43  C    0.038150
    44  O   -0.304086
    45  C    0.152710
    46  C    0.042264
    47  O   -0.423830
    48  O   -0.402335
    49  H    0.171940
    50  H    0.016600
    51  H   -0.023802
    52  H    0.012813
    53  N   -0.153956
    54  C    0.233029
    55  C    0.034179
    56  O   -0.279154
    57  H    0.133271
    58  H    0.021385
    59  H    0.020214
    60  N   -0.177286
    61  C    0.182556
    62  C    0.044412
    63  O   -0.290860
    64  C    0.064306
    65  C    0.077740
    66  N   -0.059799
    67  O   -0.347155
    68  H    0.152547
    69  H    0.027451
    70  H    0.018685
    71  H    0.038901
    72  H    0.120547
    73  H    0.094026
    74  N   -0.142078
    75  C    0.231996
    76  C    0.040810
    77  O   -0.303465
    78  H    0.126864
    79  H    0.038602
    80  H    0.034132
    81  N   -0.154777
    82  C    0.099960
    83  C    0.112488
    84  O   -0.351238
    85  C    0.176194
    86  C   -0.051046
    87  C    0.002322
    88  C    0.010431
    89  C   -0.017650
    90  C   -0.079002
    91  C    0.147191
    92  O   -0.196257
    93  H    0.176592
    94  H    0.002492
    95  H    0.025175
    96  H   -0.025079
    97  H    0.005490
    98  H   -0.020447
    99  H   -0.005989
   100  H   -0.068566
   101  H    0.167036
   102  N   -0.071641
   103  C    0.163137
   104  C    0.035471
   105  O   -0.288792
   106  C   -0.161675
   107  C    0.036231
   108  C    0.086031
   109  C    0.031002
   110  H    0.117944
   111  H    0.020638
   112  H   -0.012412
   113  H    0.008532
   114  H    0.012961
   115  H   -0.000618
   116  H    0.014447
   117  H    0.012354
   118  H    0.007074
   119  H    0.002476
   120  H    0.002923
   121  N   -0.141290
   122  C    0.031909
   123  C    0.148978
   124  O   -0.297584
   125  C    0.307979
   126  O   -0.338169
   127  H    0.151825
   128  H   -0.001118
   129  H   -0.033532
   130  H   -0.025802
   131  H    0.164425
   132  N   -0.132422
   133  C    0.065182
   134  C    0.061172
   135  O   -0.238578
   136  C    0.058463
   137  H    0.124063
   138  H    0.028974
   139  H    0.049500
   140  H    0.009268
   141  H    0.019684
   142  N   -0.131358
   143  C    0.115662
   144  C    0.031775
   145  O   -0.292886
   146  C    0.020802
   147  H    0.104243
   148  H    0.026658
   149  H    0.023039
   150  H    0.007488
   151  H    0.023663
   152  N   -0.136510
   153  C    0.127795
   154  C    0.062036
   155  O   -0.273537
   156  C    0.032143
   157  C    0.062386
   158  C    0.203481
   159  O   -0.459612
   160  O   -0.386887
   161  H    0.121557
   162  H   -0.026083
   163  H    0.055506
   164  H   -0.008902
   165  H   -0.015527
   166  H   -0.035105
   167  N   -0.164326
   168  C    0.129205
   169  H    0.015866
   170  H    0.044669
   171  H    0.004361
   172  H    0.118951
   173  Ca   1.230214
   174  O   -0.258444
   175  H    0.190227
   176  H    0.199315
 Sum of Mulliken charges =  -0.00000

 Dipole moment (field-independent basis, Debye):
    X=             24.4709    Y=             -5.0672    Z=            -22.3499  Tot=             33.5264
 Quadrupole moment (field-independent basis, Debye-Ang):
   XX=           -660.3415   YY=           -527.8154   ZZ=           -472.1369
   XY=             65.0140   XZ=            -85.8919   YZ=            -36.1221

 ESP charges:
               1
     1  C   -0.440816
     2  C    0.793056
     3  O   -0.592066
     4  H    0.123603
     5  H    0.135114
     6  H    0.082550
     7  N   -0.729455
     8  C    0.221586
     9  C    0.525596
    10  O   -0.552034
    11  C   -0.297508
    12  C    0.852131
    13  O   -0.678406
    14  O   -0.812579
    15  H    0.357613
    16  H    0.102945
    17  H    0.096985
    18  H    0.053421
    19  N   -0.014499
    20  C   -0.375556
    21  C    0.741086
    22  O   -0.584287
    23  C    0.283848
    24  C   -0.188783
    25  C   -0.035527
    26  C    0.214347
    27  N   -0.636334
    28  H   -0.240516
    29  H    0.139883
    30  H   -0.050835
    31  H    0.046477
    32  H    0.086989
    33  H    0.068653
    34  H    0.006579
    35  H    0.027000
    36  H    0.060496
    37  H    0.008053
    38  H    0.400288
    39  H    0.383089
    40  H    0.411130
    41  N   -0.605818
    42  C    0.233081
    43  C    0.377638
    44  O   -0.552734
    45  C   -0.336455
    46  C    0.795981
    47  O   -0.716890
    48  O   -0.762249
    49  H    0.436548
    50  H    0.063322
    51  H    0.075581
    52  H    0.094236
    53  N    0.011661
    54  C   -0.290144
    55  C    0.549078
    56  O   -0.559825
    57  H    0.004573
    58  H    0.147493
    59  H    0.113614
    60  N   -0.134446
    61  C   -0.279516
    62  C    0.535289
    63  O   -0.538328
    64  C   -0.059942
    65  C    0.663988
    66  N   -0.762276
    67  O   -0.536508
    68  H    0.140510
    69  H    0.173841
    70  H    0.079014
    71  H    0.050710
    72  H    0.340681
    73  H    0.314519
    74  N   -0.225947
    75  C   -0.316996
    76  C    0.595499
    77  O   -0.560500
    78  H    0.218807
    79  H    0.161752
    80  H    0.145660
    81  N   -0.347104
    82  C    0.070920
    83  C    0.703960
    84  O   -0.636563
    85  C   -0.140957
    86  C   -0.010631
    87  C   -0.097397
    88  C   -0.026844
    89  C   -0.313826
    90  C   -0.405256
    91  C    0.475652
    92  O   -0.594049
    93  H    0.244876
    94  H    0.039030
    95  H    0.107433
    96  H    0.023323
    97  H    0.157270
    98  H    0.111997
    99  H    0.182488
   100  H    0.114781
   101  H    0.417523
   102  N   -0.594229
   103  C   -0.068973
   104  C    0.792482
   105  O   -0.598360
   106  C    0.164101
   107  C    0.109922
   108  C   -0.297076
   109  C   -0.332141
   110  H    0.315499
   111  H    0.046444
   112  H    0.006681
   113  H    0.017058
   114  H    0.023459
   115  H    0.089265
   116  H    0.061851
   117  H    0.057693
   118  H    0.084616
   119  H    0.082972
   120  H    0.066678
   121  N   -0.591102
   122  C    0.081871
   123  C    0.530752
   124  O   -0.398049
   125  C    0.259923
   126  O   -0.556600
   127  H    0.357895
   128  H    0.003338
   129  H   -0.035424
   130  H   -0.007060
   131  H    0.284575
   132  N   -0.498055
   133  C    0.177409
   134  C    0.422699
   135  O   -0.496824
   136  C   -0.259827
   137  H    0.296376
   138  H    0.070380
   139  H    0.099329
   140  H    0.088342
   141  H    0.058370
   142  N   -0.356066
   143  C    0.133538
   144  C    0.435462
   145  O   -0.556641
   146  C   -0.372403
   147  H    0.275971
   148  H    0.092184
   149  H    0.096080
   150  H    0.100201
   151  H    0.105584
   152  N   -0.196207
   153  C   -0.029704
   154  C    0.545847
   155  O   -0.558350
   156  C   -0.052095
   157  C    0.205776
   158  C    0.713849
   159  O   -0.682486
   160  O   -0.605087
   161  H    0.056924
   162  H    0.069409
   163  H    0.041830
   164  H   -0.077427
   165  H   -0.078004
   166  H   -0.063030
   167  N   -0.159828
   168  C   -0.166900
   169  H    0.066037
   170  H    0.112102
   171  H    0.048886
   172  H    0.178465
   173  Ca   1.491285
   174  O   -0.637285
   175  H    0.384735
   176  H    0.366645
 Sum of ESP charges =   0.00000

 Normal termination of Gaussian 16 at Sun Sep 15 01:04:06 2019.
