 Gaussian 16, Revision A.03,
 Gaussian 16:  ES64L-G16RevA.03 25-Dec-2016

 ----------------------------------------------------------------------
 #b3lyp/svp scf=(tight,noincore) Test #IOP(5/87=12) Density=Current Pop
 =(MK,readradii) iop(6/33=2) iop(6/42=6)
 ----------------------------------------------------------------------

 -----------------
 CaMKII_loop3_79.0
 -----------------
 Symbolic Z-matrix:
 Charge =  0 Multiplicity = 1

                         Standard orientation:
 ---------------------------------------------------------------------
 Center     Atomic      Atomic             Coordinates (Angstroms)
 Number     Number       Type             X           Y           Z
 ---------------------------------------------------------------------
      1          6           0        2.094505    3.097413    4.528995
      2          6           0        1.247642    3.135992    3.262214
      3          8           0        1.794109    3.488599    2.225902
      4          1           0        3.105107    3.436542    4.300772
      5          1           0        1.654310    3.752112    5.281219
      6          1           0        2.131811    2.077060    4.911170
      7          7           0       -0.014721    2.717121    3.392930
      8          6           0       -0.893397    2.383203    2.288427
      9          6           0       -1.568800    3.639976    1.769915
     10          8           0       -2.750298    3.854222    2.047337
     11          6           0       -1.908645    1.344039    2.757478
     12          6           0       -2.842272    0.923182    1.632436
     13          8           0       -2.386203    0.872584    0.470610
     14          8           0       -4.028712    0.595395    1.875577
     15          1           0       -0.338214    2.480237    4.326332
     16          1           0       -0.326052    1.900567    1.503773
     17          1           0       -2.511201    1.665051    3.599902
     18          1           0       -1.294178    0.497112    3.082046
     19          7           0       -0.909840    4.587921    1.096809
     20          6           0       -1.335972    5.923481    0.746394
     21          6           0       -2.451398    5.907049   -0.294449
     22          8           0       -3.262105    6.831819   -0.287159
     23          6           0       -0.128066    6.685396    0.219755
     24          6           0       -0.503735    8.169321    0.240744
     25          6           0        0.581983    9.129856   -0.249552
     26          6           0        0.197291   10.524378    0.232442
     27          7           0        1.196393   11.556223   -0.074789
     28          1           0       -0.110253    4.143402    0.659014
     29          1           0       -1.703050    6.436536    1.630887
     30          1           0        0.082852    6.328400   -0.790674
     31          1           0        0.754269    6.562894    0.851005
     32          1           0       -0.675778    8.471006    1.274179
     33          1           0       -1.413447    8.312786   -0.332965
     34          1           0        0.619415    9.002015   -1.337374
     35          1           0        1.504035    8.866379    0.253837
     36          1           0        0.031090   10.452899    1.310760
     37          1           0       -0.747384   10.794332   -0.247574
     38          1           0        1.237291   11.696712   -1.071027
     39          1           0        0.955841   12.453748    0.333601
     40          1           0        2.051766   11.271994    0.378368
     41          7           0       -2.406356    4.911614   -1.177276
     42          6           0       -3.439673    4.565344   -2.137095
     43          6           0       -4.751401    3.972152   -1.637901
     44          8           0       -5.790269    3.845044   -2.278757
     45          6           0       -2.929214    3.639498   -3.230502
     46          6           0       -2.384910    2.329779   -2.687298
     47          8           0       -1.561999    2.408476   -1.745744
     48          8           0       -2.729104    1.216302   -3.144024
     49          1           0       -1.742839    4.179065   -0.990953
     50          1           0       -3.669740    5.546259   -2.567415
     51          1           0       -2.185855    4.085458   -3.883905
     52          1           0       -3.808733    3.444247   -3.843710
     53          7           0       -4.751905    3.607941   -0.348037
     54          6           0       -5.826447    2.980769    0.385866
     55          6           0       -6.230783    1.564336   -0.015172
     56          8           0       -7.292230    1.200836    0.482923
     57          1           0       -3.865982    3.778083    0.115744
     58          1           0       -6.751786    3.545206    0.433397
     59          1           0       -5.570484    2.986455    1.449234
     60          7           0       -5.506477    0.814205   -0.851881
     61          6           0       -6.066934   -0.420396   -1.351731
     62          6           0       -6.255825   -1.578731   -0.383547
     63          8           0       -6.822288   -2.583496   -0.803151
     64          6           0       -5.279791   -0.794756   -2.608258
     65          6           0       -4.046887   -1.656823   -2.369748
     66          7           0       -3.755335   -2.617362   -3.241850
     67          8           0       -3.258326   -1.505462   -1.434514
     68          1           0       -4.558382    1.108453   -1.055433
     69          1           0       -7.082049   -0.179514   -1.656553
     70          1           0       -5.088239    0.088977   -3.219670
     71          1           0       -5.963215   -1.452352   -3.147423
     72          1           0       -4.254714   -2.795283   -4.108028
     73          1           0       -3.015586   -3.239120   -2.939708
     74          7           0       -5.768728   -1.496201    0.860850
     75          6           0       -5.705391   -2.549232    1.842896
     76          6           0       -4.493538   -3.466990    1.935272
     77          8           0       -4.586018   -4.411721    2.715099
     78          1           0       -5.314963   -0.641743    1.161682
     79          1           0       -6.590157   -3.159980    1.639241
     80          1           0       -5.970183   -2.210199    2.844666
     81          7           0       -3.433317   -3.142085    1.189975
     82          6           0       -2.168615   -3.858369    1.286232
     83          6           0       -0.921677   -2.995668    1.231524
     84          8           0       -0.820604   -1.952554    0.586778
     85          6           0       -2.041329   -4.932612    0.205353
     86          6           0       -3.119413   -5.985667    0.112569
     87          6           0       -2.954666   -7.258838    0.654781
     88          6           0       -4.282828   -5.660082   -0.611696
     89          6           0       -3.987455   -8.165600    0.415552
     90          6           0       -5.370524   -6.534771   -0.737539
     91          6           0       -5.187565   -7.847691   -0.260813
     92          8           0       -6.258199   -8.696172   -0.304667
     93          1           0       -3.552198   -2.363345    0.568178
     94          1           0       -2.055672   -4.489201    2.169349
     95          1           0       -1.120055   -5.431836    0.486654
     96          1           0       -1.807237   -4.467371   -0.749504
     97          1           0       -2.050557   -7.488632    1.199925
     98          1           0       -4.328885   -4.693154   -1.095357
     99          1           0       -3.856313   -9.115898    0.912780
    100          1           0       -6.214699   -6.264362   -1.347168
    101          1           0       -6.953283   -8.194249   -0.740018
    102          7           0        0.132333   -3.533037    1.840126
    103          6           0        1.511260   -3.104934    1.704154
    104          6           0        2.042354   -3.938642    0.545289
    105          8           0        1.913636   -5.153975    0.483653
    106          6           0        2.407739   -3.148968    2.939179
    107          6           0        1.598973   -2.750702    4.176709
    108          6           0        3.607674   -2.206538    2.838276
    109          6           0        2.278250   -2.587563    5.524881
    110          1           0        0.045313   -4.267819    2.519996
    111          1           0        1.445803   -2.058074    1.406329
    112          1           0        2.795284   -4.168333    2.989208
    113          1           0        0.708795   -3.359148    4.313738
    114          1           0        1.226997   -1.737658    3.985196
    115          1           0        4.189620   -2.259499    1.914460
    116          1           0        3.262496   -1.175095    2.949985
    117          1           0        4.261476   -2.412079    3.677797
    118          1           0        2.967489   -3.423693    5.662120
    119          1           0        2.827537   -1.646090    5.547498
    120          1           0        1.670617   -2.498486    6.418105
    121          7           0        2.669822   -3.263016   -0.429397
    122          6           0        3.611514   -3.757040   -1.417606
    123          6           0        5.012142   -3.248293   -1.139904
    124          8           0        5.094286   -2.271089   -0.398470
    125          6           0        3.142386   -3.513065   -2.850608
    126          8           0        3.144049   -2.121712   -3.033458
    127          1           0        2.726555   -2.268532   -0.316338
    128          1           0        3.674633   -4.844005   -1.299185
    129          1           0        2.096520   -3.802417   -2.961249
    130          1           0        3.742084   -4.103226   -3.544201
    131          1           0        2.497522   -1.736148   -2.444015
    132          7           0        6.113519   -3.845448   -1.602694
    133          6           0        7.444615   -3.533363   -1.119593
    134          6           0        7.875764   -2.071065   -1.223012
    135          8           0        8.424396   -1.556662   -0.252656
    136          6           0        8.453566   -4.460882   -1.777108
    137          1           0        6.027549   -4.655804   -2.192977
    138          1           0        7.494697   -3.777898   -0.057804
    139          1           0        8.727071   -4.063084   -2.756420
    140          1           0        9.314049   -4.527639   -1.113999
    141          1           0        7.999523   -5.442748   -1.927384
    142          7           0        7.525521   -1.390334   -2.315411
    143          6           0        7.894129   -0.002690   -2.510020
    144          6           0        7.352305    0.914635   -1.423217
    145          8           0        7.794893    2.049863   -1.219563
    146          6           0        7.436321    0.398023   -3.911319
    147          1           0        6.894456   -1.768317   -3.009735
    148          1           0        8.978057    0.063069   -2.518783
    149          1           0        6.378984    0.649451   -3.802129
    150          1           0        8.060760    1.235068   -4.231991
    151          1           0        7.718985   -0.400890   -4.601493
    152          7           0        6.291582    0.534396   -0.710136
    153          6           0        5.533581    1.422380    0.154166
    154          6           0        6.262767    1.373058    1.494000
    155          8           0        6.490466    2.395375    2.137056
    156          6           0        4.099360    0.955095    0.345882
    157          6           0        3.244717    1.063573   -0.913570
    158          6           0        1.853471    0.461301   -0.766930
    159          8           0        1.703210   -0.731582   -1.133742
    160          8           0        0.892502    1.006568   -0.192367
    161          1           0        5.966794   -0.419530   -0.798668
    162          1           0        5.567203    2.448477   -0.208869
    163          1           0        3.625738    1.618754    1.072682
    164          1           0        4.038476   -0.065958    0.741032
    165          1           0        3.755279    0.602464   -1.759150
    166          1           0        3.150771    2.129885   -1.086056
    167          7           0        6.766517    0.236974    1.975507
    168          6           0        7.648109    0.010506    3.092649
    169          1           0        8.572425    0.568511    2.944880
    170          1           0        7.164923    0.345002    4.010935
    171          1           0        7.874732   -1.053297    3.167809
    172          1           0        6.500870   -0.577670    1.426429
    173         20           0       -0.990168   -0.180852   -1.317617
    174          8           0        0.141783    0.813319   -3.539511
    175          1           0        0.675684    1.464019   -4.007420
    176          1           0       -0.409300    0.420972   -4.216617
 ---------------------------------------------------------------------

 SCF Done:  E(RB3LYP) =  -5333.58109333     A.U. after   18 cycles

 The electronic state is 1-A.
 Alpha  occ. eigenvalues -- -145.34584 -19.15215 -19.13875 -19.12122 -19.10634
 Alpha  occ. eigenvalues --  -19.10625 -19.10526 -19.10305 -19.08670 -19.07953
 Alpha  occ. eigenvalues --  -19.07453 -19.06730 -19.06581 -19.06474 -19.05429
 Alpha  occ. eigenvalues --  -19.04689 -19.04503 -19.04388 -19.04378 -19.04328
 Alpha  occ. eigenvalues --  -19.03798 -19.02653 -19.01024 -18.99912 -15.40327
 Alpha  occ. eigenvalues --  -14.60152 -14.38573 -14.36404 -14.36136 -14.35361
 Alpha  occ. eigenvalues --  -14.33443 -14.33439 -14.32875 -14.32400 -14.32331
 Alpha  occ. eigenvalues --  -14.31523 -14.31235 -14.29558 -14.29001 -14.28688
 Alpha  occ. eigenvalues --  -12.53935 -12.53901 -12.53889 -10.35934 -10.30592
 Alpha  occ. eigenvalues --  -10.29499 -10.29075 -10.28883 -10.28027 -10.27171
 Alpha  occ. eigenvalues --  -10.26324 -10.26149 -10.25840 -10.25205 -10.25115
 Alpha  occ. eigenvalues --  -10.24866 -10.23870 -10.23672 -10.23545 -10.23532
 Alpha  occ. eigenvalues --  -10.23526 -10.23283 -10.23241 -10.23046 -10.23038
 Alpha  occ. eigenvalues --  -10.23010 -10.22667 -10.22058 -10.21758 -10.21720
 Alpha  occ. eigenvalues --  -10.21578 -10.21252 -10.20549 -10.20429 -10.20414
 Alpha  occ. eigenvalues --  -10.19665 -10.19477 -10.19456 -10.19190 -10.19155
 Alpha  occ. eigenvalues --  -10.17881 -10.17662 -10.17161 -10.17144 -10.17118
 Alpha  occ. eigenvalues --  -10.16927 -10.16887 -10.16775 -10.16628 -10.16385
 Alpha  occ. eigenvalues --  -10.16352 -10.16304 -10.16291 -10.16189 -10.15772
 Alpha  occ. eigenvalues --  -10.15588 -10.13901  -1.77270  -1.15386  -1.05753
 Alpha  occ. eigenvalues --   -1.05117  -1.04871  -1.04662  -1.03559  -1.03385
 Alpha  occ. eigenvalues --   -1.03282  -1.02696  -1.01649  -1.01265  -1.01168
 Alpha  occ. eigenvalues --   -1.01070  -1.00372  -0.99955  -0.99916  -0.99644
 Alpha  occ. eigenvalues --   -0.98853  -0.97919  -0.97791  -0.97566  -0.97180
 Alpha  occ. eigenvalues --   -0.95834  -0.95121  -0.95090  -0.93178  -0.92490
 Alpha  occ. eigenvalues --   -0.91133  -0.90678  -0.90408  -0.90232  -0.90143
 Alpha  occ. eigenvalues --   -0.90040  -0.89354  -0.89209  -0.88634  -0.88304
 Alpha  occ. eigenvalues --   -0.86829  -0.86648  -0.85618  -0.85239  -0.84847
 Alpha  occ. eigenvalues --   -0.82267  -0.82064  -0.81430  -0.80532  -0.77762
 Alpha  occ. eigenvalues --   -0.77143  -0.76957  -0.76514  -0.75991  -0.75972
 Alpha  occ. eigenvalues --   -0.75189  -0.74861  -0.74779  -0.73428  -0.73275
 Alpha  occ. eigenvalues --   -0.71823  -0.71250  -0.70697  -0.69829  -0.69201
 Alpha  occ. eigenvalues --   -0.68397  -0.68205  -0.67815  -0.67245  -0.67008
 Alpha  occ. eigenvalues --   -0.65514  -0.64503  -0.64385  -0.64124  -0.63548
 Alpha  occ. eigenvalues --   -0.63142  -0.62863  -0.62049  -0.61756  -0.61132
 Alpha  occ. eigenvalues --   -0.60808  -0.59714  -0.59447  -0.59153  -0.58850
 Alpha  occ. eigenvalues --   -0.58203  -0.57655  -0.57170  -0.57014  -0.56840
 Alpha  occ. eigenvalues --   -0.56811  -0.56259  -0.55632  -0.55144  -0.55057
 Alpha  occ. eigenvalues --   -0.54892  -0.54829  -0.54066  -0.53741  -0.53429
 Alpha  occ. eigenvalues --   -0.53257  -0.52942  -0.52413  -0.52090  -0.52027
 Alpha  occ. eigenvalues --   -0.52007  -0.51636  -0.51356  -0.51062  -0.50793
 Alpha  occ. eigenvalues --   -0.50390  -0.49851  -0.49652  -0.49558  -0.49004
 Alpha  occ. eigenvalues --   -0.48603  -0.48367  -0.48108  -0.47840  -0.47473
 Alpha  occ. eigenvalues --   -0.47327  -0.47274  -0.47135  -0.46949  -0.46803
 Alpha  occ. eigenvalues --   -0.46168  -0.46039  -0.45869  -0.45606  -0.45468
 Alpha  occ. eigenvalues --   -0.45128  -0.45029  -0.44983  -0.44575  -0.44140
 Alpha  occ. eigenvalues --   -0.43960  -0.43584  -0.43387  -0.43316  -0.43234
 Alpha  occ. eigenvalues --   -0.42900  -0.42797  -0.42649  -0.42544  -0.42396
 Alpha  occ. eigenvalues --   -0.42251  -0.42108  -0.42035  -0.42017  -0.41828
 Alpha  occ. eigenvalues --   -0.41669  -0.41494  -0.41326  -0.41308  -0.41113
 Alpha  occ. eigenvalues --   -0.40869  -0.40798  -0.40630  -0.40155  -0.39994
 Alpha  occ. eigenvalues --   -0.39898  -0.39801  -0.39675  -0.39643  -0.39561
 Alpha  occ. eigenvalues --   -0.39411  -0.39132  -0.39104  -0.39033  -0.38845
 Alpha  occ. eigenvalues --   -0.38806  -0.38627  -0.38534  -0.38515  -0.38400
 Alpha  occ. eigenvalues --   -0.38298  -0.38143  -0.38060  -0.37843  -0.37581
 Alpha  occ. eigenvalues --   -0.37553  -0.37531  -0.37369  -0.37294  -0.37236
 Alpha  occ. eigenvalues --   -0.37197  -0.36869  -0.36602  -0.36512  -0.36138
 Alpha  occ. eigenvalues --   -0.35999  -0.35878  -0.35733  -0.35453  -0.35269
 Alpha  occ. eigenvalues --   -0.35205  -0.35086  -0.34974  -0.34732  -0.34525
 Alpha  occ. eigenvalues --   -0.34455  -0.34049  -0.33923  -0.33809  -0.33763
 Alpha  occ. eigenvalues --   -0.33501  -0.33062  -0.32943  -0.32357  -0.32293
 Alpha  occ. eigenvalues --   -0.32215  -0.32065  -0.31918  -0.31819  -0.31682
 Alpha  occ. eigenvalues --   -0.31469  -0.31426  -0.31363  -0.31114  -0.30556
 Alpha  occ. eigenvalues --   -0.30079  -0.29508  -0.29466  -0.28783  -0.28522
 Alpha  occ. eigenvalues --   -0.28230  -0.27875  -0.26957  -0.26804  -0.26428
 Alpha  occ. eigenvalues --   -0.26322  -0.26242  -0.25877  -0.25526  -0.25255
 Alpha  occ. eigenvalues --   -0.24803  -0.24556  -0.24309  -0.24235  -0.23837
 Alpha  occ. eigenvalues --   -0.23233  -0.23185  -0.23027  -0.22406  -0.22384
 Alpha  occ. eigenvalues --   -0.22248  -0.22130  -0.22034  -0.21728  -0.21541
 Alpha  occ. eigenvalues --   -0.21301  -0.21238  -0.21119  -0.20145  -0.19861
 Alpha  occ. eigenvalues --   -0.19582  -0.19554  -0.19277  -0.18943  -0.18382
 Alpha  occ. eigenvalues --   -0.18048  -0.17918  -0.15771
 Alpha virt. eigenvalues --   -0.12057  -0.05996  -0.05490  -0.01985  -0.01157
 Alpha virt. eigenvalues --   -0.00611   0.00532   0.00852   0.00951   0.01364
 Alpha virt. eigenvalues --    0.01513   0.01796   0.01914   0.02676   0.03021

 Mulliken charges:
               1
     1  C    0.029283
     2  C    0.031563
     3  O   -0.283100
     4  H    0.039353
     5  H    0.011498
     6  H    0.024980
     7  N   -0.120729
     8  C    0.061399
     9  C    0.076231
    10  O   -0.301845
    11  C    0.106583
    12  C    0.139778
    13  O   -0.460645
    14  O   -0.379342
    15  H    0.116315
    16  H    0.058851
    17  H   -0.013719
    18  H   -0.010897
    19  N   -0.121474
    20  C    0.124229
    21  C    0.049069
    22  O   -0.287898
    23  C    0.091125
    24  C   -0.070326
    25  C    0.025400
    26  C   -0.037493
    27  N    0.101268
    28  H    0.146416
    29  H    0.001135
    30  H    0.005041
    31  H    0.022080
    32  H   -0.002479
    33  H    0.040654
    34  H    0.041524
    35  H    0.012963
    36  H    0.077733
    37  H    0.082075
    38  H    0.200133
    39  H    0.191815
    40  H    0.197079
    41  N   -0.139519
    42  C    0.105695
    43  C    0.041048
    44  O   -0.272078
    45  C    0.109226
    46  C    0.111016
    47  O   -0.409915
    48  O   -0.423647
    49  H    0.124622
    50  H   -0.001327
    51  H   -0.014821
    52  H    0.008703
    53  N   -0.160026
    54  C    0.241578
    55  C    0.052045
    56  O   -0.316797
    57  H    0.146729
    58  H    0.004707
    59  H    0.033322
    60  N   -0.150852
    61  C    0.153171
    62  C    0.047935
    63  O   -0.307622
    64  C    0.070423
    65  C    0.088437
    66  N   -0.045191
    67  O   -0.361912
    68  H    0.159463
    69  H    0.020570
    70  H    0.071330
    71  H   -0.003531
    72  H    0.131888
    73  H    0.130640
    74  N   -0.147315
    75  C    0.196467
    76  C    0.052526
    77  O   -0.298661
    78  H    0.157380
    79  H    0.017517
    80  H    0.028499
    81  N   -0.136739
    82  C    0.123413
    83  C    0.164506
    84  O   -0.339874
    85  C    0.109040
    86  C    0.003601
    87  C    0.010066
    88  C    0.007882
    89  C   -0.018193
    90  C   -0.035142
    91  C    0.170781
    92  O   -0.190123
    93  H    0.160655
    94  H   -0.013908
    95  H   -0.021495
    96  H   -0.040093
    97  H   -0.036483
    98  H   -0.047611
    99  H   -0.032035
   100  H   -0.031453
   101  H    0.170214
   102  N   -0.126240
   103  C    0.089176
   104  C    0.067785
   105  O   -0.280527
   106  C   -0.037312
   107  C    0.004206
   108  C    0.022832
   109  C    0.032228
   110  H    0.132309
   111  H    0.020675
   112  H   -0.014256
   113  H   -0.013633
   114  H    0.003299
   115  H    0.036466
   116  H    0.018751
   117  H    0.004714
   118  H    0.005612
   119  H    0.005932
   120  H    0.008079
   121  N   -0.118104
   122  C    0.052426
   123  C    0.109265
   124  O   -0.297630
   125  C    0.288684
   126  O   -0.346454
   127  H    0.141514
   128  H    0.001216
   129  H   -0.002449
   130  H   -0.017054
   131  H    0.161669
   132  N   -0.108957
   133  C    0.078205
   134  C    0.064679
   135  O   -0.255007
   136  C    0.044358
   137  H    0.114905
   138  H    0.014594
   139  H    0.013820
   140  H    0.045816
   141  H    0.013767
   142  N   -0.153377
   143  C    0.083107
   144  C    0.074743
   145  O   -0.286450
   146  C    0.044581
   147  H    0.121611
   148  H    0.012559
   149  H    0.037204
   150  H    0.031044
   151  H    0.011710
   152  N   -0.166526
   153  C    0.155405
   154  C    0.039325
   155  O   -0.286316
   156  C   -0.031859
   157  C    0.137851
   158  C    0.134795
   159  O   -0.462275
   160  O   -0.379242
   161  H    0.139929
   162  H   -0.002417
   163  H    0.035364
   164  H   -0.001159
   165  H   -0.022407
   166  H   -0.017269
   167  N   -0.146302
   168  C    0.155578
   169  H    0.026125
   170  H    0.012310
   171  H    0.008684
   172  H    0.110642
   173  Ca   1.285159
   174  O   -0.272210
   175  H    0.181720
   176  H    0.164644
 Sum of Mulliken charges =  -0.00000

 Dipole moment (field-independent basis, Debye):
    X=             21.9176    Y=             31.4226    Z=             -9.8613  Tot=             39.5602
 Quadrupole moment (field-independent basis, Debye-Ang):
   XX=           -740.8715   YY=            -83.7868   ZZ=           -506.6524
   XY=             14.6090   XZ=             -9.5490   YZ=             29.7503

 ESP charges:
               1
     1  C   -0.453899
     2  C    0.792406
     3  O   -0.617999
     4  H    0.134863
     5  H    0.095197
     6  H    0.117647
     7  N   -0.792927
     8  C    0.292636
     9  C    0.659351
    10  O   -0.545165
    11  C   -0.334635
    12  C    0.778612
    13  O   -0.954490
    14  O   -0.697893
    15  H    0.363178
    16  H    0.202741
    17  H    0.075121
    18  H    0.083130
    19  N   -0.556347
    20  C    0.029342
    21  C    0.469495
    22  O   -0.575830
    23  C    0.044682
    24  C    0.069362
    25  C   -0.129307
    26  C    0.207198
    27  N   -0.621848
    28  H    0.291620
    29  H    0.090230
    30  H   -0.004775
    31  H    0.043243
    32  H   -0.025442
    33  H    0.025982
    34  H    0.054405
    35  H    0.028926
    36  H    0.066499
    37  H    0.048908
    38  H    0.401357
    39  H    0.382747
    40  H    0.396885
    41  N   -0.235629
    42  C   -0.095189
    43  C    0.464334
    44  O   -0.545406
    45  C   -0.317085
    46  C    0.787190
    47  O   -0.657889
    48  O   -0.774089
    49  H    0.199488
    50  H    0.123760
    51  H    0.087032
    52  H    0.096915
    53  N   -0.154909
    54  C   -0.193519
    55  C    0.629015
    56  O   -0.595563
    57  H    0.172943
    58  H    0.098659
    59  H    0.131995
    60  N   -0.451329
    61  C    0.039099
    62  C    0.359150
    63  O   -0.526785
    64  C   -0.291718
    65  C    0.903414
    66  N   -0.887289
    67  O   -0.869459
    68  H    0.373752
    69  H    0.124994
    70  H    0.140754
    71  H    0.061683
    72  H    0.391597
    73  H    0.403650
    74  N   -0.093385
    75  C   -0.307503
    76  C    0.671652
    77  O   -0.547399
    78  H    0.263826
    79  H    0.129050
    80  H    0.114073
    81  N   -0.674564
    82  C    0.203414
    83  C    0.542717
    84  O   -0.544758
    85  C    0.162539
    86  C    0.018626
    87  C   -0.180929
    88  C   -0.316911
    89  C   -0.168966
    90  C   -0.071769
    91  C    0.230767
    92  O   -0.507017
    93  H    0.476572
    94  H    0.020711
    95  H   -0.031158
    96  H   -0.061707
    97  H    0.136625
    98  H    0.179841
    99  H    0.137610
   100  H    0.086844
   101  H    0.393119
   102  N   -0.569377
   103  C   -0.311023
   104  C    0.706342
   105  O   -0.564505
   106  C    0.257091
   107  C    0.088149
   108  C   -0.346893
   109  C   -0.229716
   110  H    0.360223
   111  H    0.210324
   112  H   -0.014931
   113  H   -0.027295
   114  H    0.025956
   115  H    0.090132
   116  H    0.080719
   117  H    0.085996
   118  H    0.034246
   119  H    0.054458
   120  H    0.074730
   121  N   -0.503477
   122  C   -0.085530
   123  C    0.691979
   124  O   -0.559127
   125  C    0.288748
   126  O   -0.677785
   127  H    0.517341
   128  H    0.035132
   129  H   -0.001997
   130  H   -0.003468
   131  H    0.475096
   132  N   -0.615769
   133  C    0.300666
   134  C    0.540026
   135  O   -0.564956
   136  C   -0.296819
   137  H    0.322955
   138  H    0.026668
   139  H    0.059807
   140  H    0.099833
   141  H    0.083549
   142  N   -0.535232
   143  C    0.268597
   144  C    0.180583
   145  O   -0.504691
   146  C   -0.345688
   147  H    0.299383
   148  H    0.063272
   149  H    0.089667
   150  H    0.110991
   151  H    0.096270
   152  N    0.388762
   153  C   -0.606421
   154  C    0.548267
   155  O   -0.545614
   156  C    0.455672
   157  C   -0.322545
   158  C    1.198193
   159  O   -1.097690
   160  O   -0.980119
   161  H   -0.026492
   162  H    0.202465
   163  H    0.025947
   164  H   -0.257692
   165  H    0.020091
   166  H    0.047289
   167  N   -0.172215
   168  C   -0.252361
   169  H    0.122712
   170  H    0.083088
   171  H    0.102045
   172  H    0.218343
   173  Ca   1.834319
   174  O   -0.899158
   175  H    0.450442
   176  H    0.411325
 Sum of ESP charges =   0.00000

 Normal termination of Gaussian 16 at Sun Sep 15 00:51:41 2019.
