 Gaussian 16, Revision A.03,
 Gaussian 16:  ES64L-G16RevA.03 25-Dec-2016

 ----------------------------------------------------------------------
 #b3lyp/svp scf=(tight,noincore) Test #IOP(5/87=12) Density=Current Pop
 =(MK,readradii) iop(6/33=2) iop(6/42=6)
 ----------------------------------------------------------------------

 ------------------
 CaMKII_loop3_111.0
 ------------------
 Symbolic Z-matrix:
 Charge =  0 Multiplicity = 1

                         Standard orientation:
 ---------------------------------------------------------------------
 Center     Atomic      Atomic             Coordinates (Angstroms)
 Number     Number       Type             X           Y           Z
 ---------------------------------------------------------------------
      1          6           0        2.868081    1.187734    5.709582
      2          6           0        2.223580    1.236530    4.327939
      3          8           0        2.890243    0.792252    3.385985
      4          1           0        2.257556    1.751481    6.415418
      5          1           0        2.941710    0.152115    6.040871
      6          1           0        3.865125    1.625016    5.661966
      7          7           0        0.956205    1.618077    4.203915
      8          6           0        0.254401    1.832025    2.953196
      9          6           0        0.501684    3.197591    2.347077
     10          8           0       -0.030080    4.164381    2.874563
     11          6           0       -1.236404    1.530084    3.059658
     12          6           0       -1.999522    1.641403    1.748872
     13          8           0       -3.240176    1.483178    1.797280
     14          8           0       -1.458785    1.788432    0.636044
     15          1           0        0.465435    1.926920    5.036237
     16          1           0        0.721519    1.099866    2.293920
     17          1           0       -1.682084    2.266304    3.730067
     18          1           0       -1.429262    0.625293    3.635383
     19          7           0        1.233606    3.299380    1.232927
     20          6           0        1.595553    4.503064    0.509990
     21          6           0        0.607703    5.183242   -0.422914
     22          8           0        0.405504    6.384797   -0.283335
     23          6           0        2.994155    4.328072   -0.089253
     24          6           0        3.713860    5.679409   -0.117777
     25          6           0        5.111006    5.413482   -0.690023
     26          6           0        5.979543    6.670200   -0.692158
     27          7           0        5.639944    7.575014   -1.796551
     28          1           0        1.548429    2.414827    0.859627
     29          1           0        1.754398    5.201148    1.332697
     30          1           0        2.996616    3.917159   -1.102783
     31          1           0        3.601295    3.739578    0.591156
     32          1           0        3.649858    6.019812    0.914225
     33          1           0        3.202624    6.465798   -0.659839
     34          1           0        5.050821    4.995999   -1.688314
     35          1           0        5.577138    4.693650   -0.022518
     36          1           0        7.030298    6.463743   -0.897556
     37          1           0        5.898954    7.127278    0.302269
     38          1           0        5.967795    7.137396   -2.645435
     39          1           0        4.684734    7.815669   -2.030130
     40          1           0        6.243324    8.385632   -1.808004
     41          7           0       -0.083560    4.401764   -1.258884
     42          6           0       -1.234212    4.941519   -1.943841
     43          6           0       -2.516639    5.015346   -1.127184
     44          8           0       -3.437626    5.685915   -1.592501
     45          6           0       -1.338854    4.233574   -3.289487
     46          6           0       -1.548661    2.734629   -3.138017
     47          8           0       -2.504349    2.390399   -2.411747
     48          8           0       -0.819670    1.855576   -3.637154
     49          1           0        0.070848    3.401271   -1.272011
     50          1           0       -0.940242    5.975734   -2.159670
     51          1           0       -0.423285    4.458156   -3.831977
     52          1           0       -2.179746    4.704606   -3.800299
     53          7           0       -2.592875    4.447908    0.079962
     54          6           0       -3.711539    4.507877    0.999525
     55          6           0       -4.992094    3.840571    0.520065
     56          8           0       -6.073345    4.295723    0.891055
     57          1           0       -1.681162    4.111003    0.342592
     58          1           0       -3.915391    5.558375    1.152489
     59          1           0       -3.476853    4.170429    2.009104
     60          7           0       -4.933352    2.857495   -0.384098
     61          6           0       -6.044358    2.080765   -0.889624
     62          6           0       -6.649798    1.104320    0.111475
     63          8           0       -7.703187    0.559405   -0.221303
     64          6           0       -5.795406    1.352169   -2.207983
     65          6           0       -4.878708    0.127664   -2.241902
     66          7           0       -4.828816   -0.493745   -3.413679
     67          8           0       -4.219385   -0.327067   -1.315558
     68          1           0       -3.997417    2.713756   -0.732614
     69          1           0       -6.866768    2.761524   -1.063430
     70          1           0       -5.314940    2.015456   -2.926038
     71          1           0       -6.762435    1.057069   -2.609569
     72          1           0       -5.562116   -0.380502   -4.108911
     73          1           0       -4.377778   -1.397913   -3.386403
     74          7           0       -6.006908    0.865427    1.260179
     75          6           0       -6.363103   -0.191731    2.188048
     76          6           0       -5.577478   -1.483662    2.071826
     77          8           0       -6.037633   -2.485050    2.622624
     78          1           0       -5.109247    1.311564    1.362974
     79          1           0       -7.425888   -0.435712    2.149804
     80          1           0       -6.188394    0.172170    3.200941
     81          7           0       -4.515879   -1.556038    1.266674
     82          6           0       -3.701781   -2.758810    1.233758
     83          6           0       -2.267023   -2.260905    1.217612
     84          8           0       -1.906238   -1.510195    0.320857
     85          6           0       -3.963612   -3.506615   -0.073121
     86          6           0       -5.363183   -3.883150   -0.483392
     87          6           0       -6.127339   -4.664878    0.401971
     88          6           0       -5.680501   -3.818303   -1.845193
     89          6           0       -7.335698   -5.178893   -0.101772
     90          6           0       -6.880964   -4.336653   -2.344594
     91          6           0       -7.705479   -5.031209   -1.446671
     92          8           0       -8.918877   -5.523031   -1.850004
     93          1           0       -4.154841   -0.775425    0.744760
     94          1           0       -3.858437   -3.378236    2.120702
     95          1           0       -3.306280   -4.372751   -0.106642
     96          1           0       -3.670795   -2.876587   -0.920719
     97          1           0       -5.830518   -4.751450    1.433912
     98          1           0       -4.991515   -3.390304   -2.555556
     99          1           0       -7.881138   -5.704810    0.664326
    100          1           0       -7.206993   -4.411308   -3.369256
    101          1           0       -9.446087   -5.869126   -1.121741
    102          7           0       -1.344774   -2.896251    1.946098
    103          6           0        0.091743   -2.814893    1.764165
    104          6           0        0.652293   -3.802725    0.748796
    105          8           0        0.430113   -5.006945    0.825541
    106          6           0        0.735811   -3.094745    3.123157
    107          6           0        0.296413   -2.050202    4.136054
    108          6           0        2.254978   -3.036078    3.113717
    109          6           0        0.411630   -2.579775    5.562545
    110          1           0       -1.597906   -3.637688    2.587266
    111          1           0        0.377322   -1.827328    1.401866
    112          1           0        0.322526   -4.027692    3.495857
    113          1           0       -0.768948   -1.827243    4.085104
    114          1           0        0.831780   -1.126995    3.900106
    115          1           0        2.721364   -3.641663    2.328828
    116          1           0        2.482138   -2.022473    2.791532
    117          1           0        2.800012   -3.266293    4.034499
    118          1           0       -0.149809   -3.514459    5.673239
    119          1           0        1.461382   -2.787140    5.772596
    120          1           0        0.054944   -1.892257    6.321882
    121          7           0        1.550918   -3.272262   -0.079262
    122          6           0        2.257225   -4.137399   -1.006876
    123          6           0        3.756218   -4.047571   -0.764280
    124          8           0        4.209768   -3.138831   -0.082896
    125          6           0        2.016157   -3.690522   -2.448294
    126          8           0        2.487993   -2.393570   -2.725220
    127          1           0        1.759370   -2.282002   -0.114385
    128          1           0        1.963546   -5.185162   -0.966308
    129          1           0        0.982102   -3.771062   -2.790119
    130          1           0        2.604786   -4.356535   -3.078248
    131          1           0        1.811617   -1.851095   -2.312381
    132          7           0        4.559942   -5.002591   -1.244869
    133          6           0        6.009884   -5.095416   -1.164543
    134          6           0        6.692359   -3.739470   -1.212885
    135          8           0        7.497054   -3.441567   -0.329075
    136          6           0        6.461255   -6.206437   -2.104382
    137          1           0        4.082600   -5.679213   -1.812431
    138          1           0        6.275794   -5.459641   -0.169389
    139          1           0        6.026646   -7.159505   -1.782085
    140          1           0        6.126656   -5.981760   -3.113968
    141          1           0        7.539413   -6.148983   -2.234279
    142          7           0        6.457933   -2.974836   -2.280022
    143          6           0        7.126465   -1.751944   -2.666154
    144          6           0        6.749553   -0.650142   -1.686680
    145          8           0        7.360204    0.416506   -1.616921
    146          6           0        6.805814   -1.349836   -4.099679
    147          1           0        5.811766   -3.324527   -2.974128
    148          1           0        8.192073   -1.949409   -2.544141
    149          1           0        7.483153   -0.603834   -4.517402
    150          1           0        6.861677   -2.254118   -4.712665
    151          1           0        5.756395   -1.040797   -4.185785
    152          7           0        5.684126   -0.838624   -0.904733
    153          6           0        5.229582    0.011835    0.172212
    154          6           0        5.944107   -0.341964    1.467426
    155          8           0        6.453403    0.529801    2.171730
    156          6           0        3.710699    0.089472    0.248143
    157          6           0        3.000996    0.656248   -0.981364
    158          6           0        1.500533    0.422286   -1.042788
    159          8           0        0.697630    1.371291   -1.145434
    160          8           0        0.965807   -0.708088   -1.037885
    161          1           0        5.112980   -1.670699   -1.019377
    162          1           0        5.601926    1.025378    0.046550
    163          1           0        3.654521    0.751051    1.102987
    164          1           0        3.434117   -0.970780    0.314240
    165          1           0        3.487353    0.109231   -1.790147
    166          1           0        3.200622    1.717295   -1.160053
    167          7           0        6.073665   -1.628161    1.812985
    168          6           0        6.750317   -2.123088    2.990096
    169          1           0        6.313560   -1.666752    3.878377
    170          1           0        6.638081   -3.206220    3.045395
    171          1           0        7.808721   -1.868837    2.936018
    172          1           0        5.641561   -2.329787    1.230313
    173         20           0       -1.489034    0.197039   -1.473660
    174          8           0       -1.236295   -1.435809   -3.448459
    175          1           0       -0.975567   -1.589608   -4.352487
    176          1           0       -1.593734   -2.276350   -3.154132
 ---------------------------------------------------------------------

 SCF Done:  E(RB3LYP) =  -5333.59390136     A.U. after   20 cycles

 The electronic state is 1-A.
 Alpha  occ. eigenvalues -- -145.34765 -19.19438 -19.14604 -19.13473 -19.13342
 Alpha  occ. eigenvalues --  -19.12017 -19.11354 -19.10918 -19.09566 -19.08508
 Alpha  occ. eigenvalues --  -19.08021 -19.07914 -19.07590 -19.07137 -19.07082
 Alpha  occ. eigenvalues --  -19.05661 -19.05587 -19.04130 -19.03764 -19.03397
 Alpha  occ. eigenvalues --  -19.03365 -19.03351 -19.02716 -19.01867 -15.40538
 Alpha  occ. eigenvalues --  -14.58761 -14.39196 -14.37285 -14.36904 -14.35862
 Alpha  occ. eigenvalues --  -14.35152 -14.34871 -14.33372 -14.33004 -14.32450
 Alpha  occ. eigenvalues --  -14.31780 -14.31309 -14.29545 -14.29545 -14.28810
 Alpha  occ. eigenvalues --  -12.54131 -12.54120 -12.54106 -10.35116 -10.31582
 Alpha  occ. eigenvalues --  -10.30031 -10.30022 -10.29546 -10.27977 -10.27279
 Alpha  occ. eigenvalues --  -10.27029 -10.26971 -10.26766 -10.26339 -10.26065
 Alpha  occ. eigenvalues --  -10.25755 -10.25464 -10.24928 -10.24539 -10.24365
 Alpha  occ. eigenvalues --  -10.24327 -10.23696 -10.23475 -10.22842 -10.22842
 Alpha  occ. eigenvalues --  -10.22821 -10.22802 -10.22664 -10.22559 -10.22548
 Alpha  occ. eigenvalues --  -10.22418 -10.21969 -10.21353 -10.20939 -10.20847
 Alpha  occ. eigenvalues --  -10.20327 -10.19299 -10.19263 -10.19174 -10.18999
 Alpha  occ. eigenvalues --  -10.18437 -10.18416 -10.18325 -10.18237 -10.18041
 Alpha  occ. eigenvalues --  -10.17786 -10.17671 -10.17571 -10.17260 -10.17221
 Alpha  occ. eigenvalues --  -10.17208 -10.17192 -10.17181 -10.17031 -10.16665
 Alpha  occ. eigenvalues --  -10.16039 -10.14982  -1.77558  -1.14258  -1.07119
 Alpha  occ. eigenvalues --   -1.06130  -1.05849  -1.05700  -1.04608  -1.04396
 Alpha  occ. eigenvalues --   -1.04324  -1.03841  -1.03172  -1.02994  -1.02736
 Alpha  occ. eigenvalues --   -1.02151  -1.01334  -1.00930  -1.00825  -1.00108
 Alpha  occ. eigenvalues --   -0.98974  -0.98871  -0.98501  -0.97894  -0.97149
 Alpha  occ. eigenvalues --   -0.96639  -0.96086  -0.95570  -0.94202  -0.93426
 Alpha  occ. eigenvalues --   -0.92323  -0.91811  -0.91064  -0.91008  -0.90784
 Alpha  occ. eigenvalues --   -0.90002  -0.89641  -0.89262  -0.88791  -0.88003
 Alpha  occ. eigenvalues --   -0.87322  -0.87276  -0.86782  -0.86062  -0.85196
 Alpha  occ. eigenvalues --   -0.83505  -0.82380  -0.82128  -0.81499  -0.78857
 Alpha  occ. eigenvalues --   -0.77692  -0.77365  -0.77178  -0.77092  -0.75711
 Alpha  occ. eigenvalues --   -0.75399  -0.74141  -0.74008  -0.73033  -0.72335
 Alpha  occ. eigenvalues --   -0.71999  -0.71662  -0.71420  -0.71169  -0.69759
 Alpha  occ. eigenvalues --   -0.69445  -0.69029  -0.68393  -0.68103  -0.67422
 Alpha  occ. eigenvalues --   -0.66624  -0.65899  -0.64959  -0.64260  -0.64120
 Alpha  occ. eigenvalues --   -0.63743  -0.63617  -0.62177  -0.62064  -0.61401
 Alpha  occ. eigenvalues --   -0.61341  -0.60765  -0.60551  -0.60124  -0.59313
 Alpha  occ. eigenvalues --   -0.58992  -0.58864  -0.58710  -0.58123  -0.57686
 Alpha  occ. eigenvalues --   -0.57156  -0.57057  -0.56635  -0.56446  -0.56081
 Alpha  occ. eigenvalues --   -0.54731  -0.54715  -0.54539  -0.54373  -0.54124
 Alpha  occ. eigenvalues --   -0.53817  -0.53660  -0.53619  -0.53358  -0.52732
 Alpha  occ. eigenvalues --   -0.52468  -0.52246  -0.51998  -0.51604  -0.51317
 Alpha  occ. eigenvalues --   -0.50575  -0.50135  -0.49755  -0.49612  -0.49470
 Alpha  occ. eigenvalues --   -0.49377  -0.48967  -0.48688  -0.48251  -0.48121
 Alpha  occ. eigenvalues --   -0.47865  -0.47805  -0.47531  -0.47470  -0.47181
 Alpha  occ. eigenvalues --   -0.46994  -0.46892  -0.46593  -0.46347  -0.46242
 Alpha  occ. eigenvalues --   -0.45929  -0.45798  -0.45765  -0.45360  -0.45166
 Alpha  occ. eigenvalues --   -0.44959  -0.44518  -0.44463  -0.44340  -0.44122
 Alpha  occ. eigenvalues --   -0.44018  -0.43977  -0.43795  -0.43646  -0.43598
 Alpha  occ. eigenvalues --   -0.43395  -0.43085  -0.42971  -0.42762  -0.42513
 Alpha  occ. eigenvalues --   -0.42214  -0.42098  -0.41991  -0.41844  -0.41649
 Alpha  occ. eigenvalues --   -0.41621  -0.41482  -0.41381  -0.41289  -0.41154
 Alpha  occ. eigenvalues --   -0.40904  -0.40804  -0.40660  -0.40332  -0.40254
 Alpha  occ. eigenvalues --   -0.40105  -0.40030  -0.39961  -0.39725  -0.39650
 Alpha  occ. eigenvalues --   -0.39562  -0.39381  -0.39233  -0.39035  -0.38847
 Alpha  occ. eigenvalues --   -0.38777  -0.38690  -0.38596  -0.38505  -0.38381
 Alpha  occ. eigenvalues --   -0.38319  -0.38106  -0.38011  -0.37873  -0.37562
 Alpha  occ. eigenvalues --   -0.37456  -0.37382  -0.37158  -0.37128  -0.37031
 Alpha  occ. eigenvalues --   -0.36945  -0.36865  -0.36710  -0.36532  -0.36430
 Alpha  occ. eigenvalues --   -0.35876  -0.35739  -0.35642  -0.35565  -0.35137
 Alpha  occ. eigenvalues --   -0.35058  -0.34966  -0.34846  -0.34755  -0.34449
 Alpha  occ. eigenvalues --   -0.33948  -0.33763  -0.33623  -0.33529  -0.33319
 Alpha  occ. eigenvalues --   -0.33154  -0.32999  -0.32654  -0.32314  -0.32120
 Alpha  occ. eigenvalues --   -0.32052  -0.31894  -0.31703  -0.31329  -0.31238
 Alpha  occ. eigenvalues --   -0.31042  -0.30811  -0.30017  -0.29979  -0.29519
 Alpha  occ. eigenvalues --   -0.29019  -0.28733  -0.28707  -0.28441  -0.28051
 Alpha  occ. eigenvalues --   -0.27251  -0.26744  -0.26710  -0.26535  -0.26035
 Alpha  occ. eigenvalues --   -0.25834  -0.25250  -0.25080  -0.24861  -0.24851
 Alpha  occ. eigenvalues --   -0.24406  -0.23763  -0.23512  -0.23366  -0.23197
 Alpha  occ. eigenvalues --   -0.22937  -0.22683  -0.22389  -0.22208  -0.22103
 Alpha  occ. eigenvalues --   -0.21856  -0.21622  -0.21075  -0.20915  -0.20814
 Alpha  occ. eigenvalues --   -0.20710  -0.20207  -0.19666  -0.19190  -0.18935
 Alpha  occ. eigenvalues --   -0.18530  -0.18255  -0.17424
 Alpha virt. eigenvalues --   -0.10757  -0.05114  -0.04303  -0.02788  -0.01461
 Alpha virt. eigenvalues --   -0.00600  -0.00391  -0.00192  -0.00142   0.00456
 Alpha virt. eigenvalues --    0.01129   0.01457   0.01943   0.02090   0.02450

 Mulliken charges:
               1
     1  C    0.073110
     2  C    0.027957
     3  O   -0.297114
     4  H   -0.011028
     5  H    0.039723
     6  H    0.044777
     7  N   -0.127314
     8  C    0.124227
     9  C    0.053258
    10  O   -0.285674
    11  C    0.074116
    12  C    0.139329
    13  O   -0.389164
    14  O   -0.432275
    15  H    0.120583
    16  H   -0.013408
    17  H    0.004375
    18  H   -0.004364
    19  N   -0.113110
    20  C    0.174748
    21  C    0.059868
    22  O   -0.279239
    23  C   -0.013673
    24  C   -0.034721
    25  C   -0.014971
    26  C    0.064725
    27  N    0.074874
    28  H    0.145053
    29  H   -0.006895
    30  H    0.042823
    31  H    0.028384
    32  H    0.017850
    33  H   -0.014668
    34  H    0.021533
    35  H    0.069036
    36  H    0.058047
    37  H    0.087162
    38  H    0.176470
    39  H    0.195207
    40  H    0.186386
    41  N   -0.182860
    42  C    0.087244
    43  C    0.067922
    44  O   -0.297219
    45  C    0.156036
    46  C    0.065112
    47  O   -0.440703
    48  O   -0.378436
    49  H    0.164096
    50  H    0.008702
    51  H   -0.036158
    52  H    0.015681
    53  N   -0.148836
    54  C    0.269590
    55  C    0.013422
    56  O   -0.298344
    57  H    0.141284
    58  H    0.003132
    59  H    0.033812
    60  N   -0.151170
    61  C    0.194453
    62  C    0.030302
    63  O   -0.303168
    64  C    0.027088
    65  C    0.078167
    66  N   -0.036872
    67  O   -0.331417
    68  H    0.153378
    69  H    0.013463
    70  H    0.054337
    71  H    0.035526
    72  H    0.130385
    73  H    0.098587
    74  N   -0.153368
    75  C    0.244530
    76  C    0.031720
    77  O   -0.318229
    78  H    0.151771
    79  H    0.035906
    80  H    0.018327
    81  N   -0.140935
    82  C    0.114434
    83  C    0.147847
    84  O   -0.384655
    85  C    0.141915
    86  C    0.009152
    87  C    0.012493
    88  C    0.008133
    89  C   -0.051294
    90  C   -0.003015
    91  C    0.175529
    92  O   -0.212787
    93  H    0.156943
    94  H    0.003142
    95  H    0.003957
    96  H   -0.050641
    97  H   -0.008311
    98  H   -0.079747
    99  H   -0.040982
   100  H   -0.033584
   101  H    0.176917
   102  N   -0.099270
   103  C    0.140034
   104  C    0.083304
   105  O   -0.289982
   106  C   -0.112469
   107  C   -0.009406
   108  C    0.056516
   109  C    0.043806
   110  H    0.133081
   111  H    0.013340
   112  H   -0.021923
   113  H   -0.005120
   114  H    0.022388
   115  H    0.004591
   116  H    0.024903
   117  H    0.013387
   118  H    0.000826
   119  H   -0.004315
   120  H    0.004626
   121  N   -0.133211
   122  C    0.072917
   123  C    0.088403
   124  O   -0.291679
   125  C    0.268316
   126  O   -0.336680
   127  H    0.155703
   128  H    0.018818
   129  H   -0.015270
   130  H   -0.042587
   131  H    0.164832
   132  N   -0.100876
   133  C    0.102266
   134  C    0.030545
   135  O   -0.249838
   136  C    0.042916
   137  H    0.109355
   138  H    0.022020
   139  H    0.045684
   140  H   -0.005055
   141  H    0.039616
   142  N   -0.144107
   143  C    0.092311
   144  C    0.065385
   145  O   -0.295652
   146  C    0.051796
   147  H    0.111685
   148  H    0.023133
   149  H    0.043153
   150  H    0.002646
   151  H    0.025491
   152  N   -0.149644
   153  C    0.113485
   154  C    0.063445
   155  O   -0.293241
   156  C   -0.012737
   157  C    0.099827
   158  C    0.180660
   159  O   -0.400010
   160  O   -0.463977
   161  H    0.134270
   162  H   -0.027996
   163  H    0.041286
   164  H    0.022116
   165  H   -0.006759
   166  H   -0.037333
   167  N   -0.158615
   168  C    0.152563
   169  H    0.017038
   170  H    0.001930
   171  H    0.019989
   172  H    0.124885
   173  Ca   1.258048
   174  O   -0.275128
   175  H    0.197095
   176  H    0.180741
 Sum of Mulliken charges =  -0.00000

 Dipole moment (field-independent basis, Debye):
    X=             29.8479    Y=              3.2038    Z=            -13.6066  Tot=             32.9590
 Quadrupole moment (field-independent basis, Debye-Ang):
   XX=           -589.4671   YY=           -388.6686   ZZ=           -503.3635
   XY=            196.6796   XZ=            -48.5440   YZ=            -21.2571

 ESP charges:
               1
     1  C   -0.425947
     2  C    0.797182
     3  O   -0.624498
     4  H    0.070345
     5  H    0.132266
     6  H    0.137110
     7  N   -0.727220
     8  C   -0.026430
     9  C    0.715492
    10  O   -0.579599
    11  C   -0.128821
    12  C    0.728161
    13  O   -0.741416
    14  O   -0.761020
    15  H    0.381211
    16  H    0.084392
    17  H    0.068411
    18  H    0.059342
    19  N   -0.340207
    20  C   -0.173634
    21  C    0.469200
    22  O   -0.545975
    23  C   -0.021677
    24  C    0.040899
    25  C   -0.172303
    26  C    0.105810
    27  N   -0.378685
    28  H    0.129751
    29  H    0.126077
    30  H    0.054897
    31  H    0.100491
    32  H    0.033258
    33  H    0.003041
    34  H    0.066885
    35  H    0.092678
    36  H    0.062987
    37  H    0.075435
    38  H    0.326819
    39  H    0.344057
    40  H    0.321875
    41  N   -0.261977
    42  C    0.046547
    43  C    0.399254
    44  O   -0.536409
    45  C   -0.263342
    46  C    0.701853
    47  O   -0.658944
    48  O   -0.689360
    49  H    0.187421
    50  H    0.089529
    51  H    0.049300
    52  H    0.098336
    53  N   -0.097759
    54  C   -0.290095
    55  C    0.589157
    56  O   -0.582670
    57  H    0.233734
    58  H    0.119587
    59  H    0.147396
    60  N   -0.261421
    61  C   -0.058677
    62  C    0.469825
    63  O   -0.542390
    64  C   -0.214069
    65  C    0.789110
    66  N   -0.901444
    67  O   -0.566856
    68  H    0.205695
    69  H    0.126259
    70  H    0.104265
    71  H    0.074071
    72  H    0.403458
    73  H    0.360299
    74  N   -0.290742
    75  C   -0.113067
    76  C    0.610569
    77  O   -0.588056
    78  H    0.270126
    79  H    0.116296
    80  H    0.073159
    81  N   -0.537822
    82  C    0.277536
    83  C    0.528434
    84  O   -0.493766
    85  C   -0.386543
    86  C    0.402775
    87  C   -0.296117
    88  C   -0.429303
    89  C   -0.194600
    90  C   -0.070732
    91  C    0.255266
    92  O   -0.542833
    93  H    0.319201
    94  H    0.015174
    95  H    0.073706
    96  H    0.109670
    97  H    0.204972
    98  H    0.157348
    99  H    0.124454
   100  H    0.121467
   101  H    0.410578
   102  N   -0.560846
   103  C   -0.129297
   104  C    0.694888
   105  O   -0.582143
   106  C    0.147411
   107  C    0.249102
   108  C   -0.368075
   109  C   -0.349206
   110  H    0.331103
   111  H    0.138618
   112  H   -0.000460
   113  H   -0.023571
   114  H   -0.009254
   115  H    0.075723
   116  H    0.083207
   117  H    0.116257
   118  H    0.079237
   119  H    0.057897
   120  H    0.079594
   121  N   -0.460856
   122  C   -0.016536
   123  C    0.583667
   124  O   -0.413763
   125  C    0.140032
   126  O   -0.532120
   127  H    0.283915
   128  H    0.068304
   129  H    0.026010
   130  H    0.004729
   131  H    0.321126
   132  N   -0.553412
   133  C    0.243897
   134  C    0.483499
   135  O   -0.536513
   136  C   -0.429806
   137  H    0.305197
   138  H    0.052157
   139  H    0.149645
   140  H    0.084817
   141  H    0.135391
   142  N   -0.382863
   143  C    0.044895
   144  C    0.359031
   145  O   -0.542907
   146  C   -0.257671
   147  H    0.294609
   148  H    0.109956
   149  H    0.113196
   150  H    0.056768
   151  H    0.084694
   152  N    0.045139
   153  C   -0.139854
   154  C    0.509800
   155  O   -0.546832
   156  C    0.095047
   157  C   -0.228537
   158  C    0.761270
   159  O   -0.615494
   160  O   -0.645744
   161  H    0.035456
   162  H    0.048301
   163  H    0.092181
   164  H   -0.127248
   165  H    0.041063
   166  H    0.035501
   167  N   -0.150820
   168  C   -0.259132
   169  H    0.097619
   170  H    0.097882
   171  H    0.108581
   172  H    0.191584
   173  Ca   1.362725
   174  O   -0.706590
   175  H    0.429899
   176  H    0.341457
 Sum of ESP charges =   0.00000

 Normal termination of Gaussian 16 at Sat Sep 14 23:50:52 2019.
