 Gaussian 16, Revision A.03,
 Gaussian 16:  ES64L-G16RevA.03 25-Dec-2016

 ----------------------------------------------------------------------
 #b3lyp/svp scf=(tight,noincore) Test #IOP(5/87=12) Density=Current Pop
 =(MK,readradii) iop(6/33=2) iop(6/42=6)
 ----------------------------------------------------------------------

 -----------------
 CaMKII_loop3_75.0
 -----------------
 Symbolic Z-matrix:
 Charge =  0 Multiplicity = 1

                         Standard orientation:
 ---------------------------------------------------------------------
 Center     Atomic      Atomic             Coordinates (Angstroms)
 Number     Number       Type             X           Y           Z
 ---------------------------------------------------------------------
      1          6           0        2.521775    2.183960    4.855424
      2          6           0        1.652007    2.317438    3.605270
      3          8           0        2.130126    2.434409    2.482497
      4          1           0        3.430696    2.772830    4.729560
      5          1           0        1.970644    2.547684    5.722874
      6          1           0        2.785470    1.136855    5.005006
      7          7           0        0.337699    2.164212    3.757644
      8          6           0       -0.621933    2.018694    2.680365
      9          6           0       -0.792041    3.430526    2.126836
     10          8           0       -1.643480    4.187743    2.584081
     11          6           0       -1.945495    1.397533    3.124375
     12          6           0       -2.825068    1.069761    1.927623
     13          8           0       -2.285428    1.045808    0.797395
     14          8           0       -4.013246    0.722163    2.100276
     15          1           0        0.045232    1.939905    4.698999
     16          1           0       -0.245264    1.289233    1.965587
     17          1           0       -2.473069    1.980240    3.879039
     18          1           0       -1.658477    0.456722    3.599342
     19          7           0       -0.015404    3.779418    1.108941
     20          6           0        0.203986    5.132880    0.620873
     21          6           0       -1.006950    5.729705   -0.077363
     22          8           0       -1.272412    6.931503   -0.009448
     23          6           0        1.409468    5.150539   -0.321677
     24          6           0        1.810114    6.616661   -0.383889
     25          6           0        3.039764    6.610225   -1.288554
     26          6           0        3.709551    7.975641   -1.317275
     27          7           0        4.866426    7.921530   -2.216393
     28          1           0        0.582414    3.068023    0.710655
     29          1           0        0.311217    5.825866    1.457755
     30          1           0        1.153994    4.799413   -1.319046
     31          1           0        2.249235    4.709671    0.200458
     32          1           0        2.133281    7.063468    0.557241
     33          1           0        1.058704    7.257822   -0.837646
     34          1           0        2.692219    6.336705   -2.286050
     35          1           0        3.748128    5.861156   -0.920837
     36          1           0        3.992217    8.213473   -0.287889
     37          1           0        3.048011    8.762221   -1.685727
     38          1           0        4.492573    8.082081   -3.145402
     39          1           0        5.484668    8.719629   -2.100566
     40          1           0        5.318492    7.027649   -2.165285
     41          7           0       -1.855539    4.848335   -0.613910
     42          6           0       -3.056924    5.117505   -1.370893
     43          6           0       -4.328238    4.638632   -0.677034
     44          8           0       -5.451004    4.761870   -1.152019
     45          6           0       -2.841612    4.618074   -2.802504
     46          6           0       -2.543943    3.129677   -2.928066
     47          8           0       -2.269245    2.817096   -4.101878
     48          8           0       -2.404059    2.404330   -1.918658
     49          1           0       -1.562002    3.884846   -0.608882
     50          1           0       -3.173878    6.200155   -1.460296
     51          1           0       -1.990483    5.212365   -3.149630
     52          1           0       -3.760056    4.863797   -3.329933
     53          7           0       -4.160551    4.041909    0.504660
     54          6           0       -5.237154    3.713197    1.402086
     55          6           0       -6.218594    2.744901    0.755109
     56          8           0       -7.416870    2.598065    1.006457
     57          1           0       -3.221995    3.938309    0.858893
     58          1           0       -5.752247    4.648749    1.639406
     59          1           0       -4.878672    3.230285    2.315369
     60          7           0       -5.702068    1.906603   -0.141862
     61          6           0       -6.399882    0.859736   -0.879848
     62          6           0       -6.694520   -0.448611   -0.161993
     63          8           0       -7.386640   -1.270741   -0.768599
     64          6           0       -5.757048    0.675625   -2.249033
     65          6           0       -4.721455   -0.442308   -2.308822
     66          7           0       -4.955488   -1.482819   -3.108988
     67          8           0       -3.670853   -0.381578   -1.668161
     68          1           0       -4.727958    1.970444   -0.405933
     69          1           0       -7.406003    1.221007   -1.095731
     70          1           0       -5.263770    1.583739   -2.574772
     71          1           0       -6.597282    0.548707   -2.934014
     72          1           0       -5.865616   -1.533769   -3.553253
     73          1           0       -4.235254   -2.151786   -3.339304
     74          7           0       -6.266151   -0.574874    1.091904
     75          6           0       -6.374522   -1.800015    1.867911
     76          6           0       -5.254212   -2.788172    1.583220
     77          8           0       -5.446282   -3.870750    2.125838
     78          1           0       -5.750138    0.191339    1.503422
     79          1           0       -7.349864   -2.214114    1.593264
     80          1           0       -6.398140   -1.483565    2.907768
     81          7           0       -4.076814   -2.514555    1.029895
     82          6           0       -2.992343   -3.471583    0.867050
     83          6           0       -1.603551   -2.877730    1.008104
     84          8           0       -1.399535   -1.805528    0.424870
     85          6           0       -3.082560   -3.894146   -0.595278
     86          6           0       -3.751114   -5.239168   -0.807767
     87          6           0       -3.361308   -6.339732   -0.032776
     88          6           0       -4.541847   -5.447256   -1.937563
     89          6           0       -3.822519   -7.620643   -0.363157
     90          6           0       -4.935911   -6.738829   -2.343955
     91          6           0       -4.539995   -7.830839   -1.559503
     92          8           0       -4.812192   -9.104125   -1.976578
     93          1           0       -3.971247   -1.565187    0.695297
     94          1           0       -3.079991   -4.292134    1.570409
     95          1           0       -2.094239   -3.835655   -1.043385
     96          1           0       -3.622028   -3.135721   -1.154532
     97          1           0       -2.754306   -6.110414    0.815965
     98          1           0       -4.797417   -4.678268   -2.647451
     99          1           0       -3.533923   -8.470479    0.229373
    100          1           0       -5.384179   -6.955256   -3.306875
    101          1           0       -5.598460   -9.220896   -2.515323
    102          7           0       -0.621107   -3.531844    1.641458
    103          6           0        0.712212   -3.006289    1.837811
    104          6           0        1.555407   -3.743324    0.796849
    105          8           0        1.662134   -4.968288    0.862974
    106          6           0        1.185623   -3.201228    3.272691
    107          6           0        0.495389   -2.214595    4.211165
    108          6           0        2.686471   -2.937312    3.238004
    109          6           0        0.870620   -2.361032    5.676176
    110          1           0       -0.832957   -4.387981    2.140104
    111          1           0        0.822171   -1.936777    1.656007
    112          1           0        1.003711   -4.225690    3.618790
    113          1           0       -0.559740   -2.336755    3.956646
    114          1           0        0.757426   -1.226538    3.846228
    115          1           0        3.256273   -3.587038    2.569511
    116          1           0        2.819568   -1.876528    2.996296
    117          1           0        3.118340   -3.099805    4.226429
    118          1           0        1.926019   -2.118912    5.811491
    119          1           0        0.240747   -1.843033    6.407434
    120          1           0        0.805700   -3.427294    5.899942
    121          7           0        2.238591   -2.970250   -0.036827
    122          6           0        3.169872   -3.585851   -0.969646
    123          6           0        4.622396   -3.571725   -0.504163
    124          8           0        4.977418   -3.008383    0.522435
    125          6           0        2.854087   -2.973137   -2.334403
    126          8           0        3.615124   -1.798603   -2.482026
    127          1           0        2.259779   -1.956773   -0.026070
    128          1           0        2.916620   -4.632660   -1.138630
    129          1           0        1.796273   -2.781388   -2.522181
    130          1           0        3.126461   -3.570172   -3.207250
    131          1           0        3.063165   -1.166969   -2.960858
    132          7           0        5.542763   -4.233417   -1.219137
    133          6           0        6.958894   -4.130102   -0.969341
    134          6           0        7.550546   -2.740463   -1.202044
    135          8           0        8.456271   -2.284564   -0.507984
    136          6           0        7.681947   -5.151142   -1.845054
    137          1           0        5.279881   -4.800442   -2.005952
    138          1           0        7.139409   -4.323948    0.093503
    139          1           0        7.490724   -5.029278   -2.909893
    140          1           0        8.722044   -5.136908   -1.525528
    141          1           0        7.290627   -6.157606   -1.675941
    142          7           0        6.969264   -2.028451   -2.167989
    143          6           0        7.239804   -0.673461   -2.584774
    144          6           0        6.936318    0.381759   -1.535294
    145          8           0        7.568626    1.438726   -1.461768
    146          6           0        6.334805   -0.195010   -3.711833
    147          1           0        6.308032   -2.552279   -2.726001
    148          1           0        8.269869   -0.611655   -2.925427
    149          1           0        6.606797    0.835953   -3.974008
    150          1           0        6.459844   -0.942206   -4.491169
    151          1           0        5.293756   -0.346006   -3.452571
    152          7           0        5.950273    0.050865   -0.694387
    153          6           0        5.424616    0.887606    0.357872
    154          6           0        6.094390    0.616213    1.692768
    155          8           0        6.424545    1.567028    2.406244
    156          6           0        3.930154    0.639177    0.501275
    157          6           0        3.213204    1.276195   -0.689771
    158          6           0        1.714415    1.053471   -0.598525
    159          8           0        0.885418    1.794373   -1.176910
    160          8           0        1.153238    0.096117   -0.036428
    161          1           0        5.496328   -0.791031   -1.014146
    162          1           0        5.643192    1.932564    0.128115
    163          1           0        3.621121    1.123240    1.436519
    164          1           0        3.645391   -0.412484    0.526156
    165          1           0        3.713857    0.926741   -1.595656
    166          1           0        3.285060    2.361534   -0.586447
    167          7           0        6.621440   -0.586596    1.911333
    168          6           0        7.553964   -0.881705    2.992263
    169          1           0        8.293118   -0.084036    3.061037
    170          1           0        7.009094   -0.953566    3.933442
    171          1           0        8.057866   -1.827126    2.790119
    172          1           0        6.371263   -1.237672    1.181737
    173         20           0       -1.175572    0.207321   -1.222546
    174          8           0       -1.009380    0.405165   -3.939923
    175          1           0       -1.445448    1.245756   -4.058885
    176          1           0       -1.449053   -0.193478   -4.541682
 ---------------------------------------------------------------------

 SCF Done:  E(RB3LYP) =  -5333.58337285     A.U. after   18 cycles

 The electronic state is 1-A.
 Alpha  occ. eigenvalues -- -145.35703 -19.18308 -19.15056 -19.13489 -19.12633
 Alpha  occ. eigenvalues --  -19.11598 -19.11294 -19.10818 -19.10351 -19.09157
 Alpha  occ. eigenvalues --  -19.08519 -19.07331 -19.07264 -19.07044 -19.06206
 Alpha  occ. eigenvalues --  -19.06071 -19.05091 -19.04974 -19.04825 -19.04789
 Alpha  occ. eigenvalues --  -19.03812 -19.03632 -19.02919 -19.02444 -15.41492
 Alpha  occ. eigenvalues --  -14.58826 -14.39225 -14.37669 -14.37515 -14.36804
 Alpha  occ. eigenvalues --  -14.36124 -14.34819 -14.34406 -14.32705 -14.32523
 Alpha  occ. eigenvalues --  -14.32301 -14.31585 -14.30060 -14.29703 -14.28589
 Alpha  occ. eigenvalues --  -12.55106 -12.55056 -12.55046 -10.34799 -10.32139
 Alpha  occ. eigenvalues --  -10.30204 -10.30011 -10.29495 -10.28805 -10.27992
 Alpha  occ. eigenvalues --  -10.27885 -10.27428 -10.26778 -10.26350 -10.26316
 Alpha  occ. eigenvalues --  -10.25982 -10.25560 -10.25487 -10.24697 -10.24591
 Alpha  occ. eigenvalues --  -10.24393 -10.24247 -10.23426 -10.23418 -10.23361
 Alpha  occ. eigenvalues --  -10.23109 -10.23085 -10.22975 -10.22510 -10.22234
 Alpha  occ. eigenvalues --  -10.22166 -10.22160 -10.21656 -10.21151 -10.20860
 Alpha  occ. eigenvalues --  -10.20232 -10.20114 -10.19382 -10.19131 -10.19043
 Alpha  occ. eigenvalues --  -10.18904 -10.18711 -10.18692 -10.18615 -10.18452
 Alpha  occ. eigenvalues --  -10.18414 -10.18351 -10.18287 -10.18146 -10.18133
 Alpha  occ. eigenvalues --  -10.17952 -10.17949 -10.17805 -10.17245 -10.16922
 Alpha  occ. eigenvalues --  -10.15638 -10.14841  -1.78430  -1.14277  -1.07282
 Alpha  occ. eigenvalues --   -1.06369  -1.06196  -1.05999  -1.05819  -1.04435
 Alpha  occ. eigenvalues --   -1.04252  -1.03501  -1.03300  -1.03183  -1.02782
 Alpha  occ. eigenvalues --   -1.02009  -1.01883  -1.00554  -0.99611  -0.99383
 Alpha  occ. eigenvalues --   -0.99228  -0.99094  -0.98452  -0.98141  -0.97659
 Alpha  occ. eigenvalues --   -0.97545  -0.96218  -0.95962  -0.94396  -0.93847
 Alpha  occ. eigenvalues --   -0.93561  -0.91883  -0.90921  -0.90690  -0.90658
 Alpha  occ. eigenvalues --   -0.90334  -0.89754  -0.89414  -0.88963  -0.88563
 Alpha  occ. eigenvalues --   -0.88087  -0.87863  -0.87122  -0.86742  -0.85093
 Alpha  occ. eigenvalues --   -0.84149  -0.82495  -0.81869  -0.81867  -0.80176
 Alpha  occ. eigenvalues --   -0.78566  -0.78133  -0.77848  -0.76859  -0.75722
 Alpha  occ. eigenvalues --   -0.75379  -0.74574  -0.74526  -0.73557  -0.73115
 Alpha  occ. eigenvalues --   -0.72461  -0.72340  -0.72082  -0.71330  -0.70048
 Alpha  occ. eigenvalues --   -0.69692  -0.69290  -0.68459  -0.68331  -0.67817
 Alpha  occ. eigenvalues --   -0.67214  -0.65874  -0.65123  -0.64684  -0.64053
 Alpha  occ. eigenvalues --   -0.63811  -0.63390  -0.63009  -0.61820  -0.61773
 Alpha  occ. eigenvalues --   -0.61731  -0.61104  -0.60693  -0.60663  -0.60371
 Alpha  occ. eigenvalues --   -0.58966  -0.58918  -0.58549  -0.58427  -0.58039
 Alpha  occ. eigenvalues --   -0.57032  -0.56815  -0.56278  -0.56054  -0.55694
 Alpha  occ. eigenvalues --   -0.55601  -0.55310  -0.54901  -0.54822  -0.54627
 Alpha  occ. eigenvalues --   -0.54395  -0.54295  -0.53689  -0.53331  -0.53019
 Alpha  occ. eigenvalues --   -0.52703  -0.52498  -0.52321  -0.51874  -0.51696
 Alpha  occ. eigenvalues --   -0.51555  -0.51273  -0.50577  -0.50282  -0.49951
 Alpha  occ. eigenvalues --   -0.49585  -0.49122  -0.48926  -0.48643  -0.48537
 Alpha  occ. eigenvalues --   -0.48263  -0.48093  -0.48012  -0.47800  -0.47788
 Alpha  occ. eigenvalues --   -0.47312  -0.46923  -0.46702  -0.46585  -0.46240
 Alpha  occ. eigenvalues --   -0.46094  -0.45920  -0.45837  -0.45390  -0.45200
 Alpha  occ. eigenvalues --   -0.44962  -0.44687  -0.44585  -0.44508  -0.44272
 Alpha  occ. eigenvalues --   -0.44224  -0.44040  -0.43980  -0.43779  -0.43503
 Alpha  occ. eigenvalues --   -0.43318  -0.43311  -0.43189  -0.42807  -0.42438
 Alpha  occ. eigenvalues --   -0.42241  -0.42043  -0.41929  -0.41844  -0.41670
 Alpha  occ. eigenvalues --   -0.41474  -0.41417  -0.41329  -0.41181  -0.41111
 Alpha  occ. eigenvalues --   -0.40855  -0.40824  -0.40731  -0.40538  -0.40478
 Alpha  occ. eigenvalues --   -0.40345  -0.40239  -0.40119  -0.40027  -0.40022
 Alpha  occ. eigenvalues --   -0.39658  -0.39594  -0.39510  -0.39424  -0.39399
 Alpha  occ. eigenvalues --   -0.39321  -0.39026  -0.38880  -0.38705  -0.38547
 Alpha  occ. eigenvalues --   -0.38543  -0.38405  -0.38292  -0.38064  -0.38044
 Alpha  occ. eigenvalues --   -0.37948  -0.37844  -0.37633  -0.37562  -0.37368
 Alpha  occ. eigenvalues --   -0.37254  -0.36902  -0.36515  -0.36399  -0.36118
 Alpha  occ. eigenvalues --   -0.36099  -0.36036  -0.35937  -0.35722  -0.35547
 Alpha  occ. eigenvalues --   -0.35389  -0.35242  -0.35000  -0.34765  -0.34386
 Alpha  occ. eigenvalues --   -0.34148  -0.34036  -0.33859  -0.33808  -0.33610
 Alpha  occ. eigenvalues --   -0.33480  -0.33095  -0.32999  -0.32871  -0.32697
 Alpha  occ. eigenvalues --   -0.32607  -0.32402  -0.32359  -0.32278  -0.31695
 Alpha  occ. eigenvalues --   -0.31407  -0.31368  -0.31104  -0.30913  -0.30157
 Alpha  occ. eigenvalues --   -0.29294  -0.28891  -0.28785  -0.28546  -0.27656
 Alpha  occ. eigenvalues --   -0.27347  -0.27010  -0.26803  -0.26592  -0.26401
 Alpha  occ. eigenvalues --   -0.26372  -0.25532  -0.25395  -0.25001  -0.24626
 Alpha  occ. eigenvalues --   -0.24494  -0.24389  -0.24231  -0.23580  -0.23018
 Alpha  occ. eigenvalues --   -0.22680  -0.22579  -0.22422  -0.22241  -0.22100
 Alpha  occ. eigenvalues --   -0.21917  -0.21679  -0.21606  -0.21230  -0.21182
 Alpha  occ. eigenvalues --   -0.20956  -0.20764  -0.20279  -0.19983  -0.19755
 Alpha  occ. eigenvalues --   -0.18862  -0.18517  -0.18106
 Alpha virt. eigenvalues --   -0.10844  -0.05568  -0.04040  -0.03332  -0.02019
 Alpha virt. eigenvalues --   -0.01306  -0.01133  -0.00421  -0.00063   0.00298
 Alpha virt. eigenvalues --    0.00822   0.01338   0.01400   0.01958   0.02179

 Mulliken charges:
               1
     1  C    0.052674
     2  C    0.026957
     3  O   -0.298649
     4  H    0.041259
     5  H    0.008266
     6  H    0.046424
     7  N   -0.113771
     8  C    0.060934
     9  C    0.084110
    10  O   -0.296512
    11  C    0.075961
    12  C    0.160514
    13  O   -0.476302
    14  O   -0.388349
    15  H    0.111594
    16  H    0.029637
    17  H    0.006945
    18  H   -0.006962
    19  N   -0.109509
    20  C    0.125026
    21  C    0.017448
    22  O   -0.293171
    23  C    0.069295
    24  C   -0.018755
    25  C   -0.078037
    26  C    0.032378
    27  N    0.094799
    28  H    0.164159
    29  H    0.005424
    30  H    0.036415
    31  H    0.032380
    32  H    0.006986
    33  H    0.032088
    34  H    0.022610
    35  H    0.029441
    36  H    0.079039
    37  H    0.070818
    38  H    0.191008
    39  H    0.191216
    40  H    0.199368
    41  N   -0.155965
    42  C    0.140576
    43  C    0.046014
    44  O   -0.275554
    45  C    0.065934
    46  C    0.157453
    47  O   -0.400538
    48  O   -0.440396
    49  H    0.143090
    50  H    0.009366
    51  H   -0.004215
    52  H    0.022684
    53  N   -0.172685
    54  C    0.249514
    55  C    0.027340
    56  O   -0.299562
    57  H    0.146416
    58  H    0.010377
    59  H    0.042504
    60  N   -0.157517
    61  C    0.145503
    62  C    0.025460
    63  O   -0.315906
    64  C    0.086440
    65  C    0.061602
    66  N   -0.032421
    67  O   -0.348975
    68  H    0.145665
    69  H    0.024912
    70  H    0.056846
    71  H   -0.005078
    72  H    0.137407
    73  H    0.124014
    74  N   -0.157245
    75  C    0.241088
    76  C    0.030779
    77  O   -0.316863
    78  H    0.156822
    79  H    0.032924
    80  H    0.037869
    81  N   -0.126398
    82  C    0.117824
    83  C    0.118124
    84  O   -0.373821
    85  C    0.156405
    86  C    0.029218
    87  C    0.018651
    88  C   -0.011652
    89  C    0.006672
    90  C   -0.040019
    91  C    0.158875
    92  O   -0.228765
    93  H    0.156844
    94  H    0.006088
    95  H   -0.003035
    96  H   -0.017169
    97  H   -0.051085
    98  H   -0.061303
    99  H   -0.029062
   100  H   -0.043180
   101  H    0.180817
   102  N   -0.107359
   103  C    0.113891
   104  C    0.073721
   105  O   -0.291050
   106  C   -0.113002
   107  C    0.024594
   108  C    0.046814
   109  C    0.055890
   110  H    0.138426
   111  H    0.031125
   112  H   -0.012201
   113  H   -0.003911
   114  H   -0.005876
   115  H    0.038100
   116  H    0.014402
   117  H   -0.003929
   118  H    0.011281
   119  H    0.019797
   120  H   -0.003113
   121  N   -0.137123
   122  C    0.106930
   123  C    0.120206
   124  O   -0.255955
   125  C    0.186225
   126  O   -0.312041
   127  H    0.146767
   128  H    0.028603
   129  H    0.017581
   130  H   -0.014730
   131  H    0.197948
   132  N   -0.127281
   133  C    0.066669
   134  C    0.047150
   135  O   -0.250123
   136  C    0.044153
   137  H    0.109775
   138  H    0.031343
   139  H    0.005531
   140  H    0.050434
   141  H    0.024134
   142  N   -0.122523
   143  C    0.068216
   144  C    0.045362
   145  O   -0.282136
   146  C    0.074043
   147  H    0.101657
   148  H    0.017382
   149  H    0.044000
   150  H   -0.004560
   151  H   -0.015704
   152  N   -0.160934
   153  C    0.153415
   154  C    0.052682
   155  O   -0.305199
   156  C   -0.029291
   157  C    0.091108
   158  C    0.120616
   159  O   -0.431816
   160  O   -0.412382
   161  H    0.133911
   162  H   -0.011255
   163  H    0.038416
   164  H   -0.008266
   165  H   -0.013188
   166  H   -0.015155
   167  N   -0.151936
   168  C    0.158057
   169  H    0.027611
   170  H    0.013411
   171  H    0.016538
   172  H    0.128323
   173  Ca   1.298767
   174  O   -0.318532
   175  H    0.152721
   176  H    0.157977
 Sum of Mulliken charges =  -0.00000

 Dipole moment (field-independent basis, Debye):
    X=             30.0280    Y=              8.9169    Z=            -16.5375  Tot=             35.4215
 Quadrupole moment (field-independent basis, Debye-Ang):
   XX=           -664.9935   YY=           -373.5837   ZZ=           -498.4211
   XY=            155.2940   XZ=            -41.2478   YZ=            -25.0663

 ESP charges:
               1
     1  C   -0.461715
     2  C    0.813135
     3  O   -0.674371
     4  H    0.137752
     5  H    0.097531
     6  H    0.140085
     7  N   -0.764721
     8  C    0.361607
     9  C    0.521114
    10  O   -0.549492
    11  C   -0.279945
    12  C    0.853659
    13  O   -0.894183
    14  O   -0.738966
    15  H    0.346196
    16  H    0.068330
    17  H    0.072774
    18  H    0.040577
    19  N   -0.299238
    20  C   -0.026905
    21  C    0.625058
    22  O   -0.609744
    23  C   -0.270582
    24  C   -0.050218
    25  C    0.033455
    26  C    0.112463
    27  N   -0.384714
    28  H    0.260244
    29  H    0.082839
    30  H    0.125496
    31  H    0.183418
    32  H    0.031132
    33  H    0.054730
    34  H    0.006187
    35  H    0.014350
    36  H    0.062457
    37  H    0.051470
    38  H    0.327451
    39  H    0.333515
    40  H    0.324718
    41  N   -0.348673
    42  C    0.052740
    43  C    0.373884
    44  O   -0.526239
    45  C   -0.374472
    46  C    0.821519
    47  O   -0.714207
    48  O   -0.664012
    49  H    0.213437
    50  H    0.103295
    51  H    0.108000
    52  H    0.104520
    53  N   -0.015174
    54  C   -0.206161
    55  C    0.557302
    56  O   -0.601467
    57  H    0.051617
    58  H    0.092084
    59  H    0.120677
    60  N   -0.270739
    61  C   -0.009361
    62  C    0.444364
    63  O   -0.555186
    64  C   -0.296388
    65  C    0.633465
    66  N   -0.721768
    67  O   -0.701997
    68  H    0.275108
    69  H    0.129408
    70  H    0.129006
    71  H    0.101240
    72  H    0.358882
    73  H    0.342573
    74  N   -0.157849
    75  C   -0.437938
    76  C    0.750233
    77  O   -0.596272
    78  H    0.264704
    79  H    0.172403
    80  H    0.186767
    81  N   -0.571185
    82  C    0.121491
    83  C    0.825777
    84  O   -0.665243
    85  C   -0.343396
    86  C    0.259026
    87  C   -0.259955
    88  C   -0.255350
    89  C   -0.161934
    90  C   -0.240802
    91  C    0.328687
    92  O   -0.569693
    93  H    0.361452
    94  H    0.060015
    95  H    0.042495
    96  H    0.169122
    97  H    0.159022
    98  H    0.152918
    99  H    0.138795
   100  H    0.130863
   101  H    0.417415
   102  N   -0.755705
   103  C   -0.066096
   104  C    0.878517
   105  O   -0.610752
   106  C    0.275408
   107  C    0.125818
   108  C   -0.397194
   109  C   -0.385213
   110  H    0.348182
   111  H    0.135446
   112  H   -0.020380
   113  H   -0.014761
   114  H    0.005969
   115  H    0.098534
   116  H    0.067796
   117  H    0.097232
   118  H    0.092509
   119  H    0.107358
   120  H    0.080166
   121  N   -0.738964
   122  C    0.107154
   123  C    0.556001
   124  O   -0.404386
   125  C    0.110261
   126  O   -0.454736
   127  H    0.393956
   128  H    0.055915
   129  H    0.070962
   130  H    0.000873
   131  H    0.370398
   132  N   -0.557015
   133  C    0.217389
   134  C    0.518782
   135  O   -0.518746
   136  C   -0.390349
   137  H    0.315208
   138  H    0.071108
   139  H    0.100830
   140  H    0.125950
   141  H    0.115305
   142  N   -0.508660
   143  C    0.340260
   144  C    0.143064
   145  O   -0.509509
   146  C   -0.457847
   147  H    0.295504
   148  H    0.054167
   149  H    0.156886
   150  H    0.089640
   151  H    0.125403
   152  N    0.595658
   153  C   -0.379962
   154  C    0.439885
   155  O   -0.540983
   156  C    0.342188
   157  C   -0.258433
   158  C    0.817827
   159  O   -0.803083
   160  O   -0.807632
   161  H   -0.386474
   162  H    0.128352
   163  H    0.055569
   164  H   -0.174225
   165  H    0.041514
   166  H    0.002783
   167  N   -0.120878
   168  C   -0.202535
   169  H    0.111943
   170  H    0.075960
   171  H    0.094769
   172  H    0.115404
   173  Ca   1.667290
   174  O   -0.850006
   175  H    0.416592
   176  H    0.395036
 Sum of ESP charges =  -0.00000

 Normal termination of Gaussian 16 at Sat Sep 14 23:58:31 2019.
