 Gaussian 16, Revision A.03,
 Gaussian 16:  ES64L-G16RevA.03 25-Dec-2016

 ----------------------------------------------------------------------
 #b3lyp/svp scf=(tight,noincore) Test #IOP(5/87=12) Density=Current Pop
 =(MK,readradii) iop(6/33=2) iop(6/42=6)
 ----------------------------------------------------------------------

 -----------------
 CaMKII_loop3_64.0
 -----------------
 Symbolic Z-matrix:
 Charge =  0 Multiplicity = 1

                         Standard orientation:
 ---------------------------------------------------------------------
 Center     Atomic      Atomic             Coordinates (Angstroms)
 Number     Number       Type             X           Y           Z
 ---------------------------------------------------------------------
      1          6           0       -2.210918   -2.327789    4.932022
      2          6           0       -1.420832   -2.255077    3.631685
      3          8           0       -2.006298   -2.276574    2.554017
      4          1           0       -3.230281   -1.982829    4.756789
      5          1           0       -2.232941   -3.357814    5.287656
      6          1           0       -1.737424   -1.694110    5.682025
      7          7           0       -0.113837   -2.020024    3.754214
      8          6           0        0.840891   -2.020250    2.651039
      9          6           0        1.033820   -3.410880    2.077431
     10          8           0        1.930466   -4.137552    2.491162
     11          6           0        2.121735   -1.328128    3.108538
     12          6           0        3.021981   -1.134270    1.904056
     13          8           0        2.679354   -1.381732    0.732746
     14          8           0        4.122475   -0.533763    2.027369
     15          1           0        0.244598   -1.791536    4.668445
     16          1           0        0.274399   -1.461230    1.913284
     17          1           0        2.643980   -1.838146    3.916585
     18          1           0        1.813315   -0.353662    3.477039
     19          7           0        0.080475   -3.877771    1.259356
     20          6           0       -0.098260   -5.242562    0.823583
     21          6           0        1.041371   -5.848211    0.022690
     22          8           0        1.349087   -7.032843    0.114655
     23          6           0       -1.372843   -5.185221   -0.018707
     24          6           0       -1.756573   -6.528645   -0.633980
     25          6           0       -3.111788   -6.483822   -1.317708
     26          6           0       -4.194208   -6.374516   -0.255720
     27          7           0       -5.548884   -6.523662   -0.813848
     28          1           0       -0.670368   -3.237709    1.050418
     29          1           0       -0.176588   -5.849714    1.731014
     30          1           0       -1.178951   -4.486432   -0.830495
     31          1           0       -2.153240   -4.739597    0.609146
     32          1           0       -1.726830   -7.338411    0.098615
     33          1           0       -1.037077   -6.550185   -1.464920
     34          1           0       -3.134715   -7.439986   -1.829297
     35          1           0       -3.127674   -5.698466   -2.072933
     36          1           0       -4.057017   -5.431573    0.291489
     37          1           0       -4.019095   -7.093818    0.552265
     38          1           0       -5.527127   -7.318344   -1.436912
     39          1           0       -6.319642   -6.753893   -0.206702
     40          1           0       -5.699662   -5.700019   -1.374810
     41          7           0        1.843954   -4.998461   -0.627837
     42          6           0        3.020588   -5.258378   -1.438747
     43          6           0        4.301922   -4.682258   -0.860240
     44          8           0        5.346074   -4.906933   -1.463288
     45          6           0        2.804759   -4.765694   -2.871221
     46          6           0        2.578187   -3.267435   -3.039693
     47          8           0        2.236646   -2.574604   -2.051849
     48          8           0        2.410556   -2.835663   -4.200198
     49          1           0        1.582601   -4.034149   -0.475857
     50          1           0        3.303573   -6.311169   -1.459947
     51          1           0        1.991031   -5.341956   -3.304659
     52          1           0        3.721814   -5.014190   -3.398250
     53          7           0        4.186835   -4.033964    0.305466
     54          6           0        5.338884   -3.621897    1.083402
     55          6           0        6.246397   -2.714396    0.258077
     56          8           0        7.432154   -2.983897    0.068476
     57          1           0        3.285120   -3.907406    0.743637
     58          1           0        6.004267   -4.407424    1.436690
     59          1           0        4.957125   -3.105057    1.958066
     60          7           0        5.701269   -1.607459   -0.257797
     61          6           0        6.453263   -0.664197   -1.062261
     62          6           0        6.759461    0.623349   -0.306040
     63          8           0        7.283702    1.533881   -0.945104
     64          6           0        5.590295   -0.511571   -2.316490
     65          6           0        4.670778    0.702536   -2.293433
     66          7           0        4.722736    1.633920   -3.248590
     67          8           0        3.803527    0.805249   -1.432836
     68          1           0        4.719246   -1.432668   -0.088744
     69          1           0        7.446123   -1.005527   -1.358779
     70          1           0        5.051385   -1.425222   -2.557980
     71          1           0        6.209594   -0.578095   -3.213286
     72          1           0        5.431753    1.511221   -3.945899
     73          1           0        3.830751    2.061807   -3.465328
     74          7           0        6.373281    0.689171    0.968453
     75          6           0        6.406600    1.820539    1.885130
     76          6           0        5.171347    2.709764    1.817840
     77          8           0        5.257385    3.799190    2.370152
     78          1           0        5.740740   -0.042100    1.255045
     79          1           0        7.301123    2.425899    1.744525
     80          1           0        6.611524    1.515215    2.905562
     81          7           0        4.103707    2.363617    1.091185
     82          6           0        2.964874    3.244424    0.879908
     83          6           0        1.587522    2.634764    1.105115
     84          8           0        1.484377    1.459454    0.749859
     85          6           0        3.010277    3.838961   -0.524572
     86          6           0        3.893171    5.055630   -0.673280
     87          6           0        3.325454    6.319274   -0.466152
     88          6           0        5.264367    4.871335   -0.920784
     89          6           0        4.165051    7.432867   -0.578797
     90          6           0        6.108783    5.978837   -1.006231
     91          6           0        5.541439    7.252858   -0.818907
     92          8           0        6.409456    8.306870   -0.876394
     93          1           0        4.162779    1.476417    0.617279
     94          1           0        3.051021    4.068432    1.586017
     95          1           0        2.022361    4.131670   -0.879599
     96          1           0        3.390816    3.059366   -1.178423
     97          1           0        2.245625    6.416481   -0.480987
     98          1           0        5.635749    3.876475   -1.091751
     99          1           0        3.656541    8.376156   -0.498032
    100          1           0        7.165443    5.758046   -0.889955
    101          1           0        7.348572    8.068935   -0.897556
    102          7           0        0.535071    3.395554    1.403185
    103          6           0       -0.875315    3.066292    1.380831
    104          6           0       -1.595571    3.978378    0.411125
    105          8           0       -1.435644    5.194383    0.324204
    106          6           0       -1.400995    3.142698    2.814785
    107          6           0       -0.811725    2.031251    3.667455
    108          6           0       -2.919127    3.104396    2.942874
    109          6           0       -0.986199    2.290095    5.168274
    110          1           0        0.638208    4.404233    1.368140
    111          1           0       -1.037320    2.053121    1.013490
    112          1           0       -1.126110    4.084240    3.293155
    113          1           0        0.260961    1.896728    3.506060
    114          1           0       -1.303816    1.109725    3.357073
    115          1           0       -3.274512    2.274437    2.334623
    116          1           0       -3.268048    2.989037    3.971634
    117          1           0       -3.348315    4.064827    2.660439
    118          1           0       -0.501253    1.486998    5.726094
    119          1           0       -0.475977    3.236052    5.370607
    120          1           0       -1.993620    2.418075    5.544605
    121          7           0       -2.542545    3.359455   -0.309760
    122          6           0       -3.625107    3.979848   -1.045268
    123          6           0       -5.005780    3.584420   -0.536171
    124          8           0       -5.209194    2.771433    0.362036
    125          6           0       -3.509558    3.683037   -2.536794
    126          8           0       -3.050119    2.379689   -2.807164
    127          1           0       -2.692482    2.388205   -0.074194
    128          1           0       -3.540733    5.065481   -0.949445
    129          1           0       -2.829452    4.427188   -2.931884
    130          1           0       -4.439923    3.818229   -3.084374
    131          1           0       -2.905693    2.290929   -3.749800
    132          7           0       -6.037909    4.206166   -1.118529
    133          6           0       -7.413823    3.992098   -0.731441
    134          6           0       -7.914962    2.562296   -0.808426
    135          8           0       -8.390859    2.020622    0.191479
    136          6           0       -8.203046    4.975543   -1.599406
    137          1           0       -5.885565    4.731626   -1.976482
    138          1           0       -7.571284    4.216647    0.317455
    139          1           0       -9.200729    4.935406   -1.159500
    140          1           0       -7.856156    5.989815   -1.389597
    141          1           0       -8.280692    4.714744   -2.651525
    142          7           0       -7.776112    1.904684   -1.958369
    143          6           0       -8.177657    0.513729   -2.073718
    144          6           0       -7.382285   -0.478470   -1.245573
    145          8           0       -7.979717   -1.472046   -0.818044
    146          6           0       -8.000886    0.129700   -3.544152
    147          1           0       -7.485367    2.417982   -2.784742
    148          1           0       -9.255916    0.494550   -1.886930
    149          1           0       -7.940444   -0.949574   -3.664213
    150          1           0       -8.803985    0.471923   -4.192932
    151          1           0       -7.042510    0.473924   -3.916341
    152          7           0       -6.091010   -0.270893   -1.001397
    153          6           0       -5.304114   -1.021631   -0.036780
    154          6           0       -5.983238   -0.891372    1.311413
    155          8           0       -6.234491   -1.911144    1.943817
    156          6           0       -3.898428   -0.425101   -0.071396
    157          6           0       -3.044835   -1.091387   -1.136684
    158          6           0       -1.538590   -0.966091   -0.941678
    159          8           0       -0.999563   -0.151227   -0.156092
    160          8           0       -0.776089   -1.716500   -1.583144
    161          1           0       -5.523791    0.405850   -1.494532
    162          1           0       -5.166405   -2.072301   -0.281789
    163          1           0       -3.440906   -0.707396    0.880015
    164          1           0       -3.936045    0.659857   -0.160012
    165          1           0       -3.279087   -0.791409   -2.160471
    166          1           0       -3.269790   -2.166053   -1.153661
    167          7           0       -6.256309    0.343144    1.761307
    168          6           0       -6.923451    0.506588    3.041271
    169          1           0       -7.969829    0.764189    2.874792
    170          1           0       -6.863677   -0.425234    3.604427
    171          1           0       -6.439079    1.304234    3.604720
    172          1           0       -6.015666    1.110064    1.147691
    173         20           0        1.357975   -0.318512   -1.214360
    174          8           0        1.646966   -0.260487   -3.804344
    175          1           0        1.072062    0.076430   -4.502106
    176          1           0        1.773446   -1.184549   -4.033715
 ---------------------------------------------------------------------

 SCF Done:  E(RB3LYP) =  -5333.57624649     A.U. after   19 cycles

 The electronic state is 1-A.
 Alpha  occ. eigenvalues -- -145.35573 -19.17985 -19.15162 -19.13457 -19.12662
 Alpha  occ. eigenvalues --  -19.12521 -19.11976 -19.10786 -19.10749 -19.10445
 Alpha  occ. eigenvalues --  -19.09702 -19.08203 -19.07640 -19.07123 -19.06257
 Alpha  occ. eigenvalues --  -19.06222 -19.05242 -19.04673 -19.04434 -19.04051
 Alpha  occ. eigenvalues --  -19.03427 -19.02661 -19.02539 -19.02310 -15.41352
 Alpha  occ. eigenvalues --  -14.58097 -14.40558 -14.39250 -14.37759 -14.37136
 Alpha  occ. eigenvalues --  -14.36499 -14.35252 -14.35177 -14.33917 -14.33210
 Alpha  occ. eigenvalues --  -14.31235 -14.31099 -14.30067 -14.29667 -14.28491
 Alpha  occ. eigenvalues --  -12.54974 -12.54921 -12.54904 -10.34108 -10.33306
 Alpha  occ. eigenvalues --  -10.31114 -10.30288 -10.29951 -10.29198 -10.29172
 Alpha  occ. eigenvalues --  -10.28421 -10.28332 -10.27738 -10.27138 -10.26889
 Alpha  occ. eigenvalues --  -10.26656 -10.26290 -10.26278 -10.26207 -10.25163
 Alpha  occ. eigenvalues --  -10.24017 -10.23838 -10.23811 -10.23605 -10.23490
 Alpha  occ. eigenvalues --  -10.23314 -10.23081 -10.22933 -10.22859 -10.22583
 Alpha  occ. eigenvalues --  -10.22536 -10.22386 -10.21617 -10.21456 -10.21240
 Alpha  occ. eigenvalues --  -10.21042 -10.20200 -10.19361 -10.19327 -10.19200
 Alpha  occ. eigenvalues --  -10.19153 -10.19126 -10.18843 -10.18423 -10.17762
 Alpha  occ. eigenvalues --  -10.17693 -10.17599 -10.17427 -10.17073 -10.17034
 Alpha  occ. eigenvalues --  -10.16994 -10.16789 -10.16732 -10.16342 -10.16283
 Alpha  occ. eigenvalues --  -10.16102 -10.13960  -1.78277  -1.13331  -1.08327
 Alpha  occ. eigenvalues --   -1.06278  -1.06058  -1.05921  -1.05617  -1.05598
 Alpha  occ. eigenvalues --   -1.04803  -1.03806  -1.03670  -1.03285  -1.02765
 Alpha  occ. eigenvalues --   -1.01940  -1.01885  -1.01410  -1.00597  -0.99335
 Alpha  occ. eigenvalues --   -0.98955  -0.98849  -0.98479  -0.97837  -0.97534
 Alpha  occ. eigenvalues --   -0.97477  -0.97008  -0.95618  -0.95529  -0.94581
 Alpha  occ. eigenvalues --   -0.93722  -0.93407  -0.92040  -0.91648  -0.90855
 Alpha  occ. eigenvalues --   -0.90272  -0.89304  -0.88631  -0.88564  -0.88340
 Alpha  occ. eigenvalues --   -0.87600  -0.87210  -0.87140  -0.86094  -0.85336
 Alpha  occ. eigenvalues --   -0.83922  -0.82516  -0.82127  -0.81099  -0.81049
 Alpha  occ. eigenvalues --   -0.79794  -0.79030  -0.77571  -0.76785  -0.75739
 Alpha  occ. eigenvalues --   -0.74768  -0.74433  -0.73496  -0.73311  -0.72988
 Alpha  occ. eigenvalues --   -0.72231  -0.72077  -0.71476  -0.71328  -0.70719
 Alpha  occ. eigenvalues --   -0.70544  -0.69457  -0.68889  -0.68345  -0.68169
 Alpha  occ. eigenvalues --   -0.67619  -0.67208  -0.65428  -0.64385  -0.64037
 Alpha  occ. eigenvalues --   -0.63723  -0.63253  -0.63147  -0.62778  -0.62659
 Alpha  occ. eigenvalues --   -0.62019  -0.61570  -0.61362  -0.60978  -0.60102
 Alpha  occ. eigenvalues --   -0.59669  -0.59283  -0.58669  -0.58170  -0.57317
 Alpha  occ. eigenvalues --   -0.57215  -0.56854  -0.56685  -0.56547  -0.56378
 Alpha  occ. eigenvalues --   -0.55284  -0.55080  -0.54994  -0.54553  -0.54378
 Alpha  occ. eigenvalues --   -0.54142  -0.53904  -0.53350  -0.53337  -0.52924
 Alpha  occ. eigenvalues --   -0.52799  -0.52679  -0.52486  -0.52005  -0.51935
 Alpha  occ. eigenvalues --   -0.51453  -0.51334  -0.50959  -0.50291  -0.49956
 Alpha  occ. eigenvalues --   -0.49784  -0.49582  -0.49491  -0.49047  -0.48833
 Alpha  occ. eigenvalues --   -0.48664  -0.48449  -0.48354  -0.48092  -0.47637
 Alpha  occ. eigenvalues --   -0.47374  -0.46952  -0.46794  -0.46699  -0.46607
 Alpha  occ. eigenvalues --   -0.46322  -0.46261  -0.46192  -0.45745  -0.45617
 Alpha  occ. eigenvalues --   -0.45528  -0.45389  -0.45020  -0.44857  -0.44643
 Alpha  occ. eigenvalues --   -0.44481  -0.44303  -0.43941  -0.43789  -0.43679
 Alpha  occ. eigenvalues --   -0.43396  -0.43298  -0.43086  -0.42877  -0.42700
 Alpha  occ. eigenvalues --   -0.42688  -0.42470  -0.42318  -0.42270  -0.42180
 Alpha  occ. eigenvalues --   -0.42112  -0.42004  -0.41765  -0.41725  -0.41476
 Alpha  occ. eigenvalues --   -0.41397  -0.41149  -0.41067  -0.40922  -0.40855
 Alpha  occ. eigenvalues --   -0.40588  -0.40440  -0.40426  -0.40270  -0.40063
 Alpha  occ. eigenvalues --   -0.39912  -0.39808  -0.39611  -0.39393  -0.39239
 Alpha  occ. eigenvalues --   -0.39114  -0.38895  -0.38824  -0.38659  -0.38456
 Alpha  occ. eigenvalues --   -0.38394  -0.38350  -0.38238  -0.38127  -0.38037
 Alpha  occ. eigenvalues --   -0.37829  -0.37754  -0.37612  -0.37497  -0.37265
 Alpha  occ. eigenvalues --   -0.37219  -0.36910  -0.36862  -0.36774  -0.36338
 Alpha  occ. eigenvalues --   -0.36061  -0.35963  -0.35622  -0.35545  -0.35420
 Alpha  occ. eigenvalues --   -0.35307  -0.35107  -0.34940  -0.34892  -0.34579
 Alpha  occ. eigenvalues --   -0.34467  -0.34271  -0.33957  -0.33609  -0.33359
 Alpha  occ. eigenvalues --   -0.33250  -0.33114  -0.33000  -0.32905  -0.32751
 Alpha  occ. eigenvalues --   -0.32509  -0.32265  -0.31937  -0.31788  -0.31494
 Alpha  occ. eigenvalues --   -0.31387  -0.31015  -0.30849  -0.30762  -0.30547
 Alpha  occ. eigenvalues --   -0.30107  -0.29753  -0.28788  -0.28296  -0.28274
 Alpha  occ. eigenvalues --   -0.28217  -0.27880  -0.27286  -0.26813  -0.26479
 Alpha  occ. eigenvalues --   -0.26338  -0.26176  -0.26021  -0.25520  -0.25287
 Alpha  occ. eigenvalues --   -0.24388  -0.23851  -0.23716  -0.23650  -0.23485
 Alpha  occ. eigenvalues --   -0.23429  -0.23000  -0.22778  -0.22580  -0.22117
 Alpha  occ. eigenvalues --   -0.22060  -0.21943  -0.21499  -0.21055  -0.20573
 Alpha  occ. eigenvalues --   -0.20452  -0.19803  -0.19431  -0.19117  -0.18829
 Alpha  occ. eigenvalues --   -0.18633  -0.18144  -0.17788
 Alpha virt. eigenvalues --   -0.09867  -0.04076  -0.03938  -0.03663  -0.02857
 Alpha virt. eigenvalues --   -0.01646  -0.01349  -0.00675  -0.00490  -0.00133
 Alpha virt. eigenvalues --    0.00185   0.00648   0.00992   0.01582   0.01908

 Mulliken charges:
               1
     1  C    0.048461
     2  C    0.037581
     3  O   -0.300466
     4  H    0.040396
     5  H    0.035933
     6  H    0.009739
     7  N   -0.129663
     8  C    0.085349
     9  C    0.063382
    10  O   -0.287655
    11  C    0.124211
    12  C    0.149973
    13  O   -0.455461
    14  O   -0.402867
    15  H    0.116882
    16  H    0.009767
    17  H    0.018501
    18  H    0.007478
    19  N   -0.140376
    20  C    0.168624
    21  C    0.014237
    22  O   -0.283947
    23  C   -0.118993
    24  C    0.039485
    25  C   -0.003794
    26  C   -0.020583
    27  N    0.099274
    28  H    0.155561
    29  H    0.008181
    30  H    0.044288
    31  H    0.015415
    32  H    0.026544
    33  H    0.051089
    34  H    0.023362
    35  H    0.036950
    36  H    0.105250
    37  H    0.065473
    38  H    0.177547
    39  H    0.195107
    40  H    0.204177
    41  N   -0.145426
    42  C    0.159468
    43  C    0.040623
    44  O   -0.278231
    45  C    0.080588
    46  C    0.162189
    47  O   -0.464287
    48  O   -0.406029
    49  H    0.144173
    50  H    0.018514
    51  H   -0.005766
    52  H    0.019744
    53  N   -0.158522
    54  C    0.258605
    55  C    0.010641
    56  O   -0.282099
    57  H    0.148766
    58  H    0.003233
    59  H    0.011870
    60  N   -0.184733
    61  C    0.146677
    62  C    0.034120
    63  O   -0.307795
    64  C    0.116186
    65  C    0.068562
    66  N   -0.006499
    67  O   -0.369174
    68  H    0.151317
    69  H    0.037876
    70  H    0.063080
    71  H   -0.027724
    72  H    0.125699
    73  H    0.132732
    74  N   -0.143138
    75  C    0.239671
    76  C    0.030659
    77  O   -0.305495
    78  H    0.146255
    79  H    0.018387
    80  H    0.021764
    81  N   -0.136346
    82  C    0.156001
    83  C    0.123661
    84  O   -0.354276
    85  C    0.115875
    86  C   -0.054014
    87  C   -0.024880
    88  C    0.005793
    89  C   -0.023862
    90  C   -0.045568
    91  C    0.201485
    92  O   -0.223615
    93  H    0.156712
    94  H    0.003514
    95  H   -0.030102
    96  H   -0.021813
    97  H   -0.028233
    98  H   -0.014412
    99  H   -0.039028
   100  H   -0.009673
   101  H    0.177769
   102  N   -0.119927
   103  C    0.127105
   104  C    0.065605
   105  O   -0.276612
   106  C   -0.091015
   107  C    0.002653
   108  C    0.069289
   109  C    0.029180
   110  H    0.134762
   111  H    0.028620
   112  H   -0.021198
   113  H    0.021771
   114  H    0.008169
   115  H    0.011895
   116  H   -0.000590
   117  H    0.004116
   118  H    0.002457
   119  H    0.007088
   120  H    0.005794
   121  N   -0.119384
   122  C    0.090684
   123  C    0.091277
   124  O   -0.260079
   125  C    0.216401
   126  O   -0.299660
   127  H    0.151328
   128  H    0.043373
   129  H    0.007656
   130  H   -0.035653
   131  H    0.175038
   132  N   -0.125392
   133  C    0.089694
   134  C    0.054842
   135  O   -0.247783
   136  C    0.016296
   137  H    0.119334
   138  H    0.021270
   139  H    0.035242
   140  H    0.040244
   141  H    0.018984
   142  N   -0.135704
   143  C    0.116571
   144  C    0.087342
   145  O   -0.282109
   146  C    0.017945
   147  H    0.104954
   148  H    0.027033
   149  H    0.021973
   150  H    0.029300
   151  H   -0.006426
   152  N   -0.125709
   153  C    0.132100
   154  C    0.058144
   155  O   -0.281683
   156  C   -0.011184
   157  C    0.079754
   158  C    0.104790
   159  O   -0.409661
   160  O   -0.412641
   161  H    0.108383
   162  H   -0.055786
   163  H    0.050617
   164  H   -0.004784
   165  H   -0.012380
   166  H   -0.034662
   167  N   -0.176328
   168  C    0.139066
   169  H    0.027832
   170  H    0.031682
   171  H    0.007894
   172  H    0.139795
   173  Ca   1.304552
   174  O   -0.331643
   175  H    0.163531
   176  H    0.158687
 Sum of Mulliken charges =  -0.00000

 Dipole moment (field-independent basis, Debye):
    X=            -39.3831    Y=             -2.6509    Z=            -10.8254  Tot=             40.9298
 Quadrupole moment (field-independent basis, Debye-Ang):
   XX=           -584.4401   YY=           -483.3767   ZZ=           -513.0848
   XY=            117.0476   XZ=             65.6632   YZ=            -26.6286

 ESP charges:
               1
     1  C   -0.425564
     2  C    0.725194
     3  O   -0.599150
     4  H    0.129351
     5  H    0.116859
     6  H    0.096321
     7  N   -0.702577
     8  C    0.141569
     9  C    0.663003
    10  O   -0.533007
    11  C   -0.417564
    12  C    0.911475
    13  O   -0.990379
    14  O   -0.729295
    15  H    0.372224
    16  H    0.109618
    17  H    0.135717
    18  H    0.123386
    19  N   -0.377414
    20  C   -0.191254
    21  C    0.510015
    22  O   -0.571543
    23  C   -0.029168
    24  C   -0.174794
    25  C   -0.147082
    26  C    0.187549
    27  N   -0.565355
    28  H    0.289238
    29  H    0.137325
    30  H    0.107143
    31  H    0.060351
    32  H    0.078888
    33  H    0.122485
    34  H    0.055878
    35  H    0.079543
    36  H    0.050060
    37  H    0.084114
    38  H    0.343347
    39  H    0.402799
    40  H    0.379372
    41  N   -0.250792
    42  C    0.037175
    43  C    0.462490
    44  O   -0.505463
    45  C   -0.363976
    46  C    0.778670
    47  O   -0.627836
    48  O   -0.708384
    49  H    0.179875
    50  H    0.104346
    51  H    0.109188
    52  H    0.094183
    53  N   -0.216472
    54  C   -0.103400
    55  C    0.452782
    56  O   -0.554122
    57  H    0.182383
    58  H    0.079312
    59  H    0.096279
    60  N   -0.034305
    61  C   -0.252866
    62  C    0.584411
    63  O   -0.568128
    64  C    0.216327
    65  C    0.274228
    66  N   -0.707203
    67  O   -0.425060
    68  H    0.022168
    69  H    0.148032
    70  H    0.053658
    71  H   -0.009569
    72  H    0.364376
    73  H    0.392159
    74  N   -0.426721
    75  C   -0.006215
    76  C    0.415861
    77  O   -0.546143
    78  H    0.269420
    79  H    0.091447
    80  H    0.095716
    81  N   -0.389487
    82  C    0.289990
    83  C    0.381222
    84  O   -0.537409
    85  C    0.164108
    86  C   -0.178988
    87  C   -0.080822
    88  C    0.092825
    89  C   -0.347164
    90  C   -0.492866
    91  C    0.547561
    92  O   -0.615106
    93  H    0.400740
    94  H    0.010669
    95  H   -0.025522
    96  H   -0.117649
    97  H    0.112170
    98  H    0.126748
    99  H    0.167157
   100  H    0.184937
   101  H    0.424404
   102  N   -0.448037
   103  C   -0.176523
   104  C    0.711696
   105  O   -0.561586
   106  C    0.065356
   107  C   -0.033080
   108  C   -0.127118
   109  C   -0.324527
   110  H    0.263747
   111  H    0.188834
   112  H    0.049937
   113  H    0.100381
   114  H    0.093325
   115  H   -0.032123
   116  H    0.073049
   117  H    0.031878
   118  H    0.076183
   119  H    0.077491
   120  H    0.085529
   121  N   -0.477980
   122  C    0.226411
   123  C    0.506451
   124  O   -0.434970
   125  C    0.113242
   126  O   -0.600649
   127  H    0.211125
   128  H    0.035550
   129  H    0.033352
   130  H   -0.001513
   131  H    0.420283
   132  N   -0.630893
   133  C    0.447160
   134  C    0.340781
   135  O   -0.497261
   136  C   -0.390154
   137  H    0.286128
   138  H    0.014039
   139  H    0.096340
   140  H    0.119100
   141  H    0.094573
   142  N   -0.315494
   143  C    0.016568
   144  C    0.473736
   145  O   -0.518013
   146  C   -0.327597
   147  H    0.252653
   148  H    0.123766
   149  H    0.109778
   150  H    0.108226
   151  H    0.070089
   152  N   -0.159454
   153  C   -0.637029
   154  C    0.747864
   155  O   -0.589189
   156  C    0.240158
   157  C    0.190682
   158  C    0.583428
   159  O   -0.757063
   160  O   -0.772890
   161  H    0.197195
   162  H    0.210943
   163  H    0.014800
   164  H   -0.082985
   165  H   -0.037314
   166  H   -0.070016
   167  N   -0.261001
   168  C   -0.195694
   169  H    0.099391
   170  H    0.100917
   171  H    0.068259
   172  H    0.244571
   173  Ca   1.614804
   174  O   -0.855379
   175  H    0.397023
   176  H    0.414711
 Sum of ESP charges =  -0.00000

 Normal termination of Gaussian 16 at Sat Sep 14 23:49:35 2019.
