 Gaussian 16, Revision A.03,
 Gaussian 16:  ES64L-G16RevA.03 25-Dec-2016

 ----------------------------------------------------------------------
 #b3lyp/svp scf=(tight,noincore) Test #IOP(5/87=12) Density=Current Pop
 =(MK,readradii) iop(6/33=2) iop(6/42=6)
 ----------------------------------------------------------------------

 -----------------
 CaMKII_loop3_62.0
 -----------------
 Symbolic Z-matrix:
 Charge =  0 Multiplicity = 1

                         Standard orientation:
 ---------------------------------------------------------------------
 Center     Atomic      Atomic             Coordinates (Angstroms)
 Number     Number       Type             X           Y           Z
 ---------------------------------------------------------------------
      1          6           0        2.890847    2.153447    5.208190
      2          6           0        2.064588    2.346695    3.946345
      3          8           0        2.648406    2.740223    2.933038
      4          1           0        3.936173    2.002339    4.938306
      5          1           0        2.803650    3.038024    5.840011
      6          1           0        2.527522    1.280944    5.751134
      7          7           0        0.771274    2.032068    3.882717
      8          6           0       -0.091681    1.933785    2.721188
      9          6           0       -0.262023    3.362998    2.218859
     10          8           0       -0.825614    4.188235    2.939587
     11          6           0       -1.404529    1.273222    3.124407
     12          6           0       -2.414710    1.135098    1.996597
     13          8           0       -2.107780    1.419345    0.819610
     14          8           0       -3.576678    0.739955    2.221526
     15          1           0        0.378528    1.726300    4.760416
     16          1           0        0.437142    1.359450    1.955299
     17          1           0       -1.823787    1.840121    3.950632
     18          1           0       -1.131656    0.274581    3.462127
     19          7           0        0.155611    3.698836    0.993055
     20          6           0        0.503022    4.989302    0.428429
     21          6           0       -0.694568    5.624008   -0.260504
     22          8           0       -1.074729    6.767073    0.005540
     23          6           0        1.836723    4.991316   -0.305967
     24          6           0        2.280489    6.348040   -0.840170
     25          6           0        3.805128    6.322423   -1.004847
     26          6           0        4.296905    7.551327   -1.741429
     27          7           0        4.078820    8.700852   -0.849055
     28          1           0        0.511613    2.904662    0.494007
     29          1           0        0.630497    5.573319    1.342909
     30          1           0        1.804767    4.184864   -1.048405
     31          1           0        2.634668    4.604241    0.330395
     32          1           0        2.065478    7.068085   -0.044429
     33          1           0        1.747284    6.620268   -1.749337
     34          1           0        4.152729    5.495062   -1.615377
     35          1           0        4.240514    6.238023   -0.004290
     36          1           0        3.778241    7.692867   -2.688136
     37          1           0        5.351339    7.407388   -1.993323
     38          1           0        4.061307    8.526856    0.144131
     39          1           0        4.763386    9.415996   -1.054332
     40          1           0        3.196121    9.118929   -1.077427
     41          7           0       -1.520735    4.779495   -0.879735
     42          6           0       -2.781244    5.154035   -1.486477
     43          6           0       -4.020767    4.682983   -0.728985
     44          8           0       -5.124639    5.050814   -1.110517
     45          6           0       -2.780970    4.689731   -2.941372
     46          6           0       -2.611854    3.212753   -3.248190
     47          8           0       -2.530538    2.737771   -4.397441
     48          8           0       -2.561945    2.418582   -2.278189
     49          1           0       -1.287026    3.799770   -0.916057
     50          1           0       -2.913990    6.236974   -1.527957
     51          1           0       -1.999664    5.243532   -3.466508
     52          1           0       -3.757372    4.983195   -3.304989
     53          7           0       -3.839222    3.970118    0.389882
     54          6           0       -4.938190    3.520279    1.234520
     55          6           0       -5.970283    2.644761    0.539573
     56          8           0       -7.093680    2.634398    1.043528
     57          1           0       -2.915280    3.795018    0.747333
     58          1           0       -5.494868    4.389265    1.568547
     59          1           0       -4.481916    2.969663    2.060132
     60          7           0       -5.610333    1.878759   -0.490222
     61          6           0       -6.477120    0.943576   -1.174483
     62          6           0       -6.758756   -0.293360   -0.336528
     63          8           0       -7.479966   -1.182267   -0.787196
     64          6           0       -5.855109    0.568202   -2.514332
     65          6           0       -4.588635   -0.269053   -2.374880
     66          7           0       -4.500935   -1.223085   -3.303067
     67          8           0       -3.813277   -0.320178   -1.422406
     68          1           0       -4.613713    1.833195   -0.664784
     69          1           0       -7.399755    1.504360   -1.307776
     70          1           0       -5.559614    1.436633   -3.116255
     71          1           0       -6.630479    0.003248   -3.032241
     72          1           0       -5.218636   -1.297835   -4.016101
     73          1           0       -3.694283   -1.825571   -3.405165
     74          7           0       -6.179838   -0.396603    0.865135
     75          6           0       -6.270090   -1.471846    1.816348
     76          6           0       -5.094430   -2.443575    1.898622
     77          8           0       -5.221704   -3.492795    2.529129
     78          1           0       -5.553727    0.343615    1.151950
     79          1           0       -7.234921   -1.968542    1.690671
     80          1           0       -6.309695   -0.983868    2.795331
     81          7           0       -3.935007   -2.099276    1.335598
     82          6           0       -2.885810   -3.071931    1.113724
     83          6           0       -1.511705   -2.424991    1.127952
     84          8           0       -1.203494   -1.643797    0.235292
     85          6           0       -3.105526   -3.698791   -0.260056
     86          6           0       -4.271648   -4.636654   -0.427606
     87          6           0       -4.076182   -5.987301   -0.090492
     88          6           0       -5.443457   -4.246011   -1.090676
     89          6           0       -5.152787   -6.872775   -0.208622
     90          6           0       -6.538618   -5.105597   -1.170264
     91          6           0       -6.393939   -6.432206   -0.718073
     92          8           0       -7.431140   -7.311476   -0.727996
     93          1           0       -3.795344   -1.136661    1.077980
     94          1           0       -2.863100   -3.894080    1.842940
     95          1           0       -2.204820   -4.265185   -0.501980
     96          1           0       -3.340911   -2.951712   -1.010101
     97          1           0       -3.104629   -6.338401    0.213505
     98          1           0       -5.530667   -3.288484   -1.591611
     99          1           0       -5.016261   -7.903853    0.082651
    100          1           0       -7.462187   -4.771053   -1.616470
    101          1           0       -8.253331   -6.885612   -0.997332
    102          7           0       -0.587333   -3.003473    1.912231
    103          6           0        0.815786   -2.671161    1.770360
    104          6           0        1.421605   -3.576681    0.706162
    105          8           0        1.239794   -4.788363    0.693060
    106          6           0        1.521684   -2.866756    3.102970
    107          6           0        0.906498   -2.086025    4.251667
    108          6           0        2.987279   -2.486976    2.886645
    109          6           0        1.485210   -2.353469    5.643955
    110          1           0       -0.854808   -3.831014    2.411963
    111          1           0        0.909840   -1.631945    1.457495
    112          1           0        1.483441   -3.904947    3.447205
    113          1           0       -0.154763   -2.343001    4.261031
    114          1           0        0.900715   -1.035364    3.937536
    115          1           0        3.589760   -2.530970    3.792615
    116          1           0        3.471523   -3.147895    2.167830
    117          1           0        3.068305   -1.434456    2.615651
    118          1           0        1.074555   -3.255132    6.101193
    119          1           0        2.568155   -2.442975    5.610520
    120          1           0        1.222925   -1.490313    6.248165
    121          7           0        2.031356   -3.040486   -0.351571
    122          6           0        2.856655   -3.717986   -1.338725
    123          6           0        4.324229   -3.666638   -0.967660
    124          8           0        4.760472   -2.878526   -0.124647
    125          6           0        2.526818   -3.074111   -2.682426
    126          8           0        3.029293   -1.758481   -2.688553
    127          1           0        2.003904   -2.034829   -0.469474
    128          1           0        2.489394   -4.752169   -1.394280
    129          1           0        1.443070   -3.076522   -2.784824
    130          1           0        2.944674   -3.637269   -3.522217
    131          1           0        2.351265   -1.231410   -2.274096
    132          7           0        5.195159   -4.508630   -1.511012
    133          6           0        6.632992   -4.540547   -1.285144
    134          6           0        7.307922   -3.192337   -1.484398
    135          8           0        8.176166   -2.819279   -0.704668
    136          6           0        7.261001   -5.498784   -2.285088
    137          1           0        4.851866   -5.127345   -2.228467
    138          1           0        6.870445   -4.974542   -0.316297
    139          1           0        6.627921   -6.391635   -2.296305
    140          1           0        7.176425   -5.206807   -3.323643
    141          1           0        8.321640   -5.729969   -2.156260
    142          7           0        6.840130   -2.409945   -2.466047
    143          6           0        7.230636   -1.031218   -2.708567
    144          6           0        7.019357   -0.064598   -1.557737
    145          8           0        7.813192    0.840517   -1.316504
    146          6           0        6.447513   -0.580749   -3.940799
    147          1           0        6.240006   -2.894169   -3.119865
    148          1           0        8.271765   -1.043452   -3.011224
    149          1           0        6.514771    0.474226   -4.209692
    150          1           0        6.629282   -1.222909   -4.807454
    151          1           0        5.362729   -0.728015   -3.928236
    152          7           0        5.977216   -0.285109   -0.751564
    153          6           0        5.514037    0.539846    0.342014
    154          6           0        6.309519    0.118479    1.573622
    155          8           0        6.766279    0.948200    2.359646
    156          6           0        4.005451    0.317391    0.473483
    157          6           0        3.284848    0.979845   -0.692015
    158          6           0        1.799542    0.626999   -0.731592
    159          8           0        1.399976   -0.457845   -1.225313
    160          8           0        0.908515    1.392114   -0.325302
    161          1           0        5.449809   -1.123616   -0.943003
    162          1           0        5.795559    1.577945    0.164259
    163          1           0        3.612506    0.822729    1.353725
    164          1           0        3.646598   -0.711420    0.514367
    165          1           0        3.730412    0.715057   -1.651421
    166          1           0        3.348557    2.054828   -0.579087
    167          7           0        6.610659   -1.177823    1.730514
    168          6           0        7.533195   -1.661664    2.725363
    169          1           0        8.489234   -1.151941    2.611552
    170          1           0        7.132576   -1.464007    3.719845
    171          1           0        7.676746   -2.734614    2.597467
    172          1           0        6.129024   -1.757391    1.060269
    173         20           0       -1.253134    0.330920   -1.441923
    174          8           0       -1.369244   -1.893657   -2.839447
    175          1           0       -1.230996   -1.893726   -3.789914
    176          1           0       -1.403639   -2.822291   -2.598083
 ---------------------------------------------------------------------

 SCF Done:  E(RB3LYP) =  -5333.58865799     A.U. after   19 cycles

 The electronic state is 1-A.
 Alpha  occ. eigenvalues -- -145.39123 -19.21899 -19.14617 -19.13172 -19.13050
 Alpha  occ. eigenvalues --  -19.12656 -19.11793 -19.11633 -19.11082 -19.10594
 Alpha  occ. eigenvalues --  -19.09795 -19.08169 -19.07577 -19.07419 -19.06376
 Alpha  occ. eigenvalues --  -19.05991 -19.05726 -19.05476 -19.04783 -19.04372
 Alpha  occ. eigenvalues --  -19.04132 -19.03928 -19.03045 -19.02004 -15.44841
 Alpha  occ. eigenvalues --  -14.58933 -14.39517 -14.37256 -14.36977 -14.36435
 Alpha  occ. eigenvalues --  -14.34941 -14.34204 -14.33623 -14.32495 -14.31791
 Alpha  occ. eigenvalues --  -14.31780 -14.31460 -14.30842 -14.30294 -14.30155
 Alpha  occ. eigenvalues --  -12.58462 -12.58430 -12.58394 -10.35505 -10.31883
 Alpha  occ. eigenvalues --  -10.30315 -10.30294 -10.30277 -10.29491 -10.28630
 Alpha  occ. eigenvalues --  -10.27764 -10.27259 -10.27014 -10.26344 -10.26208
 Alpha  occ. eigenvalues --  -10.26067 -10.25469 -10.25197 -10.25041 -10.24638
 Alpha  occ. eigenvalues --  -10.24594 -10.24456 -10.24416 -10.24028 -10.23638
 Alpha  occ. eigenvalues --  -10.23364 -10.23357 -10.22894 -10.22782 -10.22692
 Alpha  occ. eigenvalues --  -10.22546 -10.22251 -10.22242 -10.21740 -10.21125
 Alpha  occ. eigenvalues --  -10.20814 -10.20068 -10.19640 -10.19573 -10.19376
 Alpha  occ. eigenvalues --  -10.19357 -10.19283 -10.18916 -10.18901 -10.18454
 Alpha  occ. eigenvalues --  -10.18295 -10.18234 -10.18047 -10.17448 -10.17338
 Alpha  occ. eigenvalues --  -10.17290 -10.17245 -10.17153 -10.17010 -10.16895
 Alpha  occ. eigenvalues --  -10.16795 -10.15071  -1.81615  -1.14520  -1.09395
 Alpha  occ. eigenvalues --   -1.09223  -1.08929  -1.07367  -1.07009  -1.06811
 Alpha  occ. eigenvalues --   -1.05541  -1.04365  -1.03799  -1.03391  -1.03245
 Alpha  occ. eigenvalues --   -1.02492  -1.01353  -1.01051  -1.00487  -0.99140
 Alpha  occ. eigenvalues --   -0.99037  -0.99005  -0.98679  -0.98482  -0.98291
 Alpha  occ. eigenvalues --   -0.97841  -0.96780  -0.95953  -0.95861  -0.94149
 Alpha  occ. eigenvalues --   -0.93622  -0.92002  -0.91274  -0.91174  -0.90649
 Alpha  occ. eigenvalues --   -0.90308  -0.89724  -0.89386  -0.88759  -0.88508
 Alpha  occ. eigenvalues --   -0.87947  -0.87815  -0.87123  -0.87058  -0.86187
 Alpha  occ. eigenvalues --   -0.83145  -0.82500  -0.82448  -0.81842  -0.79765
 Alpha  occ. eigenvalues --   -0.78183  -0.77604  -0.77288  -0.77211  -0.76578
 Alpha  occ. eigenvalues --   -0.75929  -0.74624  -0.74520  -0.73102  -0.72690
 Alpha  occ. eigenvalues --   -0.72578  -0.72244  -0.72178  -0.71509  -0.70363
 Alpha  occ. eigenvalues --   -0.69295  -0.69182  -0.68778  -0.68139  -0.67913
 Alpha  occ. eigenvalues --   -0.67109  -0.66031  -0.65549  -0.65158  -0.64674
 Alpha  occ. eigenvalues --   -0.64329  -0.63957  -0.63225  -0.62958  -0.62278
 Alpha  occ. eigenvalues --   -0.61717  -0.60932  -0.60690  -0.60248  -0.60184
 Alpha  occ. eigenvalues --   -0.59758  -0.59643  -0.58443  -0.58158  -0.57469
 Alpha  occ. eigenvalues --   -0.57147  -0.57014  -0.56714  -0.56384  -0.55967
 Alpha  occ. eigenvalues --   -0.55574  -0.55517  -0.55220  -0.55138  -0.54673
 Alpha  occ. eigenvalues --   -0.54296  -0.54182  -0.53932  -0.53617  -0.53419
 Alpha  occ. eigenvalues --   -0.53260  -0.53223  -0.52697  -0.52202  -0.51926
 Alpha  occ. eigenvalues --   -0.51687  -0.51391  -0.50949  -0.50226  -0.50109
 Alpha  occ. eigenvalues --   -0.49562  -0.49311  -0.49269  -0.49114  -0.48755
 Alpha  occ. eigenvalues --   -0.48713  -0.48569  -0.48182  -0.48144  -0.47644
 Alpha  occ. eigenvalues --   -0.47491  -0.47339  -0.46928  -0.46864  -0.46637
 Alpha  occ. eigenvalues --   -0.46378  -0.46162  -0.45840  -0.45782  -0.45377
 Alpha  occ. eigenvalues --   -0.45185  -0.45160  -0.45126  -0.44871  -0.44738
 Alpha  occ. eigenvalues --   -0.44619  -0.44355  -0.44313  -0.44150  -0.43950
 Alpha  occ. eigenvalues --   -0.43817  -0.43800  -0.43419  -0.43353  -0.43123
 Alpha  occ. eigenvalues --   -0.43069  -0.42890  -0.42440  -0.42360  -0.41986
 Alpha  occ. eigenvalues --   -0.41863  -0.41807  -0.41739  -0.41509  -0.41392
 Alpha  occ. eigenvalues --   -0.41329  -0.41164  -0.41006  -0.40880  -0.40704
 Alpha  occ. eigenvalues --   -0.40611  -0.40334  -0.40255  -0.40111  -0.39960
 Alpha  occ. eigenvalues --   -0.39882  -0.39754  -0.39694  -0.39591  -0.39522
 Alpha  occ. eigenvalues --   -0.39307  -0.39130  -0.39108  -0.38926  -0.38773
 Alpha  occ. eigenvalues --   -0.38634  -0.38579  -0.38451  -0.38220  -0.38130
 Alpha  occ. eigenvalues --   -0.38011  -0.37957  -0.37785  -0.37773  -0.37505
 Alpha  occ. eigenvalues --   -0.37195  -0.37061  -0.36932  -0.36796  -0.36559
 Alpha  occ. eigenvalues --   -0.36383  -0.36244  -0.36022  -0.36015  -0.35857
 Alpha  occ. eigenvalues --   -0.35592  -0.35431  -0.35166  -0.34967  -0.34901
 Alpha  occ. eigenvalues --   -0.34639  -0.34464  -0.34352  -0.34213  -0.34166
 Alpha  occ. eigenvalues --   -0.33830  -0.33475  -0.33385  -0.33096  -0.32882
 Alpha  occ. eigenvalues --   -0.32774  -0.32587  -0.32402  -0.32319  -0.31998
 Alpha  occ. eigenvalues --   -0.31767  -0.31145  -0.30733  -0.30618  -0.30361
 Alpha  occ. eigenvalues --   -0.29815  -0.29267  -0.29169  -0.28880  -0.28649
 Alpha  occ. eigenvalues --   -0.28068  -0.27951  -0.27223  -0.26898  -0.26206
 Alpha  occ. eigenvalues --   -0.25986  -0.25801  -0.25744  -0.25514  -0.24919
 Alpha  occ. eigenvalues --   -0.24420  -0.24204  -0.23975  -0.23904  -0.23510
 Alpha  occ. eigenvalues --   -0.23290  -0.22962  -0.22423  -0.22395  -0.22359
 Alpha  occ. eigenvalues --   -0.21976  -0.21859  -0.21607  -0.21095  -0.21068
 Alpha  occ. eigenvalues --   -0.20911  -0.20349  -0.20034  -0.19940  -0.19854
 Alpha  occ. eigenvalues --   -0.19142  -0.18524  -0.17760
 Alpha virt. eigenvalues --   -0.10532  -0.05327  -0.05217  -0.04168  -0.02200
 Alpha virt. eigenvalues --   -0.01745  -0.01198   0.00103   0.00251   0.00370
 Alpha virt. eigenvalues --    0.00472   0.00569   0.01222   0.01606   0.01994

 Mulliken charges:
               1
     1  C    0.063419
     2  C    0.014603
     3  O   -0.319763
     4  H    0.050089
     5  H    0.036599
     6  H    0.004582
     7  N   -0.105416
     8  C    0.114198
     9  C    0.056540
    10  O   -0.297123
    11  C    0.075355
    12  C    0.124484
    13  O   -0.447819
    14  O   -0.383450
    15  H    0.108142
    16  H   -0.005670
    17  H    0.021140
    18  H    0.000683
    19  N   -0.133347
    20  C    0.142221
    21  C    0.053628
    22  O   -0.293955
    23  C    0.003708
    24  C    0.017911
    25  C   -0.070909
    26  C    0.049424
    27  N    0.076406
    28  H    0.126515
    29  H   -0.001424
    30  H    0.015219
    31  H    0.033725
    32  H   -0.012503
    33  H    0.028113
    34  H    0.054038
    35  H    0.049164
    36  H    0.078548
    37  H    0.079392
    38  H    0.196148
    39  H    0.188158
    40  H    0.195024
    41  N   -0.147527
    42  C    0.158580
    43  C    0.053821
    44  O   -0.282607
    45  C    0.058316
    46  C    0.071870
    47  O   -0.358655
    48  O   -0.476040
    49  H    0.120492
    50  H    0.013138
    51  H   -0.014109
    52  H    0.026595
    53  N   -0.163442
    54  C    0.249089
    55  C    0.000033
    56  O   -0.298781
    57  H    0.141978
    58  H    0.012644
    59  H    0.039671
    60  N   -0.180740
    61  C    0.151669
    62  C    0.054826
    63  O   -0.305839
    64  C    0.046673
    65  C    0.116238
    66  N   -0.059980
    67  O   -0.343422
    68  H    0.158256
    69  H    0.030984
    70  H    0.075585
    71  H    0.025704
    72  H    0.128617
    73  H    0.090272
    74  N   -0.141785
    75  C    0.214163
    76  C    0.045761
    77  O   -0.299400
    78  H    0.153307
    79  H    0.034211
    80  H    0.032909
    81  N   -0.149496
    82  C    0.148078
    83  C    0.159901
    84  O   -0.374059
    85  C    0.128475
    86  C   -0.027646
    87  C   -0.005628
    88  C   -0.000792
    89  C   -0.009628
    90  C   -0.040145
    91  C    0.169126
    92  O   -0.200260
    93  H    0.160151
    94  H   -0.005260
    95  H   -0.018937
    96  H   -0.022857
    97  H   -0.037569
    98  H   -0.034978
    99  H   -0.034073
   100  H   -0.038074
   101  H    0.175721
   102  N   -0.120958
   103  C    0.162829
   104  C    0.048858
   105  O   -0.289408
   106  C   -0.120827
   107  C    0.000996
   108  C    0.054374
   109  C    0.061656
   110  H    0.138512
   111  H    0.008931
   112  H   -0.009893
   113  H   -0.005937
   114  H   -0.009471
   115  H   -0.002401
   116  H    0.032783
   117  H    0.003622
   118  H    0.015300
   119  H    0.005533
   120  H    0.009223
   121  N   -0.140610
   122  C    0.075463
   123  C    0.127016
   124  O   -0.298139
   125  C    0.255611
   126  O   -0.332854
   127  H    0.134221
   128  H    0.016135
   129  H   -0.024123
   130  H   -0.015218
   131  H    0.161739
   132  N   -0.096547
   133  C    0.099821
   134  C    0.053554
   135  O   -0.244001
   136  C    0.015967
   137  H    0.108937
   138  H    0.027094
   139  H    0.012485
   140  H   -0.003585
   141  H    0.054508
   142  N   -0.142751
   143  C    0.154814
   144  C    0.061058
   145  O   -0.269416
   146  C   -0.006476
   147  H    0.105104
   148  H    0.015054
   149  H    0.025257
   150  H    0.000759
   151  H    0.014168
   152  N   -0.170464
   153  C    0.155044
   154  C    0.053888
   155  O   -0.285357
   156  C   -0.042179
   157  C    0.110996
   158  C    0.157152
   159  O   -0.454538
   160  O   -0.384003
   161  H    0.138624
   162  H   -0.007033
   163  H    0.044578
   164  H    0.020764
   165  H    0.005012
   166  H   -0.022597
   167  N   -0.160597
   168  C    0.167591
   169  H    0.027162
   170  H    0.009192
   171  H    0.006222
   172  H    0.122333
   173  Ca   1.300999
   174  O   -0.278002
   175  H    0.191601
   176  H    0.203926
 Sum of Mulliken charges =  -0.00000

 Dipole moment (field-independent basis, Debye):
    X=             26.5451    Y=             10.7513    Z=            -14.0617  Tot=             31.9055
 Quadrupole moment (field-independent basis, Debye-Ang):
   XX=           -683.4972   YY=           -335.4131   ZZ=           -530.5921
   XY=            144.0804   XZ=            -19.3310   YZ=              2.8267

 ESP charges:
               1
     1  C   -0.428549
     2  C    0.844856
     3  O   -0.666936
     4  H    0.139302
     5  H    0.114115
     6  H    0.086073
     7  N   -0.803816
     8  C    0.500542
     9  C    0.436702
    10  O   -0.561502
    11  C   -0.472377
    12  C    0.947705
    13  O   -0.879305
    14  O   -0.757765
    15  H    0.349869
    16  H   -0.053625
    17  H    0.122702
    18  H    0.080053
    19  N    0.066666
    20  C   -0.428058
    21  C    0.581546
    22  O   -0.575497
    23  C    0.155412
    24  C   -0.112846
    25  C   -0.100372
    26  C    0.163701
    27  N   -0.495652
    28  H    0.051195
    29  H    0.149974
    30  H   -0.012089
    31  H    0.070561
    32  H    0.021325
    33  H    0.064478
    34  H    0.066207
    35  H    0.059795
    36  H    0.069012
    37  H    0.053287
    38  H    0.385702
    39  H    0.350021
    40  H    0.347949
    41  N   -0.468214
    42  C    0.235327
    43  C    0.380478
    44  O   -0.529386
    45  C   -0.430219
    46  C    0.841379
    47  O   -0.698113
    48  O   -0.923307
    49  H    0.314124
    50  H    0.074145
    51  H    0.084299
    52  H    0.119350
    53  N   -0.152205
    54  C   -0.352577
    55  C    0.720643
    56  O   -0.608882
    57  H    0.209336
    58  H    0.135671
    59  H    0.147284
    60  N   -0.553758
    61  C   -0.018490
    62  C    0.308458
    63  O   -0.498915
    64  C   -0.368676
    65  C    0.626592
    66  N   -0.829780
    67  O   -0.415713
    68  H    0.487704
    69  H    0.162239
    70  H    0.184071
    71  H    0.118500
    72  H    0.383108
    73  H    0.344955
    74  N    0.030873
    75  C   -0.418003
    76  C    0.902391
    77  O   -0.608492
    78  H    0.190000
    79  H    0.155032
    80  H    0.123252
    81  N   -1.033666
    82  C    0.602074
    83  C    0.552839
    84  O   -0.653401
    85  C   -0.189526
    86  C    0.295656
    87  C   -0.359768
    88  C   -0.366399
    89  C   -0.104742
    90  C   -0.201268
    91  C    0.297222
    92  O   -0.558771
    93  H    0.511083
    94  H   -0.028346
    95  H    0.026037
    96  H   -0.049007
    97  H    0.162770
    98  H    0.241421
    99  H    0.130491
   100  H    0.123604
   101  H    0.422588
   102  N   -0.719469
   103  C    0.090202
   104  C    0.487012
   105  O   -0.574012
   106  C    0.224446
   107  C    0.275572
   108  C   -0.376529
   109  C   -0.355070
   110  H    0.348775
   111  H    0.186920
   112  H   -0.033794
   113  H   -0.049486
   114  H   -0.068295
   115  H    0.100115
   116  H    0.084444
   117  H    0.026974
   118  H    0.087374
   119  H    0.077560
   120  H    0.076624
   121  N    0.093054
   122  C   -0.303284
   123  C    0.564329
   124  O   -0.422228
   125  C    0.338293
   126  O   -0.632792
   127  H   -0.066685
   128  H    0.098226
   129  H   -0.045672
   130  H   -0.000986
   131  H    0.376975
   132  N   -0.434476
   133  C    0.056094
   134  C    0.545965
   135  O   -0.531131
   136  C   -0.299497
   137  H    0.291007
   138  H    0.107228
   139  H    0.082023
   140  H    0.067320
   141  H    0.126781
   142  N   -0.454995
   143  C    0.188153
   144  C    0.280731
   145  O   -0.511172
   146  C   -0.406078
   147  H    0.300331
   148  H    0.080220
   149  H    0.123151
   150  H    0.086680
   151  H    0.131141
   152  N    0.223502
   153  C   -0.328892
   154  C    0.488113
   155  O   -0.545199
   156  C    0.157508
   157  C   -0.020466
   158  C    0.677481
   159  O   -0.673193
   160  O   -0.635634
   161  H   -0.040507
   162  H    0.130829
   163  H    0.069603
   164  H   -0.094046
   165  H   -0.020026
   166  H   -0.011238
   167  N   -0.095501
   168  C   -0.248545
   169  H    0.122781
   170  H    0.082128
   171  H    0.091948
   172  H    0.138253
   173  Ca   1.576992
   174  O   -0.707641
   175  H    0.390118
   176  H    0.397832
 Sum of ESP charges =   0.00000

 Normal termination of Gaussian 16 at Sat Sep 14 23:50:10 2019.
