 Gaussian 16, Revision A.03,
 Gaussian 16:  ES64L-G16RevA.03 25-Dec-2016

 ----------------------------------------------------------------------
 #b3lyp/svp scf=(tight,noincore) Test #IOP(5/87=12) Density=Current Pop
 =(MK,readradii) iop(6/33=2) iop(6/42=6)
 ----------------------------------------------------------------------

 -----------------
 CaMKII_loop3_81.0
 -----------------
 Symbolic Z-matrix:
 Charge =  0 Multiplicity = 1

                         Standard orientation:
 ---------------------------------------------------------------------
 Center     Atomic      Atomic             Coordinates (Angstroms)
 Number     Number       Type             X           Y           Z
 ---------------------------------------------------------------------
      1          6           0        1.953591    1.309125    6.065933
      2          6           0        1.410269    1.347983    4.636741
      3          8           0        2.240220    1.400088    3.739097
      4          1           0        1.777181    2.270370    6.547365
      5          1           0        1.446208    0.523461    6.626868
      6          1           0        3.023825    1.106743    6.042748
      7          7           0        0.108550    1.301915    4.354597
      8          6           0       -0.426128    1.541568    3.023926
      9          6           0       -0.289514    2.990519    2.585201
     10          8           0       -0.784754    3.888426    3.260033
     11          6           0       -1.852062    0.996816    2.984444
     12          6           0       -2.606594    1.180179    1.678168
     13          8           0       -3.777448    0.769951    1.608065
     14          8           0       -2.037587    1.735161    0.708258
     15          1           0       -0.528706    1.241073    5.140475
     16          1           0        0.169147    0.905532    2.366883
     17          1           0       -2.344305    1.643261    3.712734
     18          1           0       -1.866932   -0.078864    3.196789
     19          7           0        0.519752    3.165692    1.526852
     20          6           0        1.115100    4.411774    1.118267
     21          6           0        0.116615    5.390008    0.517446
     22          8           0        0.017306    6.529698    0.977386
     23          6           0        2.334038    4.185336    0.222324
     24          6           0        3.252763    5.398114    0.245038
     25          6           0        4.432053    5.259880   -0.714528
     26          6           0        5.305870    6.512031   -0.788422
     27          7           0        6.178534    6.467985   -1.978009
     28          1           0        0.823298    2.352511    1.008782
     29          1           0        1.556034    4.911132    1.985285
     30          1           0        2.065797    3.840142   -0.782209
     31          1           0        2.836352    3.354638    0.705046
     32          1           0        3.748965    5.539049    1.209414
     33          1           0        2.857208    6.350784   -0.092682
     34          1           0        4.043607    5.075632   -1.725944
     35          1           0        4.968673    4.360227   -0.438370
     36          1           0        5.913403    6.663299    0.100466
     37          1           0        4.633357    7.358058   -0.933213
     38          1           0        6.984598    7.078855   -1.916377
     39          1           0        6.516474    5.520888   -2.072897
     40          1           0        5.643731    6.696918   -2.801645
     41          7           0       -0.779438    4.873410   -0.330326
     42          6           0       -1.948555    5.496026   -0.920169
     43          6           0       -3.311612    5.115168   -0.375540
     44          8           0       -4.274094    5.584280   -0.986328
     45          6           0       -1.804605    5.432865   -2.441283
     46          6           0       -1.598672    4.039397   -2.997286
     47          8           0       -1.809492    3.078719   -2.223623
     48          8           0       -1.402453    3.751757   -4.200474
     49          1           0       -0.736100    3.893832   -0.572708
     50          1           0       -1.853827    6.541928   -0.637300
     51          1           0       -0.940971    6.067524   -2.654460
     52          1           0       -2.625041    5.990024   -2.892789
     53          7           0       -3.434400    4.348953    0.705588
     54          6           0       -4.647562    3.885433    1.348697
     55          6           0       -5.777154    3.367470    0.479538
     56          8           0       -6.805756    4.023347    0.363773
     57          1           0       -2.574270    3.906145    0.987542
     58          1           0       -5.061907    4.670197    1.975007
     59          1           0       -4.467155    3.023065    2.005411
     60          7           0       -5.544337    2.205429   -0.132309
     61          6           0       -6.488536    1.396001   -0.884517
     62          6           0       -6.769511    0.032780   -0.249551
     63          8           0       -7.452225   -0.818180   -0.815208
     64          6           0       -5.994436    1.316810   -2.328571
     65          6           0       -4.874663    0.296821   -2.497780
     66          7           0       -4.838350   -0.423654   -3.619830
     67          8           0       -3.902746    0.279371   -1.747666
     68          1           0       -4.639619    1.804610    0.062186
     69          1           0       -7.482726    1.838284   -0.871466
     70          1           0       -5.601517    2.245406   -2.732085
     71          1           0       -6.784303    0.975867   -2.986423
     72          1           0       -5.562148   -0.356655   -4.319135
     73          1           0       -3.994143   -0.953351   -3.813057
     74          7           0       -6.151810   -0.274837    0.889579
     75          6           0       -6.461089   -1.475081    1.645530
     76          6           0       -5.468889   -2.625330    1.559132
     77          8           0       -5.795662   -3.693494    2.076862
     78          1           0       -5.454607    0.333596    1.284443
     79          1           0       -7.401066   -1.914157    1.314538
     80          1           0       -6.690597   -1.242812    2.687393
     81          7           0       -4.285100   -2.321456    1.008491
     82          6           0       -3.237349   -3.282062    0.696152
     83          6           0       -1.849383   -2.653921    0.733443
     84          8           0       -1.618703   -1.552151    0.238883
     85          6           0       -3.413569   -3.973296   -0.650563
     86          6           0       -4.780636   -4.543709   -0.952487
     87          6           0       -4.971669   -5.854320   -0.512823
     88          6           0       -5.706592   -3.807659   -1.712641
     89          6           0       -6.205056   -6.465726   -0.766274
     90          6           0       -6.939874   -4.446185   -1.904738
     91          6           0       -7.212272   -5.737726   -1.428795
     92          8           0       -8.452596   -6.272510   -1.658145
     93          1           0       -4.150172   -1.344002    0.819345
     94          1           0       -3.371078   -4.037455    1.465891
     95          1           0       -2.619572   -4.715005   -0.740206
     96          1           0       -3.293034   -3.145463   -1.355662
     97          1           0       -4.182923   -6.400468   -0.005869
     98          1           0       -5.547511   -2.875624   -2.223430
     99          1           0       -6.500692   -7.450259   -0.434921
    100          1           0       -7.661941   -3.940172   -2.538748
    101          1           0       -9.095293   -5.572515   -1.670325
    102          7           0       -0.932429   -3.353169    1.407199
    103          6           0        0.466047   -2.986160    1.547445
    104          6           0        1.275043   -3.797523    0.555016
    105          8           0        1.032524   -4.994699    0.362002
    106          6           0        1.010641   -3.356703    2.927813
    107          6           0        0.083883   -2.779368    3.991394
    108          6           0        2.459176   -2.953117    3.136296
    109          6           0        0.403895   -3.273116    5.395924
    110          1           0       -1.155977   -4.271088    1.746685
    111          1           0        0.669763   -1.923982    1.382590
    112          1           0        0.975678   -4.439557    3.032711
    113          1           0       -0.930859   -3.114958    3.782879
    114          1           0        0.204191   -1.693862    3.969014
    115          1           0        2.525958   -1.864317    3.254001
    116          1           0        2.817030   -3.309055    4.109460
    117          1           0        3.151486   -3.196456    2.325066
    118          1           0        1.464136   -3.227780    5.635787
    119          1           0       -0.189379   -2.605739    6.024441
    120          1           0        0.168425   -4.332761    5.477202
    121          7           0        2.213910   -3.175396   -0.160936
    122          6           0        3.112212   -3.885826   -1.050230
    123          6           0        4.569277   -3.851272   -0.612090
    124          8           0        4.943639   -3.338901    0.443339
    125          6           0        3.037017   -3.445055   -2.506310
    126          8           0        3.832000   -2.281215   -2.658219
    127          1           0        2.521189   -2.238412    0.052232
    128          1           0        2.882274   -4.945521   -1.066776
    129          1           0        2.011259   -3.219195   -2.789341
    130          1           0        3.470539   -4.249196   -3.106991
    131          1           0        4.188338   -2.307778   -3.545810
    132          7           0        5.470368   -4.517648   -1.333600
    133          6           0        6.898871   -4.471550   -1.056552
    134          6           0        7.444569   -3.052695   -1.149091
    135          8           0        8.064600   -2.575230   -0.202419
    136          6           0        7.679558   -5.478728   -1.891010
    137          1           0        5.193526   -5.096118   -2.121781
    138          1           0        7.002732   -4.836585   -0.044592
    139          1           0        7.532019   -5.370405   -2.970731
    140          1           0        8.749694   -5.487722   -1.699628
    141          1           0        7.352933   -6.492094   -1.663619
    142          7           0        7.150292   -2.337671   -2.245605
    143          6           0        7.531471   -0.969376   -2.506895
    144          6           0        6.904108    0.071506   -1.586091
    145          8           0        7.457869    1.147893   -1.342698
    146          6           0        7.418005   -0.799207   -4.014067
    147          1           0        6.792171   -2.847633   -3.034330
    148          1           0        8.608334   -0.880114   -2.343806
    149          1           0        6.490203   -1.189517   -4.434354
    150          1           0        7.653920    0.189797   -4.418314
    151          1           0        8.242481   -1.335521   -4.482370
    152          7           0        5.822030   -0.334104   -0.919242
    153          6           0        5.229420    0.452783    0.138597
    154          6           0        5.752837    0.070276    1.521862
    155          8           0        6.084126    1.030796    2.214790
    156          6           0        3.707443    0.385466    0.126148
    157          6           0        3.107623    0.961313   -1.155225
    158          6           0        1.603862    0.763032   -1.264713
    159          8           0        0.862295    0.426518   -0.308765
    160          8           0        1.090725    1.018326   -2.373367
    161          1           0        5.323736   -1.149648   -1.233235
    162          1           0        5.533443    1.489796    0.016229
    163          1           0        3.340535    0.905957    1.008796
    164          1           0        3.358619   -0.639294    0.213262
    165          1           0        3.589226    0.441524   -1.990497
    166          1           0        3.446167    1.995768   -1.242927
    167          7           0        6.040333   -1.193071    1.857721
    168          6           0        6.678569   -1.681674    3.055352
    169          1           0        7.608177   -1.136823    3.219280
    170          1           0        6.015771   -1.532469    3.907554
    171          1           0        6.896155   -2.743954    2.944312
    172          1           0        5.705918   -1.915967    1.225829
    173         20           0       -1.451884    0.621150   -1.543793
    174          8           0       -1.919785    0.663557   -4.236314
    175          1           0       -1.963158    1.113391   -5.077247
    176          1           0       -1.633116   -0.221228   -4.448626
 ---------------------------------------------------------------------

 SCF Done:  E(RB3LYP) =  -5333.56944311     A.U. after   19 cycles

 The electronic state is 1-A.
 Alpha  occ. eigenvalues -- -145.36428 -19.19141 -19.15688 -19.14750 -19.14108
 Alpha  occ. eigenvalues --  -19.12615 -19.12076 -19.12024 -19.11421 -19.10262
 Alpha  occ. eigenvalues --  -19.07169 -19.06804 -19.06798 -19.06507 -19.06342
 Alpha  occ. eigenvalues --  -19.05843 -19.05798 -19.05417 -19.05275 -19.05234
 Alpha  occ. eigenvalues --  -19.03352 -19.02425 -19.00633 -18.98581 -15.42190
 Alpha  occ. eigenvalues --  -14.57997 -14.40473 -14.38872 -14.38105 -14.37603
 Alpha  occ. eigenvalues --  -14.37094 -14.35604 -14.33617 -14.32891 -14.32089
 Alpha  occ. eigenvalues --  -14.31806 -14.31100 -14.30023 -14.29563 -14.29216
 Alpha  occ. eigenvalues --  -12.55818 -12.55757 -12.55741 -10.34264 -10.33392
 Alpha  occ. eigenvalues --  -10.30970 -10.30707 -10.30376 -10.30039 -10.29193
 Alpha  occ. eigenvalues --  -10.28804 -10.27199 -10.27107 -10.26105 -10.26046
 Alpha  occ. eigenvalues --  -10.25984 -10.25703 -10.25455 -10.25146 -10.25121
 Alpha  occ. eigenvalues --  -10.24980 -10.24877 -10.24109 -10.23966 -10.23525
 Alpha  occ. eigenvalues --  -10.23051 -10.22965 -10.22882 -10.22502 -10.22321
 Alpha  occ. eigenvalues --  -10.21710 -10.21637 -10.21039 -10.20886 -10.20122
 Alpha  occ. eigenvalues --  -10.19975 -10.19891 -10.19615 -10.19592 -10.19086
 Alpha  occ. eigenvalues --  -10.18865 -10.18744 -10.18086 -10.17924 -10.17869
 Alpha  occ. eigenvalues --  -10.17827 -10.17808 -10.17720 -10.17677 -10.17590
 Alpha  occ. eigenvalues --  -10.17508 -10.17285 -10.17250 -10.17028 -10.16981
 Alpha  occ. eigenvalues --  -10.16393 -10.12796  -1.79045  -1.13216  -1.08490
 Alpha  occ. eigenvalues --   -1.07112  -1.06825  -1.06631  -1.06242  -1.05243
 Alpha  occ. eigenvalues --   -1.05111  -1.04563  -1.04222  -1.02988  -1.02867
 Alpha  occ. eigenvalues --   -1.01959  -1.01402  -1.00716  -1.00331  -0.99772
 Alpha  occ. eigenvalues --   -0.99192  -0.98956  -0.98939  -0.97766  -0.97021
 Alpha  occ. eigenvalues --   -0.96574  -0.95607  -0.95410  -0.94725  -0.94668
 Alpha  occ. eigenvalues --   -0.94138  -0.92271  -0.91628  -0.90738  -0.90653
 Alpha  occ. eigenvalues --   -0.90218  -0.89813  -0.89757  -0.88349  -0.88209
 Alpha  occ. eigenvalues --   -0.87830  -0.87104  -0.86792  -0.85257  -0.83632
 Alpha  occ. eigenvalues --   -0.83455  -0.83377  -0.82474  -0.80677  -0.80614
 Alpha  occ. eigenvalues --   -0.79251  -0.78500  -0.78126  -0.76521  -0.76203
 Alpha  occ. eigenvalues --   -0.75072  -0.74597  -0.72948  -0.72705  -0.72482
 Alpha  occ. eigenvalues --   -0.72388  -0.72169  -0.71401  -0.70851  -0.70761
 Alpha  occ. eigenvalues --   -0.70689  -0.69856  -0.69242  -0.68256  -0.68007
 Alpha  occ. eigenvalues --   -0.66956  -0.66612  -0.65527  -0.65310  -0.64207
 Alpha  occ. eigenvalues --   -0.63381  -0.63324  -0.62975  -0.62608  -0.62430
 Alpha  occ. eigenvalues --   -0.61085  -0.60807  -0.60773  -0.60360  -0.60044
 Alpha  occ. eigenvalues --   -0.59915  -0.59682  -0.58694  -0.57958  -0.57659
 Alpha  occ. eigenvalues --   -0.57533  -0.57434  -0.56756  -0.56201  -0.56022
 Alpha  occ. eigenvalues --   -0.55906  -0.55793  -0.55657  -0.55494  -0.55202
 Alpha  occ. eigenvalues --   -0.54732  -0.54526  -0.54347  -0.53756  -0.53437
 Alpha  occ. eigenvalues --   -0.53005  -0.52663  -0.51921  -0.51622  -0.51542
 Alpha  occ. eigenvalues --   -0.51427  -0.51120  -0.50928  -0.50799  -0.50291
 Alpha  occ. eigenvalues --   -0.49461  -0.49139  -0.49038  -0.48779  -0.48577
 Alpha  occ. eigenvalues --   -0.48473  -0.48306  -0.48017  -0.47729  -0.47609
 Alpha  occ. eigenvalues --   -0.47540  -0.47296  -0.46648  -0.46575  -0.46547
 Alpha  occ. eigenvalues --   -0.46200  -0.45976  -0.45777  -0.45636  -0.45396
 Alpha  occ. eigenvalues --   -0.45068  -0.44605  -0.44538  -0.44531  -0.44437
 Alpha  occ. eigenvalues --   -0.44358  -0.44146  -0.43876  -0.43690  -0.43626
 Alpha  occ. eigenvalues --   -0.43535  -0.43370  -0.43310  -0.42861  -0.42762
 Alpha  occ. eigenvalues --   -0.42494  -0.42461  -0.42305  -0.42228  -0.42120
 Alpha  occ. eigenvalues --   -0.42019  -0.41818  -0.41601  -0.41498  -0.41418
 Alpha  occ. eigenvalues --   -0.41205  -0.41183  -0.41000  -0.40846  -0.40719
 Alpha  occ. eigenvalues --   -0.40634  -0.40460  -0.40318  -0.40045  -0.39981
 Alpha  occ. eigenvalues --   -0.39732  -0.39641  -0.39426  -0.39394  -0.39175
 Alpha  occ. eigenvalues --   -0.39114  -0.38949  -0.38920  -0.38839  -0.38759
 Alpha  occ. eigenvalues --   -0.38644  -0.38395  -0.38293  -0.38102  -0.38085
 Alpha  occ. eigenvalues --   -0.37716  -0.37615  -0.37406  -0.37209  -0.36986
 Alpha  occ. eigenvalues --   -0.36732  -0.36604  -0.36485  -0.36317  -0.36116
 Alpha  occ. eigenvalues --   -0.35853  -0.35751  -0.35274  -0.35159  -0.34857
 Alpha  occ. eigenvalues --   -0.34738  -0.34453  -0.34301  -0.34182  -0.34111
 Alpha  occ. eigenvalues --   -0.34028  -0.33925  -0.33636  -0.33586  -0.33481
 Alpha  occ. eigenvalues --   -0.33264  -0.33183  -0.33071  -0.32998  -0.32597
 Alpha  occ. eigenvalues --   -0.32475  -0.32396  -0.32060  -0.31833  -0.31577
 Alpha  occ. eigenvalues --   -0.31515  -0.31170  -0.31083  -0.30643  -0.29749
 Alpha  occ. eigenvalues --   -0.29497  -0.29269  -0.29215  -0.28668  -0.28418
 Alpha  occ. eigenvalues --   -0.28259  -0.27716  -0.27594  -0.26981  -0.26763
 Alpha  occ. eigenvalues --   -0.25975  -0.25677  -0.25384  -0.24863  -0.24423
 Alpha  occ. eigenvalues --   -0.24255  -0.24073  -0.23876  -0.23568  -0.23159
 Alpha  occ. eigenvalues --   -0.23039  -0.22513  -0.22400  -0.22105  -0.22032
 Alpha  occ. eigenvalues --   -0.21640  -0.21272  -0.21208  -0.21105  -0.20626
 Alpha  occ. eigenvalues --   -0.20512  -0.20263  -0.19772  -0.18849  -0.18582
 Alpha  occ. eigenvalues --   -0.17677  -0.17206  -0.14202
 Alpha virt. eigenvalues --   -0.09862  -0.04376  -0.03678  -0.03128  -0.03022
 Alpha virt. eigenvalues --   -0.02327  -0.01419  -0.00605  -0.00202  -0.00113
 Alpha virt. eigenvalues --   -0.00078   0.00449   0.00760   0.01090   0.01695

 Mulliken charges:
               1
     1  C    0.063616
     2  C    0.012195
     3  O   -0.289190
     4  H    0.037617
     5  H    0.005805
     6  H    0.033395
     7  N   -0.126852
     8  C    0.112969
     9  C    0.101856
    10  O   -0.273579
    11  C    0.060429
    12  C    0.159150
    13  O   -0.400709
    14  O   -0.456464
    15  H    0.110794
    16  H    0.006736
    17  H    0.013141
    18  H    0.019280
    19  N   -0.125495
    20  C    0.132457
    21  C    0.053334
    22  O   -0.280730
    23  C   -0.003508
    24  C    0.026573
    25  C   -0.099524
    26  C    0.051290
    27  N    0.073346
    28  H    0.140483
    29  H   -0.007295
    30  H    0.039360
    31  H    0.033505
    32  H    0.022780
    33  H    0.017617
    34  H    0.014883
    35  H    0.056732
    36  H    0.081592
    37  H    0.066439
    38  H    0.191479
    39  H    0.200068
    40  H    0.195132
    41  N   -0.171908
    42  C    0.145197
    43  C    0.057816
    44  O   -0.297807
    45  C    0.086514
    46  C    0.114056
    47  O   -0.479662
    48  O   -0.380606
    49  H    0.125242
    50  H    0.004428
    51  H   -0.037078
    52  H    0.021221
    53  N   -0.123151
    54  C    0.230810
    55  C    0.001732
    56  O   -0.269460
    57  H    0.146225
    58  H    0.001487
    59  H    0.015242
    60  N   -0.169757
    61  C    0.153441
    62  C    0.026404
    63  O   -0.301094
    64  C    0.128867
    65  C    0.080734
    66  N   -0.033106
    67  O   -0.378474
    68  H    0.150503
    69  H    0.032716
    70  H    0.082152
    71  H   -0.014271
    72  H    0.132039
    73  H    0.099089
    74  N   -0.152653
    75  C    0.204756
    76  C    0.049549
    77  O   -0.295084
    78  H    0.142072
    79  H    0.029804
    80  H    0.026413
    81  N   -0.157926
    82  C    0.111886
    83  C    0.138636
    84  O   -0.331889
    85  C    0.146840
    86  C   -0.005813
    87  C    0.033874
    88  C    0.034412
    89  C   -0.017606
    90  C   -0.057975
    91  C    0.176866
    92  O   -0.215179
    93  H    0.133963
    94  H   -0.013671
    95  H   -0.007642
    96  H   -0.047354
    97  H   -0.032766
    98  H   -0.056378
    99  H   -0.031905
   100  H   -0.039162
   101  H    0.176309
   102  N   -0.105164
   103  C    0.147399
   104  C    0.073803
   105  O   -0.294056
   106  C   -0.120164
   107  C    0.013133
   108  C    0.022032
   109  C    0.045945
   110  H    0.134769
   111  H    0.035086
   112  H   -0.017535
   113  H   -0.003928
   114  H    0.014521
   115  H    0.023236
   116  H    0.009745
   117  H    0.017803
   118  H    0.000526
   119  H    0.017740
   120  H    0.001369
   121  N   -0.109603
   122  C    0.091750
   123  C    0.094872
   124  O   -0.276458
   125  C    0.221966
   126  O   -0.298493
   127  H    0.150223
   128  H    0.036874
   129  H    0.030799
   130  H   -0.013225
   131  H    0.172200
   132  N   -0.135059
   133  C    0.109956
   134  C    0.051271
   135  O   -0.234544
   136  C    0.025022
   137  H    0.110209
   138  H    0.019387
   139  H    0.000051
   140  H    0.046087
   141  H    0.028403
   142  N   -0.135091
   143  C    0.096399
   144  C    0.099189
   145  O   -0.296133
   146  C    0.024012
   147  H    0.087461
   148  H    0.026115
   149  H   -0.004688
   150  H    0.024957
   151  H    0.014618
   152  N   -0.145797
   153  C    0.113632
   154  C    0.074910
   155  O   -0.295958
   156  C    0.014207
   157  C    0.083525
   158  C    0.117189
   159  O   -0.424442
   160  O   -0.393414
   161  H    0.136839
   162  H   -0.015589
   163  H    0.049972
   164  H   -0.072538
   165  H   -0.020936
   166  H   -0.023737
   167  N   -0.160055
   168  C    0.151293
   169  H    0.022190
   170  H    0.015959
   171  H    0.010959
   172  H    0.134016
   173  Ca   1.285458
   174  O   -0.249637
   175  H    0.183083
   176  H    0.141459
 Sum of Mulliken charges =  -0.00000

 Dipole moment (field-independent basis, Debye):
    X=             34.0217    Y=             -4.2517    Z=            -16.7315  Tot=             38.1509
 Quadrupole moment (field-independent basis, Debye-Ang):
   XX=           -528.3914   YY=           -500.3386   ZZ=           -502.4739
   XY=            131.7244   XZ=            -78.3725   YZ=             -7.8207

 ESP charges:
               1
     1  C   -0.462251
     2  C    0.859499
     3  O   -0.643140
     4  H    0.119667
     5  H    0.090471
     6  H    0.140840
     7  N   -0.787600
     8  C    0.296395
     9  C    0.472233
    10  O   -0.518885
    11  C   -0.289356
    12  C    0.966731
    13  O   -0.738059
    14  O   -0.780869
    15  H    0.365227
    16  H    0.040050
    17  H    0.062640
    18  H    0.018316
    19  N   -0.010466
    20  C   -0.587565
    21  C    0.729705
    22  O   -0.578346
    23  C    0.387433
    24  C   -0.452246
    25  C    0.333775
    26  C    0.025521
    27  N   -0.377105
    28  H    0.152996
    29  H    0.186544
    30  H   -0.011409
    31  H    0.033108
    32  H    0.111285
    33  H    0.096880
    34  H   -0.050878
    35  H   -0.066529
    36  H    0.078214
    37  H    0.071655
    38  H    0.342068
    39  H    0.307968
    40  H    0.333554
    41  N   -0.529532
    42  C    0.159307
    43  C    0.440990
    44  O   -0.512766
    45  C   -0.291809
    46  C    0.733030
    47  O   -0.676410
    48  O   -0.704312
    49  H    0.231356
    50  H    0.066509
    51  H    0.047651
    52  H    0.096925
    53  N   -0.246834
    54  C   -0.003122
    55  C    0.501488
    56  O   -0.549283
    57  H    0.170884
    58  H    0.051564
    59  H    0.046456
    60  N   -0.258153
    61  C    0.074315
    62  C    0.389918
    63  O   -0.525348
    64  C   -0.203998
    65  C    0.757293
    66  N   -0.872431
    67  O   -0.635603
    68  H    0.055999
    69  H    0.098088
    70  H    0.148763
    71  H    0.036920
    72  H    0.399918
    73  H    0.371947
    74  N   -0.226331
    75  C   -0.113748
    76  C    0.646609
    77  O   -0.565563
    78  H    0.226374
    79  H    0.106959
    80  H    0.067268
    81  N   -0.640902
    82  C    0.331041
    83  C    0.499283
    84  O   -0.591055
    85  C   -0.128904
    86  C    0.037184
    87  C   -0.159208
    88  C   -0.158416
    89  C   -0.237013
    90  C   -0.308237
    91  C    0.419021
    92  O   -0.583209
    93  H    0.357966
    94  H    0.016544
    95  H    0.038351
    96  H   -0.011422
    97  H    0.140518
    98  H    0.182618
    99  H    0.150558
   100  H    0.130451
   101  H    0.418303
   102  N   -0.486357
   103  C    0.041130
   104  C    0.619345
   105  O   -0.564702
   106  C    0.087087
   107  C    0.362794
   108  C   -0.239213
   109  C   -0.413796
   110  H    0.277540
   111  H    0.120851
   112  H   -0.011572
   113  H   -0.064822
   114  H   -0.048573
   115  H    0.045267
   116  H    0.076956
   117  H    0.022220
   118  H    0.091934
   119  H    0.083944
   120  H    0.087036
   121  N   -0.624150
   122  C    0.416700
   123  C    0.288597
   124  O   -0.328384
   125  C   -0.105169
   126  O   -0.472640
   127  H    0.382698
   128  H    0.012843
   129  H    0.102944
   130  H    0.037708
   131  H    0.392399
   132  N   -0.409975
   133  C    0.134303
   134  C    0.461682
   135  O   -0.506726
   136  C   -0.307995
   137  H    0.281040
   138  H    0.091959
   139  H    0.065069
   140  H    0.120871
   141  H    0.098999
   142  N   -0.406369
   143  C    0.124505
   144  C    0.270866
   145  O   -0.521831
   146  C   -0.283922
   147  H    0.243196
   148  H    0.108994
   149  H    0.057006
   150  H    0.106756
   151  H    0.083958
   152  N    0.097691
   153  C   -0.154631
   154  C    0.507349
   155  O   -0.564433
   156  C   -0.126830
   157  C    0.119960
   158  C    0.874369
   159  O   -0.922229
   160  O   -0.811827
   161  H    0.070156
   162  H    0.117580
   163  H    0.094694
   164  H   -0.058246
   165  H   -0.081545
   166  H   -0.066521
   167  N   -0.073726
   168  C   -0.204393
   169  H    0.093909
   170  H    0.075725
   171  H    0.091351
   172  H    0.048697
   173  Ca   1.675766
   174  O   -0.774509
   175  H    0.445912
   176  H    0.339899
 Sum of ESP charges =  -0.00000

 Normal termination of Gaussian 16 at Sun Sep 15 00:56:13 2019.
