 Gaussian 16, Revision A.03,
 Gaussian 16:  ES64L-G16RevA.03 25-Dec-2016

 ----------------------------------------------------------------------
 #b3lyp/svp scf=(tight,noincore) Test #IOP(5/87=12) Density=Current Pop
 =(MK,readradii) iop(6/33=2) iop(6/42=6)
 ----------------------------------------------------------------------

 -----------------
 CaMKII_loop3_80.0
 -----------------
 Symbolic Z-matrix:
 Charge =  0 Multiplicity = 1

                         Standard orientation:
 ---------------------------------------------------------------------
 Center     Atomic      Atomic             Coordinates (Angstroms)
 Number     Number       Type             X           Y           Z
 ---------------------------------------------------------------------
      1          6           0       -2.239093   -2.300230    5.186862
      2          6           0       -1.474636   -2.183191    3.884093
      3          8           0       -2.119211   -2.365440    2.850309
      4          1           0       -3.252442   -1.923702    5.048108
      5          1           0       -2.278934   -3.346005    5.492594
      6          1           0       -1.737237   -1.714559    5.957108
      7          7           0       -0.151105   -1.992844    3.942707
      8          6           0        0.609648   -2.007212    2.703333
      9          6           0        0.809399   -3.385291    2.100013
     10          8           0        1.591668   -4.217204    2.557152
     11          6           0        2.003606   -1.426980    2.933790
     12          6           0        2.762598   -1.161453    1.635627
     13          8           0        2.270855   -1.580207    0.570106
     14          8           0        3.788872   -0.450709    1.738122
     15          1           0        0.320525   -1.781327    4.804638
     16          1           0        0.179479   -1.311064    1.982200
     17          1           0        2.625703   -2.032528    3.588929
     18          1           0        1.863032   -0.473646    3.448857
     19          7           0        0.081541   -3.633955    1.002566
     20          6           0       -0.090896   -4.931768    0.387710
     21          6           0        1.106269   -5.535072   -0.322798
     22          8           0        1.199871   -6.743710   -0.500651
     23          6           0       -1.372445   -4.850387   -0.434973
     24          6           0       -1.927309   -6.088093   -1.140032
     25          6           0       -3.107608   -5.925170   -2.104839
     26          6           0       -4.290745   -5.372113   -1.320992
     27          7           0       -5.075034   -6.351216   -0.539616
     28          1           0       -0.686854   -2.988070    0.892560
     29          1           0       -0.321701   -5.619471    1.202875
     30          1           0       -1.313327   -4.062006   -1.182409
     31          1           0       -2.114642   -4.599358    0.318040
     32          1           0       -2.293292   -6.828423   -0.438698
     33          1           0       -1.104474   -6.484490   -1.735357
     34          1           0       -3.406511   -6.840460   -2.609320
     35          1           0       -2.981641   -5.297943   -2.983655
     36          1           0       -5.038786   -4.786153   -1.863196
     37          1           0       -3.940253   -4.657249   -0.590085
     38          1           0       -4.484233   -7.036235   -0.095202
     39          1           0       -5.727742   -5.909869    0.089418
     40          1           0       -5.483093   -6.972085   -1.221019
     41          7           0        2.107733   -4.744997   -0.722987
     42          6           0        3.302556   -5.087396   -1.467004
     43          6           0        4.573199   -4.720061   -0.707049
     44          8           0        5.618698   -4.931260   -1.320342
     45          6           0        3.245641   -4.668097   -2.937361
     46          6           0        2.932344   -3.212120   -3.199800
     47          8           0        3.034365   -2.822652   -4.388289
     48          8           0        2.680822   -2.409733   -2.270600
     49          1           0        2.035808   -3.760804   -0.491707
     50          1           0        3.411932   -6.171693   -1.531321
     51          1           0        2.460573   -5.277151   -3.404930
     52          1           0        4.129720   -4.892770   -3.524920
     53          7           0        4.514018   -4.264035    0.543926
     54          6           0        5.684234   -3.907664    1.321032
     55          6           0        6.428602   -2.636517    0.912372
     56          8           0        7.571810   -2.495275    1.341355
     57          1           0        3.596050   -4.027139    0.870905
     58          1           0        6.369377   -4.754278    1.246710
     59          1           0        5.310430   -3.869041    2.346204
     60          7           0        5.813109   -1.804620    0.067437
     61          6           0        6.534911   -0.833405   -0.729208
     62          6           0        6.632518    0.546308   -0.086196
     63          8           0        7.036002    1.490012   -0.764447
     64          6           0        5.916330   -0.735419   -2.125473
     65          6           0        4.911481    0.399210   -2.293093
     66          7           0        5.184328    1.323839   -3.206227
     67          8           0        3.794646    0.351758   -1.784734
     68          1           0        4.830864   -1.766207   -0.143797
     69          1           0        7.502130   -1.295873   -0.911994
     70          1           0        5.365728   -1.655719   -2.311171
     71          1           0        6.671953   -0.718823   -2.914497
     72          1           0        5.969610    1.195243   -3.838600
     73          1           0        4.484028    2.048410   -3.275347
     74          7           0        6.147989    0.822435    1.118788
     75          6           0        6.329242    2.101649    1.779210
     76          6           0        5.070288    2.953450    1.808667
     77          8           0        5.122130    4.015639    2.429689
     78          1           0        5.518891    0.154688    1.556110
     79          1           0        7.099880    2.710730    1.316891
     80          1           0        6.593962    1.814519    2.795862
     81          7           0        3.925662    2.487396    1.297860
     82          6           0        2.765578    3.294661    0.991547
     83          6           0        1.481545    2.473162    1.005644
     84          8           0        1.377863    1.357262    0.513182
     85          6           0        2.913601    3.935622   -0.390683
     86          6           0        3.911218    5.064731   -0.544213
     87          6           0        3.282903    6.319610   -0.494206
     88          6           0        5.201753    4.900822   -1.045165
     89          6           0        3.994950    7.490048   -0.777513
     90          6           0        5.946249    6.071086   -1.284347
     91          6           0        5.339717    7.337497   -1.146064
     92          8           0        6.092035    8.418536   -1.495598
     93          1           0        3.898636    1.548424    0.924228
     94          1           0        2.816789    4.034384    1.781729
     95          1           0        1.946587    4.147621   -0.839058
     96          1           0        3.381226    3.193015   -1.036641
     97          1           0        2.299622    6.420292   -0.065344
     98          1           0        5.709892    3.950557   -1.114376
     99          1           0        3.633850    8.502520   -0.693805
    100          1           0        6.975353    5.934377   -1.561214
    101          1           0        7.018076    8.176702   -1.545250
    102          7           0        0.445574    3.072467    1.602131
    103          6           0       -0.932385    2.634050    1.573498
    104          6           0       -1.717834    3.505969    0.604412
    105          8           0       -1.764716    4.715776    0.800037
    106          6           0       -1.480976    2.727748    3.003906
    107          6           0       -0.516483    2.404211    4.135840
    108          6           0       -2.700454    1.820879    2.915803
    109          6           0       -1.106198    2.735969    5.506779
    110          1           0        0.618380    3.917313    2.122010
    111          1           0       -1.015363    1.575945    1.326660
    112          1           0       -1.870920    3.753444    3.061284
    113          1           0        0.519728    2.747351    4.073204
    114          1           0       -0.258500    1.354114    4.100619
    115          1           0       -2.412696    0.778062    2.768064
    116          1           0       -3.246978    1.906245    3.857411
    117          1           0       -3.417264    2.032513    2.124794
    118          1           0       -2.137923    2.408958    5.640968
    119          1           0       -0.459882    2.285456    6.251235
    120          1           0       -1.064802    3.794640    5.772866
    121          7           0       -2.368257    2.915281   -0.404021
    122          6           0       -3.380799    3.518374   -1.247962
    123          6           0       -4.834106    3.192992   -0.928392
    124          8           0       -5.176489    2.201725   -0.272599
    125          6           0       -3.116705    3.217196   -2.710202
    126          8           0       -2.974468    1.865612   -3.085290
    127          1           0       -2.277857    1.913661   -0.485785
    128          1           0       -3.266550    4.589135   -1.089792
    129          1           0       -2.179274    3.690529   -3.005631
    130          1           0       -3.936046    3.527815   -3.361966
    131          1           0       -2.225894    1.483762   -2.631056
    132          7           0       -5.825712    3.988975   -1.322384
    133          6           0       -7.191219    4.015498   -0.823499
    134          6           0       -7.895135    2.656419   -0.875525
    135          8           0       -8.611154    2.244649    0.021058
    136          6           0       -7.962003    5.192334   -1.401036
    137          1           0       -5.598097    4.715266   -1.974145
    138          1           0       -7.079117    4.150777    0.245862
    139          1           0       -8.439649    4.976003   -2.353745
    140          1           0       -8.752922    5.384447   -0.673615
    141          1           0       -7.338736    6.090560   -1.416167
    142          7           0       -7.601305    1.805689   -1.867756
    143          6           0       -8.080307    0.455093   -2.078344
    144          6           0       -7.447432   -0.583213   -1.158622
    145          8           0       -8.123056   -1.504016   -0.694883
    146          6           0       -8.100423    0.098955   -3.560694
    147          1           0       -6.858999    2.194313   -2.421158
    148          1           0       -9.114323    0.607541   -1.750212
    149          1           0       -8.611834   -0.864483   -3.655271
    150          1           0       -8.760263    0.853215   -3.974461
    151          1           0       -7.106188    0.139087   -4.021983
    152          7           0       -6.158217   -0.433700   -0.866438
    153          6           0       -5.516419   -1.254627    0.133699
    154          6           0       -6.026313   -0.936269    1.532004
    155          8           0       -6.316141   -1.838096    2.319474
    156          6           0       -4.002048   -1.045040    0.167629
    157          6           0       -3.304332   -1.220598   -1.182398
    158          6           0       -1.835215   -0.872490   -1.021724
    159          8           0       -1.420227    0.280406   -1.265687
    160          8           0       -1.008562   -1.728380   -0.629046
    161          1           0       -5.683240    0.448533   -1.019608
    162          1           0       -5.735074   -2.300108   -0.094901
    163          1           0       -3.518136   -1.748085    0.849214
    164          1           0       -3.905078   -0.020491    0.492430
    165          1           0       -3.781075   -0.592384   -1.939804
    166          1           0       -3.330876   -2.258937   -1.500119
    167          7           0       -6.273969    0.335851    1.868721
    168          6           0       -6.969957    0.736804    3.075592
    169          1           0       -8.023643    0.901486    2.849178
    170          1           0       -6.878875   -0.048575    3.826354
    171          1           0       -6.532820    1.659061    3.458731
    172          1           0       -6.010453    1.024161    1.181343
    173         20           0        1.222547   -0.582696   -1.438033
    174          8           0        1.402598    1.756883   -2.852972
    175          1           0        0.813395    2.279581   -3.403450
    176          1           0        2.236747    2.225240   -2.893434
 ---------------------------------------------------------------------

 SCF Done:  E(RB3LYP) =  -5333.58654460     A.U. after   18 cycles

 The electronic state is 1-A.
 Alpha  occ. eigenvalues -- -145.37957 -19.18576 -19.15335 -19.14948 -19.14919
 Alpha  occ. eigenvalues --  -19.12174 -19.11735 -19.11509 -19.11485 -19.10515
 Alpha  occ. eigenvalues --  -19.10398 -19.10098 -19.10085 -19.08190 -19.07790
 Alpha  occ. eigenvalues --  -19.06727 -19.06294 -19.06065 -19.05844 -19.05421
 Alpha  occ. eigenvalues --  -19.04731 -19.04520 -19.03352 -18.99942 -15.43714
 Alpha  occ. eigenvalues --  -14.57329 -14.41025 -14.37650 -14.37232 -14.36941
 Alpha  occ. eigenvalues --  -14.36279 -14.36055 -14.35078 -14.33817 -14.32661
 Alpha  occ. eigenvalues --  -14.32208 -14.31600 -14.31174 -14.30967 -14.30831
 Alpha  occ. eigenvalues --  -12.57333 -12.57303 -12.57258 -10.33896 -10.33423
 Alpha  occ. eigenvalues --  -10.30572 -10.30308 -10.30240 -10.29879 -10.29045
 Alpha  occ. eigenvalues --  -10.28799 -10.28431 -10.27771 -10.27375 -10.27208
 Alpha  occ. eigenvalues --  -10.27195 -10.26786 -10.26404 -10.25793 -10.25240
 Alpha  occ. eigenvalues --  -10.25215 -10.25049 -10.24639 -10.24376 -10.24042
 Alpha  occ. eigenvalues --  -10.23965 -10.23786 -10.23469 -10.23468 -10.23414
 Alpha  occ. eigenvalues --  -10.22966 -10.22795 -10.21693 -10.21636 -10.21414
 Alpha  occ. eigenvalues --  -10.21032 -10.20965 -10.20784 -10.20326 -10.20224
 Alpha  occ. eigenvalues --  -10.20174 -10.19650 -10.19357 -10.19243 -10.18914
 Alpha  occ. eigenvalues --  -10.18895 -10.18842 -10.18476 -10.18364 -10.18235
 Alpha  occ. eigenvalues --  -10.18155 -10.18057 -10.17910 -10.17812 -10.17626
 Alpha  occ. eigenvalues --  -10.16584 -10.13738  -1.80501  -1.12787  -1.08862
 Alpha  occ. eigenvalues --   -1.08225  -1.08071  -1.07761  -1.05874  -1.05359
 Alpha  occ. eigenvalues --   -1.05232  -1.04556  -1.04338  -1.03920  -1.03594
 Alpha  occ. eigenvalues --   -1.03374  -1.02851  -1.02796  -1.01096  -1.00801
 Alpha  occ. eigenvalues --   -1.00068  -0.99899  -0.99748  -0.99072  -0.98306
 Alpha  occ. eigenvalues --   -0.97477  -0.97469  -0.96275  -0.95366  -0.94543
 Alpha  occ. eigenvalues --   -0.94365  -0.94069  -0.93091  -0.92500  -0.91014
 Alpha  occ. eigenvalues --   -0.90765  -0.89903  -0.89818  -0.89636  -0.89068
 Alpha  occ. eigenvalues --   -0.88586  -0.88092  -0.87423  -0.86999  -0.85772
 Alpha  occ. eigenvalues --   -0.83972  -0.83465  -0.82648  -0.81140  -0.80870
 Alpha  occ. eigenvalues --   -0.79673  -0.78921  -0.77796  -0.77785  -0.76198
 Alpha  occ. eigenvalues --   -0.75708  -0.75604  -0.74044  -0.73773  -0.73658
 Alpha  occ. eigenvalues --   -0.72820  -0.72679  -0.72336  -0.70886  -0.70642
 Alpha  occ. eigenvalues --   -0.69785  -0.69627  -0.69333  -0.69104  -0.68982
 Alpha  occ. eigenvalues --   -0.68304  -0.67200  -0.65761  -0.65073  -0.64522
 Alpha  occ. eigenvalues --   -0.64280  -0.64018  -0.63748  -0.62903  -0.61604
 Alpha  occ. eigenvalues --   -0.61532  -0.61282  -0.61181  -0.60356  -0.60346
 Alpha  occ. eigenvalues --   -0.60138  -0.59647  -0.58929  -0.58643  -0.58174
 Alpha  occ. eigenvalues --   -0.58056  -0.57468  -0.57069  -0.56857  -0.56835
 Alpha  occ. eigenvalues --   -0.56766  -0.56446  -0.56045  -0.55499  -0.55311
 Alpha  occ. eigenvalues --   -0.54830  -0.54585  -0.54474  -0.54265  -0.54102
 Alpha  occ. eigenvalues --   -0.53928  -0.53463  -0.53028  -0.52861  -0.52519
 Alpha  occ. eigenvalues --   -0.51834  -0.51816  -0.51146  -0.50667  -0.50433
 Alpha  occ. eigenvalues --   -0.50236  -0.49934  -0.49848  -0.49420  -0.49335
 Alpha  occ. eigenvalues --   -0.48918  -0.48645  -0.48438  -0.48087  -0.48054
 Alpha  occ. eigenvalues --   -0.47616  -0.47438  -0.47386  -0.47287  -0.47105
 Alpha  occ. eigenvalues --   -0.46632  -0.46519  -0.46486  -0.46301  -0.46065
 Alpha  occ. eigenvalues --   -0.45943  -0.45919  -0.45570  -0.45323  -0.45182
 Alpha  occ. eigenvalues --   -0.45107  -0.45058  -0.44895  -0.44438  -0.44239
 Alpha  occ. eigenvalues --   -0.44210  -0.44013  -0.43836  -0.43718  -0.43633
 Alpha  occ. eigenvalues --   -0.43403  -0.43355  -0.43245  -0.43186  -0.42845
 Alpha  occ. eigenvalues --   -0.42724  -0.42501  -0.42374  -0.42288  -0.42227
 Alpha  occ. eigenvalues --   -0.42156  -0.41783  -0.41703  -0.41503  -0.41418
 Alpha  occ. eigenvalues --   -0.41350  -0.40974  -0.40959  -0.40839  -0.40761
 Alpha  occ. eigenvalues --   -0.40655  -0.40507  -0.40313  -0.40282  -0.40163
 Alpha  occ. eigenvalues --   -0.40025  -0.39861  -0.39627  -0.39584  -0.39332
 Alpha  occ. eigenvalues --   -0.39234  -0.39195  -0.39047  -0.38876  -0.38451
 Alpha  occ. eigenvalues --   -0.38335  -0.38112  -0.37980  -0.37959  -0.37849
 Alpha  occ. eigenvalues --   -0.37623  -0.37356  -0.37146  -0.36873  -0.36814
 Alpha  occ. eigenvalues --   -0.36731  -0.36531  -0.36510  -0.36358  -0.36181
 Alpha  occ. eigenvalues --   -0.36088  -0.35933  -0.35899  -0.35690  -0.35525
 Alpha  occ. eigenvalues --   -0.35410  -0.35223  -0.34989  -0.34935  -0.34635
 Alpha  occ. eigenvalues --   -0.34222  -0.33908  -0.33684  -0.33437  -0.33204
 Alpha  occ. eigenvalues --   -0.33072  -0.32881  -0.32667  -0.32507  -0.32280
 Alpha  occ. eigenvalues --   -0.32274  -0.32058  -0.31775  -0.31030  -0.30578
 Alpha  occ. eigenvalues --   -0.30106  -0.29446  -0.29362  -0.29112  -0.28887
 Alpha  occ. eigenvalues --   -0.28281  -0.28135  -0.28053  -0.27762  -0.27368
 Alpha  occ. eigenvalues --   -0.27127  -0.26674  -0.26389  -0.26005  -0.25828
 Alpha  occ. eigenvalues --   -0.25356  -0.25218  -0.24915  -0.24808  -0.24271
 Alpha  occ. eigenvalues --   -0.24046  -0.23930  -0.23854  -0.23511  -0.23372
 Alpha  occ. eigenvalues --   -0.23268  -0.22973  -0.22870  -0.22194  -0.21414
 Alpha  occ. eigenvalues --   -0.20986  -0.20641  -0.20356  -0.20281  -0.20094
 Alpha  occ. eigenvalues --   -0.19799  -0.19182  -0.16164
 Alpha virt. eigenvalues --   -0.09462  -0.04402  -0.03744  -0.03344  -0.02673
 Alpha virt. eigenvalues --   -0.01396  -0.01175  -0.00943  -0.00272   0.00032
 Alpha virt. eigenvalues --    0.00496   0.00548   0.01174   0.01339   0.01640

 Mulliken charges:
               1
     1  C    0.062421
     2  C    0.048117
     3  O   -0.304515
     4  H    0.041104
     5  H    0.043229
     6  H   -0.003004
     7  N   -0.112714
     8  C    0.092112
     9  C    0.072081
    10  O   -0.285348
    11  C    0.025352
    12  C    0.188691
    13  O   -0.472502
    14  O   -0.392192
    15  H    0.124663
    16  H    0.008906
    17  H    0.022396
    18  H   -0.005669
    19  N   -0.119194
    20  C    0.174990
    21  C    0.052535
    22  O   -0.298133
    23  C   -0.044292
    24  C    0.057350
    25  C    0.011511
    26  C   -0.026218
    27  N    0.082446
    28  H    0.151225
    29  H   -0.009119
    30  H    0.037319
    31  H    0.007362
    32  H   -0.039384
    33  H    0.052891
    34  H    0.010755
    35  H    0.045228
    36  H    0.068988
    37  H    0.073865
    38  H    0.173832
    39  H    0.216819
    40  H    0.179208
    41  N   -0.167094
    42  C    0.172620
    43  C    0.018325
    44  O   -0.297212
    45  C    0.063681
    46  C    0.101584
    47  O   -0.378812
    48  O   -0.490788
    49  H    0.155642
    50  H    0.018408
    51  H   -0.009848
    52  H    0.022518
    53  N   -0.146096
    54  C    0.202825
    55  C    0.072348
    56  O   -0.289187
    57  H    0.128665
    58  H    0.032511
    59  H    0.023511
    60  N   -0.155586
    61  C    0.118315
    62  C    0.073205
    63  O   -0.323442
    64  C    0.090604
    65  C    0.055889
    66  N   -0.014883
    67  O   -0.334810
    68  H    0.150434
    69  H    0.029284
    70  H    0.070199
    71  H   -0.008859
    72  H    0.138096
    73  H    0.103271
    74  N   -0.156850
    75  C    0.255871
    76  C    0.009668
    77  O   -0.308355
    78  H    0.147280
    79  H    0.040448
    80  H    0.030444
    81  N   -0.148169
    82  C    0.120419
    83  C    0.138922
    84  O   -0.329267
    85  C    0.116883
    86  C    0.002222
    87  C   -0.013773
    88  C   -0.017629
    89  C   -0.007587
    90  C   -0.047652
    91  C    0.163472
    92  O   -0.203008
    93  H    0.148134
    94  H   -0.002908
    95  H   -0.015940
    96  H   -0.032244
    97  H   -0.025721
    98  H   -0.003250
    99  H   -0.031564
   100  H   -0.040091
   101  H    0.172348
   102  N   -0.118982
   103  C    0.140857
   104  C    0.068735
   105  O   -0.276452
   106  C   -0.105829
   107  C    0.055052
   108  C    0.024760
   109  C    0.029108
   110  H    0.134508
   111  H    0.005061
   112  H   -0.001210
   113  H   -0.003621
   114  H   -0.023538
   115  H    0.025476
   116  H    0.000038
   117  H    0.012243
   118  H    0.010966
   119  H    0.002125
   120  H    0.010309
   121  N   -0.131881
   122  C    0.118400
   123  C    0.094873
   124  O   -0.309250
   125  C    0.240304
   126  O   -0.334765
   127  H    0.137611
   128  H    0.021007
   129  H   -0.000523
   130  H   -0.012654
   131  H    0.161568
   132  N   -0.124122
   133  C    0.082173
   134  C    0.035045
   135  O   -0.253949
   136  C    0.050649
   137  H    0.114396
   138  H    0.025242
   139  H    0.032002
   140  H    0.046704
   141  H    0.030781
   142  N   -0.148780
   143  C    0.099473
   144  C    0.088872
   145  O   -0.282086
   146  C    0.055490
   147  H    0.094004
   148  H    0.021790
   149  H    0.031503
   150  H    0.017191
   151  H    0.023670
   152  N   -0.150132
   153  C    0.155141
   154  C    0.065163
   155  O   -0.291593
   156  C   -0.061821
   157  C    0.145638
   158  C    0.135421
   159  O   -0.431242
   160  O   -0.410727
   161  H    0.131217
   162  H   -0.058762
   163  H    0.054864
   164  H    0.001087
   165  H   -0.013595
   166  H   -0.045123
   167  N   -0.173224
   168  C    0.137745
   169  H    0.035439
   170  H    0.033931
   171  H    0.006468
   172  H    0.126048
   173  Ca   1.326304
   174  O   -0.282931
   175  H    0.178770
   176  H    0.171037
 Sum of Mulliken charges =  -0.00000

 Dipole moment (field-independent basis, Debye):
    X=            -29.8075    Y=             -0.4087    Z=             -6.9953  Tot=             30.6201
 Quadrupole moment (field-independent basis, Debye-Ang):
   XX=           -614.2655   YY=           -483.5067   ZZ=           -543.3186
   XY=            108.7191   XZ=             38.8075   YZ=            -26.8764

 ESP charges:
               1
     1  C   -0.376860
     2  C    0.784534
     3  O   -0.616611
     4  H    0.112508
     5  H    0.117551
     6  H    0.067246
     7  N   -0.786452
     8  C    0.335761
     9  C    0.453881
    10  O   -0.538397
    11  C   -0.254046
    12  C    0.961869
    13  O   -1.017592
    14  O   -0.808516
    15  H    0.383969
    16  H    0.054853
    17  H    0.065838
    18  H    0.040159
    19  N    0.077818
    20  C   -0.791162
    21  C    0.853272
    22  O   -0.614249
    23  C    0.461650
    24  C   -0.255999
    25  C   -0.041479
    26  C   -0.021111
    27  N   -0.450868
    28  H    0.116140
    29  H    0.196002
    30  H   -0.020802
    31  H   -0.007548
    32  H    0.032031
    33  H    0.107763
    34  H    0.056815
    35  H    0.069290
    36  H    0.098625
    37  H    0.134975
    38  H    0.348806
    39  H    0.375405
    40  H    0.338346
    41  N   -0.542553
    42  C    0.021585
    43  C    0.474557
    44  O   -0.538702
    45  C   -0.201247
    46  C    0.732041
    47  O   -0.686445
    48  O   -0.865971
    49  H    0.340016
    50  H    0.111079
    51  H    0.059029
    52  H    0.087005
    53  N   -0.268713
    54  C   -0.265115
    55  C    0.561273
    56  O   -0.557478
    57  H    0.202655
    58  H    0.149299
    59  H    0.125103
    60  N   -0.344788
    61  C   -0.400503
    62  C    0.561470
    63  O   -0.569591
    64  C   -0.040449
    65  C    0.593343
    66  N   -0.819267
    67  O   -0.519750
    68  H    0.521788
    69  H    0.229864
    70  H    0.126377
    71  H    0.050311
    72  H    0.396965
    73  H    0.380010
    74  N   -0.243249
    75  C   -0.279128
    76  C    0.713607
    77  O   -0.597978
    78  H    0.265852
    79  H    0.144664
    80  H    0.124580
    81  N   -0.555265
    82  C   -0.053909
    83  C    0.838342
    84  O   -0.707387
    85  C   -0.167703
    86  C    0.253039
    87  C   -0.305438
    88  C   -0.251275
    89  C   -0.181719
    90  C   -0.280761
    91  C    0.357978
    92  O   -0.560835
    93  H    0.390835
    94  H    0.107712
    95  H    0.056205
    96  H    0.015315
    97  H    0.162582
    98  H    0.203761
    99  H    0.149818
   100  H    0.144764
   101  H    0.408165
   102  N   -0.630321
   103  C   -0.178111
   104  C    0.667433
   105  O   -0.548071
   106  C    0.318248
   107  C   -0.045492
   108  C   -0.285695
   109  C   -0.320448
   110  H    0.299514
   111  H    0.170934
   112  H   -0.024376
   113  H    0.061136
   114  H    0.050095
   115  H    0.016637
   116  H    0.083398
   117  H    0.021156
   118  H    0.078358
   119  H    0.090362
   120  H    0.080130
   121  N   -0.386067
   122  C   -0.067598
   123  C    0.573794
   124  O   -0.448317
   125  C    0.094740
   126  O   -0.555635
   127  H    0.301742
   128  H    0.069765
   129  H    0.036302
   130  H    0.055920
   131  H    0.376428
   132  N   -0.430631
   133  C    0.076175
   134  C    0.582371
   135  O   -0.566157
   136  C   -0.281778
   137  H    0.254501
   138  H    0.079245
   139  H    0.080882
   140  H    0.105660
   141  H    0.108020
   142  N   -0.438406
   143  C    0.066022
   144  C    0.451806
   145  O   -0.523221
   146  C   -0.441565
   147  H    0.251791
   148  H    0.130870
   149  H    0.141266
   150  H    0.127910
   151  H    0.130857
   152  N   -0.176266
   153  C   -0.298424
   154  C    0.553200
   155  O   -0.560110
   156  C   -0.089957
   157  C    0.068462
   158  C    0.656279
   159  O   -0.697658
   160  O   -0.709300
   161  H    0.224927
   162  H    0.124716
   163  H    0.084488
   164  H    0.022777
   165  H   -0.060462
   166  H   -0.051957
   167  N   -0.105679
   168  C   -0.274491
   169  H    0.122746
   170  H    0.119291
   171  H    0.084180
   172  H    0.170743
   173  Ca   1.657463
   174  O   -0.866403
   175  H    0.456112
   176  H    0.384557
 Sum of ESP charges =   0.00000

 Normal termination of Gaussian 16 at Sun Sep 15 00:55:43 2019.
