 Gaussian 16, Revision A.03,
 Gaussian 16:  ES64L-G16RevA.03 25-Dec-2016

 ----------------------------------------------------------------------
 #b3lyp/svp scf=(tight,noincore) Test #IOP(5/87=12) Density=Current Pop
 =(MK,readradii) iop(6/33=2) iop(6/42=6)
 ----------------------------------------------------------------------

 -----------------
 CaMKII_loop3_73.0
 -----------------
 Symbolic Z-matrix:
 Charge =  0 Multiplicity = 1

                         Standard orientation:
 ---------------------------------------------------------------------
 Center     Atomic      Atomic             Coordinates (Angstroms)
 Number     Number       Type             X           Y           Z
 ---------------------------------------------------------------------
      1          6           0        2.592642    2.064643    5.767739
      2          6           0        1.919796    2.015245    4.400355
      3          8           0        2.606737    2.180046    3.404990
      4          1           0        3.463249    1.409191    5.767383
      5          1           0        2.907459    3.086523    5.981788
      6          1           0        1.889235    1.732567    6.531693
      7          7           0        0.608430    1.808136    4.246981
      8          6           0       -0.074570    2.047519    2.985907
      9          6           0       -0.032080    3.510117    2.563174
     10          8           0       -0.170633    4.439166    3.346737
     11          6           0       -1.452620    1.410343    3.121488
     12          6           0       -2.278619    1.239664    1.860102
     13          8           0       -1.753641    1.437630    0.740366
     14          8           0       -3.515144    1.129609    2.025913
     15          1           0        0.061698    1.523629    5.039093
     16          1           0        0.426481    1.449781    2.217430
     17          1           0       -2.047875    1.948771    3.863356
     18          1           0       -1.295657    0.424684    3.556390
     19          7           0        0.144298    3.721270    1.257684
     20          6           0        0.530963    4.969629    0.623894
     21          6           0       -0.549741    5.584448   -0.253931
     22          8           0       -0.580737    6.814585   -0.255401
     23          6           0        1.945531    4.789618    0.090983
     24          6           0        2.576034    6.111321   -0.363185
     25          6           0        4.003140    6.029353   -0.884672
     26          6           0        3.897099    5.827023   -2.384512
     27          7           0        5.230773    5.734055   -2.997920
     28          1           0        0.117611    2.867698    0.725515
     29          1           0        0.797783    5.705878    1.382937
     30          1           0        1.855783    4.036264   -0.689339
     31          1           0        2.549811    4.326634    0.862663
     32          1           0        2.577005    6.737777    0.518208
     33          1           0        1.966347    6.498677   -1.180153
     34          1           0        4.517335    5.230938   -0.339203
     35          1           0        4.554902    6.917026   -0.573714
     36          1           0        3.231035    6.622652   -2.739382
     37          1           0        3.288485    4.962786   -2.632872
     38          1           0        5.169067    5.819257   -4.002825
     39          1           0        5.754715    6.571746   -2.770195
     40          1           0        5.716691    4.881614   -2.780600
     41          7           0       -1.238209    4.747972   -1.029314
     42          6           0       -2.342037    5.115512   -1.886681
     43          6           0       -3.684762    4.717569   -1.278216
     44          8           0       -4.762247    5.047111   -1.768347
     45          6           0       -2.180163    4.608267   -3.313390
     46          6           0       -1.963374    3.107903   -3.498891
     47          8           0       -2.044369    2.304328   -2.544738
     48          8           0       -1.644743    2.722822   -4.640463
     49          1           0       -1.002447    3.766687   -1.112361
     50          1           0       -2.317235    6.205740   -1.912894
     51          1           0       -1.322740    5.127026   -3.743291
     52          1           0       -3.099995    4.864090   -3.851595
     53          7           0       -3.637658    3.929227   -0.210228
     54          6           0       -4.711403    3.809351    0.754086
     55          6           0       -5.848556    2.841690    0.476570
     56          8           0       -6.863939    2.790678    1.170974
     57          1           0       -2.801561    3.369578   -0.115170
     58          1           0       -5.171289    4.784566    0.960143
     59          1           0       -4.374683    3.437327    1.721566
     60          7           0       -5.736030    2.023122   -0.570083
     61          6           0       -6.655921    0.959741   -0.903586
     62          6           0       -6.998893   -0.060334    0.182837
     63          8           0       -8.085469   -0.636102    0.119242
     64          6           0       -6.172371    0.221661   -2.146613
     65          6           0       -5.174245   -0.886524   -1.845997
     66          7           0       -5.439055   -2.103622   -2.314557
     67          8           0       -4.105756   -0.592813   -1.311427
     68          1           0       -4.842702    1.988738   -1.036648
     69          1           0       -7.628369    1.356633   -1.194139
     70          1           0       -5.726299    1.012023   -2.740287
     71          1           0       -6.998817   -0.187386   -2.736077
     72          1           0       -6.281061   -2.299516   -2.842999
     73          1           0       -4.898691   -2.904133   -2.033683
     74          7           0       -6.148957   -0.199477    1.196962
     75          6           0       -6.394197   -1.110497    2.299368
     76          6           0       -5.387640   -2.249209    2.318742
     77          8           0       -5.621919   -3.191343    3.072132
     78          1           0       -5.361788    0.444878    1.228136
     79          1           0       -7.403576   -1.525679    2.269724
     80          1           0       -6.191538   -0.514146    3.191497
     81          7           0       -4.301392   -2.240650    1.543246
     82          6           0       -3.192866   -3.152676    1.763656
     83          6           0       -1.843580   -2.549672    1.392693
     84          8           0       -1.770995   -1.653749    0.548090
     85          6           0       -3.454260   -4.480525    1.060102
     86          6           0       -4.257149   -4.551463   -0.216040
     87          6           0       -5.647845   -4.689912   -0.083770
     88          6           0       -3.615499   -4.777705   -1.438415
     89          6           0       -6.398933   -5.073870   -1.198868
     90          6           0       -4.364207   -5.008094   -2.596066
     91          6           0       -5.750226   -5.200621   -2.442497
     92          8           0       -6.463476   -5.521686   -3.561154
     93          1           0       -4.175676   -1.387396    1.015277
     94          1           0       -3.122847   -3.314968    2.843313
     95          1           0       -4.065623   -5.056510    1.746088
     96          1           0       -2.484626   -4.973208    0.976602
     97          1           0       -6.063497   -4.664972    0.911223
     98          1           0       -2.564968   -4.628380   -1.623310
     99          1           0       -7.468307   -5.229200   -1.151846
    100          1           0       -3.868736   -5.093331   -3.555099
    101          1           0       -5.951272   -5.833862   -4.306602
    102          7           0       -0.802678   -3.118689    1.982390
    103          6           0        0.585526   -2.770295    1.740499
    104          6           0        1.245517   -3.642229    0.682273
    105          8           0        1.279140   -4.859994    0.846040
    106          6           0        1.344756   -2.895105    3.055068
    107          6           0        0.706927   -2.112660    4.200474
    108          6           0        2.812542   -2.523311    2.892670
    109          6           0        1.075146   -2.510896    5.629713
    110          1           0       -0.927874   -3.987477    2.494282
    111          1           0        0.514951   -1.725589    1.413070
    112          1           0        1.289141   -3.924839    3.401267
    113          1           0       -0.377088   -2.160682    4.217987
    114          1           0        0.892877   -1.050724    4.038871
    115          1           0        3.504591   -2.824012    3.672123
    116          1           0        3.081503   -3.001442    1.938914
    117          1           0        2.912453   -1.443621    2.804429
    118          1           0        0.604912   -1.740396    6.238491
    119          1           0        0.732584   -3.530178    5.807236
    120          1           0        2.125414   -2.544735    5.914126
    121          7           0        1.690898   -3.091188   -0.439061
    122          6           0        2.627618   -3.693433   -1.375681
    123          6           0        4.069354   -3.449803   -0.961021
    124          8           0        4.342994   -2.530368   -0.179701
    125          6           0        2.397322   -3.264755   -2.823645
    126          8           0        2.738317   -1.908118   -3.041033
    127          1           0        1.484061   -2.110564   -0.565925
    128          1           0        2.492877   -4.770738   -1.278431
    129          1           0        1.360085   -3.443482   -3.101306
    130          1           0        3.135600   -3.827096   -3.394712
    131          1           0        2.296039   -1.389330   -2.368538
    132          7           0        5.035714   -4.247361   -1.409406
    133          6           0        6.403192   -4.312718   -0.922544
    134          6           0        7.199457   -3.053810   -1.229811
    135          8           0        8.070330   -2.605745   -0.490002
    136          6           0        7.061721   -5.620891   -1.360291
    137          1           0        4.857506   -5.055133   -1.984512
    138          1           0        6.259788   -4.490318    0.146331
    139          1           0        8.075421   -5.746668   -0.982014
    140          1           0        6.468228   -6.498355   -1.091548
    141          1           0        7.140899   -5.591827   -2.449458
    142          7           0        6.722294   -2.273347   -2.204590
    143          6           0        7.298093   -0.981700   -2.507086
    144          6           0        6.979768    0.057376   -1.437558
    145          8           0        7.832229    0.909239   -1.175566
    146          6           0        6.753281   -0.500494   -3.841822
    147          1           0        6.116281   -2.719453   -2.875513
    148          1           0        8.383790   -0.905496   -2.514452
    149          1           0        5.667630   -0.424840   -3.763469
    150          1           0        7.193398    0.486923   -3.966738
    151          1           0        6.934971   -1.218262   -4.647736
    152          7           0        5.853520   -0.108123   -0.741874
    153          6           0        5.432341    0.814432    0.293838
    154          6           0        6.100347    0.400514    1.598652
    155          8           0        6.438883    1.298797    2.358969
    156          6           0        3.914786    0.860642    0.486175
    157          6           0        3.227793    1.131954   -0.843197
    158          6           0        1.748849    0.765355   -0.791923
    159          8           0        1.346856   -0.409978   -0.969387
    160          8           0        0.848633    1.627721   -0.771002
    161          1           0        5.195110   -0.849432   -0.948892
    162          1           0        5.797088    1.806045    0.031803
    163          1           0        3.738688    1.709243    1.134762
    164          1           0        3.495739   -0.018085    0.985714
    165          1           0        3.752117    0.627339   -1.657352
    166          1           0        3.269103    2.198259   -1.032368
    167          7           0        6.427734   -0.877772    1.793085
    168          6           0        7.173095   -1.370976    2.940642
    169          1           0        7.970052   -2.031943    2.599254
    170          1           0        7.605956   -0.529880    3.482467
    171          1           0        6.502734   -1.922002    3.600602
    172          1           0        6.319850   -1.569245    1.070571
    173         20           0       -1.333256    0.056441   -1.471366
    174          8           0       -0.667987   -2.300963   -2.593269
    175          1           0       -0.593374   -3.253954   -2.540926
    176          1           0       -0.594374   -2.107655   -3.536515
 ---------------------------------------------------------------------

 SCF Done:  E(RB3LYP) =  -5333.57570308     A.U. after   16 cycles

 The electronic state is 1-A.
 Alpha  occ. eigenvalues -- -145.40706 -19.22264 -19.17617 -19.15503 -19.14197
 Alpha  occ. eigenvalues --  -19.13397 -19.12294 -19.11468 -19.10976 -19.10622
 Alpha  occ. eigenvalues --  -19.09876 -19.08902 -19.07290 -19.07236 -19.06852
 Alpha  occ. eigenvalues --  -19.06523 -19.05710 -19.05452 -19.05344 -19.05176
 Alpha  occ. eigenvalues --  -19.05108 -19.04446 -19.03529 -19.01709 -15.46405
 Alpha  occ. eigenvalues --  -14.58223 -14.40627 -14.38296 -14.38264 -14.36098
 Alpha  occ. eigenvalues --  -14.36086 -14.35206 -14.33623 -14.33311 -14.32976
 Alpha  occ. eigenvalues --  -14.32768 -14.31389 -14.31216 -14.30644 -14.30420
 Alpha  occ. eigenvalues --  -12.60018 -12.60001 -12.59967 -10.33858 -10.32875
 Alpha  occ. eigenvalues --  -10.31381 -10.31072 -10.30040 -10.29624 -10.28884
 Alpha  occ. eigenvalues --  -10.28408 -10.27891 -10.27506 -10.27200 -10.26744
 Alpha  occ. eigenvalues --  -10.26105 -10.25978 -10.25939 -10.25773 -10.25559
 Alpha  occ. eigenvalues --  -10.24717 -10.24478 -10.24416 -10.24239 -10.24105
 Alpha  occ. eigenvalues --  -10.23933 -10.23643 -10.23469 -10.23446 -10.22831
 Alpha  occ. eigenvalues --  -10.22177 -10.21688 -10.21555 -10.21545 -10.21233
 Alpha  occ. eigenvalues --  -10.21001 -10.20797 -10.20664 -10.20617 -10.20479
 Alpha  occ. eigenvalues --  -10.20279 -10.20178 -10.19967 -10.19962 -10.19803
 Alpha  occ. eigenvalues --  -10.19466 -10.19428 -10.19223 -10.18939 -10.18515
 Alpha  occ. eigenvalues --  -10.18203 -10.18034 -10.18001 -10.17741 -10.17585
 Alpha  occ. eigenvalues --  -10.16072 -10.15337  -1.82995  -1.13324  -1.10519
 Alpha  occ. eigenvalues --   -1.10341  -1.10158  -1.07944  -1.07562  -1.06371
 Alpha  occ. eigenvalues --   -1.05843  -1.05590  -1.05295  -1.04241  -1.03874
 Alpha  occ. eigenvalues --   -1.03764  -1.02602  -1.00822  -1.00807  -1.00045
 Alpha  occ. eigenvalues --   -0.99830  -0.98953  -0.98764  -0.98489  -0.98330
 Alpha  occ. eigenvalues --   -0.98097  -0.97428  -0.97410  -0.95365  -0.94769
 Alpha  occ. eigenvalues --   -0.93910  -0.93217  -0.92321  -0.91314  -0.90876
 Alpha  occ. eigenvalues --   -0.90456  -0.89617  -0.89011  -0.88953  -0.88671
 Alpha  occ. eigenvalues --   -0.88554  -0.87862  -0.87762  -0.87700  -0.86939
 Alpha  occ. eigenvalues --   -0.86566  -0.83159  -0.82465  -0.80404  -0.79828
 Alpha  occ. eigenvalues --   -0.79540  -0.79119  -0.78702  -0.76954  -0.76735
 Alpha  occ. eigenvalues --   -0.76120  -0.75899  -0.74720  -0.74017  -0.73785
 Alpha  occ. eigenvalues --   -0.73448  -0.72830  -0.71177  -0.71118  -0.70642
 Alpha  occ. eigenvalues --   -0.70517  -0.70391  -0.69279  -0.68684  -0.68219
 Alpha  occ. eigenvalues --   -0.67056  -0.66773  -0.66264  -0.65557  -0.65061
 Alpha  occ. eigenvalues --   -0.63972  -0.63706  -0.63367  -0.63244  -0.62209
 Alpha  occ. eigenvalues --   -0.62171  -0.62040  -0.61382  -0.61291  -0.60941
 Alpha  occ. eigenvalues --   -0.60662  -0.60300  -0.60020  -0.60003  -0.58409
 Alpha  occ. eigenvalues --   -0.57993  -0.57823  -0.57217  -0.57201  -0.56700
 Alpha  occ. eigenvalues --   -0.56527  -0.56469  -0.56370  -0.55913  -0.54984
 Alpha  occ. eigenvalues --   -0.54746  -0.54514  -0.54227  -0.53789  -0.53614
 Alpha  occ. eigenvalues --   -0.53498  -0.53273  -0.52787  -0.52548  -0.51630
 Alpha  occ. eigenvalues --   -0.51426  -0.51233  -0.50862  -0.50710  -0.50463
 Alpha  occ. eigenvalues --   -0.50315  -0.50055  -0.49817  -0.49580  -0.49342
 Alpha  occ. eigenvalues --   -0.48704  -0.48467  -0.48353  -0.48175  -0.48031
 Alpha  occ. eigenvalues --   -0.47875  -0.47592  -0.47494  -0.47386  -0.47038
 Alpha  occ. eigenvalues --   -0.46714  -0.46610  -0.46396  -0.46224  -0.46143
 Alpha  occ. eigenvalues --   -0.45961  -0.45901  -0.45655  -0.45564  -0.45363
 Alpha  occ. eigenvalues --   -0.45313  -0.44830  -0.44684  -0.44497  -0.44415
 Alpha  occ. eigenvalues --   -0.44401  -0.44219  -0.43666  -0.43581  -0.43405
 Alpha  occ. eigenvalues --   -0.43362  -0.43310  -0.43101  -0.42977  -0.42830
 Alpha  occ. eigenvalues --   -0.42797  -0.42609  -0.42497  -0.42305  -0.42140
 Alpha  occ. eigenvalues --   -0.41930  -0.41839  -0.41595  -0.41472  -0.41253
 Alpha  occ. eigenvalues --   -0.41048  -0.40914  -0.40766  -0.40608  -0.40487
 Alpha  occ. eigenvalues --   -0.40386  -0.40181  -0.40143  -0.39815  -0.39728
 Alpha  occ. eigenvalues --   -0.39478  -0.39341  -0.39291  -0.39257  -0.39233
 Alpha  occ. eigenvalues --   -0.39083  -0.38880  -0.38767  -0.38626  -0.38472
 Alpha  occ. eigenvalues --   -0.38372  -0.38269  -0.38145  -0.37924  -0.37731
 Alpha  occ. eigenvalues --   -0.37549  -0.37350  -0.37259  -0.37109  -0.36804
 Alpha  occ. eigenvalues --   -0.36776  -0.36605  -0.36525  -0.36354  -0.36202
 Alpha  occ. eigenvalues --   -0.36081  -0.36013  -0.35814  -0.35409  -0.35378
 Alpha  occ. eigenvalues --   -0.35212  -0.35065  -0.34689  -0.34580  -0.34468
 Alpha  occ. eigenvalues --   -0.34398  -0.34208  -0.34017  -0.33703  -0.33597
 Alpha  occ. eigenvalues --   -0.32976  -0.32674  -0.32563  -0.32371  -0.31915
 Alpha  occ. eigenvalues --   -0.31863  -0.31778  -0.31610  -0.31222  -0.30901
 Alpha  occ. eigenvalues --   -0.30143  -0.29933  -0.29566  -0.29433  -0.29120
 Alpha  occ. eigenvalues --   -0.28556  -0.27979  -0.27693  -0.27636  -0.27287
 Alpha  occ. eigenvalues --   -0.27189  -0.26884  -0.26486  -0.25371  -0.25249
 Alpha  occ. eigenvalues --   -0.24895  -0.24774  -0.24687  -0.24516  -0.24213
 Alpha  occ. eigenvalues --   -0.24140  -0.23694  -0.23205  -0.23112  -0.22927
 Alpha  occ. eigenvalues --   -0.22448  -0.22314  -0.22011  -0.21919  -0.21358
 Alpha  occ. eigenvalues --   -0.21209  -0.21103  -0.20887  -0.20554  -0.20047
 Alpha  occ. eigenvalues --   -0.19502  -0.19246  -0.17993
 Alpha virt. eigenvalues --   -0.10017  -0.05160  -0.04117  -0.03802  -0.03698
 Alpha virt. eigenvalues --   -0.03053  -0.02456  -0.02367  -0.00816  -0.00476
 Alpha virt. eigenvalues --   -0.00275   0.00062   0.00193   0.01019   0.01295

 Mulliken charges:
               1
     1  C    0.082985
     2  C    0.020034
     3  O   -0.294180
     4  H    0.036036
     5  H    0.050173
     6  H   -0.014848
     7  N   -0.125119
     8  C    0.116729
     9  C    0.067369
    10  O   -0.278245
    11  C    0.024902
    12  C    0.161177
    13  O   -0.458221
    14  O   -0.378636
    15  H    0.110405
    16  H   -0.008817
    17  H    0.015775
    18  H   -0.008532
    19  N   -0.155597
    20  C    0.154835
    21  C    0.092312
    22  O   -0.289597
    23  C   -0.027947
    24  C    0.008103
    25  C    0.003909
    26  C   -0.025869
    27  N    0.103670
    28  H    0.165968
    29  H    0.002601
    30  H    0.000604
    31  H    0.031195
    32  H    0.020931
    33  H    0.014005
    34  H    0.034778
    35  H    0.019885
    36  H    0.083539
    37  H    0.084388
    38  H    0.182427
    39  H    0.191750
    40  H    0.207934
    41  N   -0.159748
    42  C    0.112083
    43  C    0.052764
    44  O   -0.275946
    45  C    0.065719
    46  C    0.094371
    47  O   -0.474134
    48  O   -0.368409
    49  H    0.143490
    50  H    0.011251
    51  H   -0.010349
    52  H    0.036450
    53  N   -0.166365
    54  C    0.239703
    55  C    0.012156
    56  O   -0.295619
    57  H    0.137108
    58  H    0.024015
    59  H    0.042073
    60  N   -0.118614
    61  C    0.131909
    62  C    0.029424
    63  O   -0.286268
    64  C    0.080225
    65  C    0.035873
    66  N   -0.033202
    67  O   -0.339733
    68  H    0.126333
    69  H    0.022694
    70  H    0.043739
    71  H   -0.001885
    72  H    0.141062
    73  H    0.131512
    74  N   -0.201629
    75  C    0.280602
    76  C   -0.011717
    77  O   -0.314178
    78  H    0.163054
    79  H    0.046412
    80  H    0.039871
    81  N   -0.140941
    82  C    0.131529
    83  C    0.113181
    84  O   -0.347309
    85  C    0.131163
    86  C   -0.024535
    87  C    0.013532
    88  C   -0.000913
    89  C    0.007006
    90  C   -0.079664
    91  C    0.136725
    92  O   -0.210076
    93  H    0.156410
    94  H    0.010760
    95  H    0.019498
    96  H   -0.018376
    97  H    0.020852
    98  H   -0.060196
    99  H   -0.003367
   100  H   -0.045444
   101  H    0.176683
   102  N   -0.119874
   103  C    0.165729
   104  C    0.033785
   105  O   -0.292336
   106  C   -0.105770
   107  C   -0.010300
   108  C    0.058804
   109  C    0.034658
   110  H    0.140644
   111  H    0.011156
   112  H   -0.016002
   113  H   -0.007764
   114  H   -0.001340
   115  H    0.008718
   116  H    0.019262
   117  H    0.032255
   118  H    0.012495
   119  H    0.003880
   120  H    0.004455
   121  N   -0.106068
   122  C    0.054857
   123  C    0.096998
   124  O   -0.291823
   125  C    0.318921
   126  O   -0.341440
   127  H    0.133327
   128  H    0.008402
   129  H   -0.058750
   130  H   -0.022986
   131  H    0.161099
   132  N   -0.115240
   133  C    0.044323
   134  C    0.100224
   135  O   -0.262008
   136  C    0.020855
   137  H    0.113102
   138  H    0.036147
   139  H    0.056857
   140  H    0.036441
   141  H    0.004019
   142  N   -0.123263
   143  C    0.104598
   144  C    0.032862
   145  O   -0.280666
   146  C    0.033237
   147  H    0.110062
   148  H    0.021383
   149  H    0.014940
   150  H    0.016469
   151  H    0.021357
   152  N   -0.167733
   153  C    0.123135
   154  C    0.081456
   155  O   -0.278118
   156  C   -0.008301
   157  C    0.110400
   158  C    0.169931
   159  O   -0.465801
   160  O   -0.375315
   161  H    0.147074
   162  H   -0.029710
   163  H    0.054083
   164  H    0.028831
   165  H   -0.014629
   166  H   -0.050888
   167  N   -0.163672
   168  C    0.119042
   169  H    0.021970
   170  H    0.037197
   171  H    0.010734
   172  H    0.127317
   173  Ca   1.304995
   174  O   -0.287709
   175  H    0.204906
   176  H    0.194689
 Sum of Mulliken charges =  -0.00000

 Dipole moment (field-independent basis, Debye):
    X=             27.2267    Y=             -8.6703    Z=            -19.3654  Tot=             34.5179
 Quadrupole moment (field-independent basis, Debye-Ang):
   XX=           -638.4610   YY=           -474.8831   ZZ=           -516.7607
   XY=            117.4896   XZ=            -60.5463   YZ=            -21.2441

 ESP charges:
               1
     1  C   -0.441470
     2  C    0.832155
     3  O   -0.631792
     4  H    0.126156
     5  H    0.144535
     6  H    0.079307
     7  N   -0.824086
     8  C    0.294343
     9  C    0.623123
    10  O   -0.577718
    11  C   -0.371596
    12  C    0.918876
    13  O   -0.850556
    14  O   -0.712194
    15  H    0.389473
    16  H    0.078948
    17  H    0.101298
    18  H    0.051603
    19  N   -0.228224
    20  C   -0.338856
    21  C    0.727215
    22  O   -0.585829
    23  C    0.308889
    24  C   -0.366612
    25  C    0.026176
    26  C    0.042564
    27  N   -0.579079
    28  H   -0.000377
    29  H    0.127304
    30  H   -0.037218
    31  H    0.050119
    32  H    0.135430
    33  H    0.093749
    34  H    0.030282
    35  H    0.042728
    36  H    0.104550
    37  H    0.113150
    38  H    0.381842
    39  H    0.368830
    40  H    0.406734
    41  N   -0.557680
    42  C    0.161174
    43  C    0.435366
    44  O   -0.541891
    45  C   -0.329129
    46  C    0.875858
    47  O   -0.884822
    48  O   -0.717352
    49  H    0.369935
    50  H    0.062155
    51  H    0.067525
    52  H    0.099944
    53  N   -0.079158
    54  C   -0.486718
    55  C    0.755647
    56  O   -0.604629
    57  H    0.164388
    58  H    0.178461
    59  H    0.182881
    60  N   -0.576646
    61  C    0.286264
    62  C    0.320489
    63  O   -0.550781
    64  C   -0.429543
    65  C    0.721236
    66  N   -0.809319
    67  O   -0.628752
    68  H    0.332142
    69  H    0.062950
    70  H    0.153752
    71  H    0.104763
    72  H    0.394655
    73  H    0.346971
    74  N    0.118992
    75  C   -0.420449
    76  C    0.696661
    77  O   -0.591015
    78  H    0.135208
    79  H    0.173552
    80  H    0.154122
    81  N   -0.473753
    82  C    0.198863
    83  C    0.697043
    84  O   -0.599109
    85  C   -0.323554
    86  C    0.189158
    87  C   -0.154670
    88  C   -0.176870
    89  C   -0.267514
    90  C   -0.336685
    91  C    0.400724
    92  O   -0.581738
    93  H    0.168158
    94  H    0.038642
    95  H    0.104765
    96  H    0.081029
    97  H    0.175701
    98  H    0.129200
    99  H    0.181934
   100  H    0.140222
   101  H    0.423638
   102  N   -0.649172
   103  C    0.005235
   104  C    0.526825
   105  O   -0.567413
   106  C    0.235817
   107  C    0.199061
   108  C   -0.496899
   109  C   -0.360589
   110  H    0.322098
   111  H    0.080930
   112  H   -0.006537
   113  H   -0.024435
   114  H   -0.002452
   115  H    0.140870
   116  H    0.122058
   117  H    0.090707
   118  H    0.082097
   119  H    0.073827
   120  H    0.087187
   121  N   -0.102250
   122  C   -0.326111
   123  C    0.752311
   124  O   -0.612487
   125  C    0.313655
   126  O   -0.577831
   127  H    0.119175
   128  H    0.090917
   129  H   -0.050715
   130  H   -0.001229
   131  H    0.326640
   132  N   -0.422337
   133  C   -0.032277
   134  C    0.591197
   135  O   -0.529263
   136  C   -0.289768
   137  H    0.271855
   138  H    0.128510
   139  H    0.124798
   140  H    0.109378
   141  H    0.068558
   142  N   -0.540918
   143  C    0.251762
   144  C    0.408507
   145  O   -0.538560
   146  C   -0.406560
   147  H    0.317074
   148  H    0.055497
   149  H    0.097602
   150  H    0.105547
   151  H    0.112741
   152  N   -0.120683
   153  C   -0.251242
   154  C    0.555745
   155  O   -0.555425
   156  C    0.063828
   157  C    0.078595
   158  C    0.560962
   159  O   -0.574790
   160  O   -0.626453
   161  H    0.153187
   162  H    0.109286
   163  H    0.056500
   164  H    0.001482
   165  H   -0.032524
   166  H   -0.062116
   167  N   -0.147760
   168  C   -0.147778
   169  H    0.069608
   170  H    0.094314
   171  H    0.047460
   172  H    0.176937
   173  Ca   1.636798
   174  O   -0.877491
   175  H    0.456307
   176  H    0.444459
 Sum of ESP charges =   0.00000

 Normal termination of Gaussian 16 at Sat Sep 14 23:57:42 2019.
