 Gaussian 16, Revision A.03,
 Gaussian 16:  ES64L-G16RevA.03 25-Dec-2016

 ----------------------------------------------------------------------
 #b3lyp/svp scf=(tight,noincore) Test #IOP(5/87=12) Density=Current Pop
 =(MK,readradii) iop(6/33=2) iop(6/42=6)
 ----------------------------------------------------------------------

 ------------------
 holoCaM_loop3_67.0
 ------------------
 Symbolic Z-matrix:
 Charge =  0 Multiplicity = 1

                         Standard orientation:
 ---------------------------------------------------------------------
 Center     Atomic      Atomic             Coordinates (Angstroms)
 Number     Number       Type             X           Y           Z
 ---------------------------------------------------------------------
      1          6           0        1.446858    3.892894    3.711504
      2          6           0        0.464532    3.524347    2.606466
      3          8           0        0.826922    3.568507    1.424551
      4          1           0        2.188557    3.101162    3.816614
      5          1           0        1.946416    4.827701    3.457024
      6          1           0        0.908645    4.012117    4.651971
      7          7           0       -0.777085    3.163444    2.921643
      8          6           0       -1.849849    2.838519    2.011588
      9          6           0       -2.610425    4.044779    1.476646
     10          8           0       -3.838841    4.052203    1.566299
     11          6           0       -2.718463    1.774026    2.688468
     12          6           0       -3.627601    0.978703    1.754911
     13          8           0       -3.344815    0.761329    0.560223
     14          8           0       -4.698909    0.532365    2.225637
     15          1           0       -1.040922    3.024603    3.893504
     16          1           0       -1.365888    2.338779    1.171861
     17          1           0       -3.253572    2.182195    3.545472
     18          1           0       -2.052070    1.011380    3.096378
     19          7           0       -1.862366    4.983946    0.907285
     20          6           0       -2.328389    6.273379    0.434966
     21          6           0       -3.256465    6.082698   -0.759067
     22          8           0       -4.112910    6.888057   -1.115440
     23          6           0       -1.219878    7.258402    0.070230
     24          6           0       -0.163049    7.549812    1.131688
     25          6           0        0.958414    8.447980    0.616990
     26          6           0        2.080133    7.795004   -0.182928
     27          7           0        3.279159    7.507482    0.627298
     28          1           0       -0.886577    4.752498    0.942901
     29          1           0       -3.012352    6.667439    1.193261
     30          1           0       -1.649821    8.205938   -0.226292
     31          1           0       -0.667375    6.890346   -0.800502
     32          1           0        0.332964    6.691654    1.605541
     33          1           0       -0.613422    8.048085    1.987836
     34          1           0        1.300112    9.043571    1.457177
     35          1           0        0.505379    9.214227   -0.019974
     36          1           0        2.310147    8.453023   -1.020964
     37          1           0        1.684037    6.887906   -0.647343
     38          1           0        4.114515    7.625685    0.086180
     39          1           0        3.357451    8.143842    1.413119
     40          1           0        3.317269    6.532068    0.906790
     41          7           0       -3.169879    4.916379   -1.405753
     42          6           0       -3.975984    4.468597   -2.519030
     43          6           0       -5.163509    3.628590   -2.071064
     44          8           0       -6.022647    3.379710   -2.918023
     45          6           0       -3.101650    3.614345   -3.433794
     46          6           0       -2.629099    2.428696   -2.606248
     47          8           0       -1.882477    2.548499   -1.601558
     48          8           0       -2.999677    1.282399   -2.943257
     49          1           0       -2.389144    4.334720   -1.118131
     50          1           0       -4.334424    5.299338   -3.124496
     51          1           0       -2.245858    4.201342   -3.773876
     52          1           0       -3.723103    3.195715   -4.227926
     53          7           0       -5.246098    3.118677   -0.839290
     54          6           0       -6.414473    2.565539   -0.191726
     55          6           0       -6.857627    1.219136   -0.739187
     56          8           0       -8.012522    1.006526   -1.111897
     57          1           0       -4.454649    3.292425   -0.232067
     58          1           0       -7.265438    3.224607   -0.334864
     59          1           0       -6.218425    2.501251    0.881369
     60          7           0       -5.931262    0.250692   -0.814456
     61          6           0       -6.289502   -1.107163   -1.171238
     62          6           0       -6.182841   -2.206265   -0.117342
     63          8           0       -6.350105   -3.396452   -0.368692
     64          6           0       -5.550532   -1.514575   -2.445184
     65          6           0       -4.090841   -1.930498   -2.313609
     66          7           0       -3.504837   -2.776046   -3.167628
     67          8           0       -3.452892   -1.615310   -1.312771
     68          1           0       -5.005520    0.412287   -0.458664
     69          1           0       -7.335011   -1.068914   -1.459070
     70          1           0       -5.532309   -0.733151   -3.198274
     71          1           0       -6.053265   -2.410242   -2.800065
     72          1           0       -4.042547   -3.120104   -3.943703
     73          1           0       -2.570581   -3.130296   -2.997124
     74          7           0       -5.840789   -1.813788    1.105917
     75          6           0       -5.763901   -2.754676    2.198308
     76          6           0       -4.458450   -3.542230    2.265068
     77          8           0       -4.285249   -4.460001    3.058980
     78          1           0       -5.470508   -0.907651    1.367274
     79          1           0       -6.506366   -3.545067    2.160517
     80          1           0       -5.784917   -2.107319    3.072543
     81          7           0       -3.405628   -3.097287    1.570163
     82          6           0       -2.110332   -3.723597    1.483308
     83          6           0       -0.972845   -2.718801    1.511724
     84          8           0       -1.183754   -1.619544    1.018214
     85          6           0       -1.917760   -4.562601    0.222756
     86          6           0       -2.816005   -5.757682   -0.007540
     87          6           0       -3.704933   -5.767634   -1.082811
     88          6           0       -2.645124   -6.886142    0.808840
     89          6           0       -4.402028   -6.936114   -1.381158
     90          6           0       -3.270448   -8.098972    0.493699
     91          6           0       -4.158384   -8.093390   -0.600485
     92          8           0       -4.755746   -9.295036   -0.825665
     93          1           0       -3.658749   -2.325593    0.969316
     94          1           0       -1.888509   -4.450851    2.261765
     95          1           0       -0.954397   -5.058516    0.278440
     96          1           0       -2.094071   -3.878663   -0.610037
     97          1           0       -4.025187   -4.906005   -1.666192
     98          1           0       -1.877233   -6.911865    1.568235
     99          1           0       -5.044356   -6.996190   -2.246725
    100          1           0       -3.042965   -8.973185    1.083024
    101          1           0       -4.242123   -9.899385   -0.279904
    102          7           0        0.210541   -3.148351    1.945409
    103          6           0        1.541844   -2.566082    1.917205
    104          6           0        2.595482   -3.433448    1.249580
    105          8           0        2.701305   -4.615578    1.542618
    106          6           0        2.021985   -2.049187    3.271045
    107          6           0        1.238942   -0.806212    3.674478
    108          6           0        3.524169   -1.816674    3.318802
    109          6           0        1.489233   -0.491499    5.151573
    110          1           0        0.157505   -4.076825    2.348550
    111          1           0        1.575401   -1.654536    1.308798
    112          1           0        1.758414   -2.840048    3.977069
    113          1           0        0.181147   -1.073450    3.658541
    114          1           0        1.567714    0.098188    3.149722
    115          1           0        3.957934   -2.808595    3.177243
    116          1           0        3.894806   -0.985642    2.720125
    117          1           0        3.767513   -1.509807    4.334389
    118          1           0        2.418985    0.047484    5.325811
    119          1           0        0.839791    0.286133    5.544655
    120          1           0        1.569243   -1.325917    5.845148
    121          7           0        3.412719   -2.895534    0.338443
    122          6           0        4.497792   -3.546337   -0.355871
    123          6           0        5.802481   -2.787041   -0.155486
    124          8           0        5.820382   -1.716146    0.439462
    125          6           0        4.068672   -3.709332   -1.812919
    126          8           0        3.993059   -2.459157   -2.466175
    127          1           0        3.139078   -1.968399    0.049233
    128          1           0        4.699249   -4.561438    0.000059
    129          1           0        3.123108   -4.242136   -1.850732
    130          1           0        4.805203   -4.320478   -2.344917
    131          1           0        3.399242   -1.899316   -1.968821
    132          7           0        6.842220   -3.496085   -0.603928
    133          6           0        8.213785   -3.053652   -0.501654
    134          6           0        8.553258   -1.615153   -0.872707
    135          8           0        9.121909   -0.837518   -0.109019
    136          6           0        9.099391   -4.013918   -1.296694
    137          1           0        6.683068   -4.435308   -0.971257
    138          1           0        8.416169   -3.133907    0.569234
    139          1           0       10.122366   -3.692597   -1.137710
    140          1           0        8.971922   -5.060101   -1.025858
    141          1           0        8.893572   -3.823787   -2.356831
    142          7           0        8.248407   -1.166922   -2.090883
    143          6           0        8.434185    0.219495   -2.481056
    144          6           0        7.482637    1.203848   -1.823024
    145          8           0        7.822299    2.386306   -1.791035
    146          6           0        8.358419    0.262893   -4.009119
    147          1           0        7.666594   -1.621837   -2.780554
    148          1           0        9.475554    0.368209   -2.198507
    149          1           0        8.454442    1.246996   -4.464772
    150          1           0        9.211591   -0.352544   -4.311168
    151          1           0        7.450642   -0.122910   -4.458226
    152          7           0        6.337618    0.857794   -1.247370
    153          6           0        5.483652    1.724988   -0.458373
    154          6           0        6.015479    1.827649    0.959802
    155          8           0        6.133887    2.969239    1.422460
    156          6           0        4.083935    1.124499   -0.358841
    157          6           0        3.244609    1.099290   -1.634379
    158          6           0        2.054871    0.169002   -1.445729
    159          8           0        2.219607   -1.071522   -1.467205
    160          8           0        0.985968    0.711401   -1.098671
    161          1           0        6.037226   -0.104241   -1.175574
    162          1           0        5.405900    2.736687   -0.842326
    163          1           0        3.490300    1.656552    0.385348
    164          1           0        4.183592    0.085033   -0.028267
    165          1           0        3.818651    0.658153   -2.458257
    166          1           0        2.837445    2.068667   -1.932915
    167          7           0        6.615406    0.762596    1.507112
    168          6           0        7.367965    0.955424    2.725419
    169          1           0        8.207184    0.260298    2.746857
    170          1           0        7.742912    1.977573    2.763481
    171          1           0        6.722519    0.771524    3.584724
    172          1           0        6.396203   -0.166516    1.166083
    173         20           0       -1.529781    0.060180   -1.162839
    174          8           0       -0.209594   -2.177829   -1.615079
    175          1           0        0.734143   -2.072729   -1.569100
    176          1           0       -0.337032   -2.955408   -2.154644
 ---------------------------------------------------------------------

 SCF Done:  E(RB3LYP) =  -5333.60873073     A.U. after   19 cycles

 The electronic state is 1-A.
 Alpha  occ. eigenvalues -- -145.36001 -19.14883 -19.14694 -19.14141 -19.12230
 Alpha  occ. eigenvalues --  -19.11422 -19.10702 -19.10693 -19.10591 -19.10335
 Alpha  occ. eigenvalues --  -19.10320 -19.09664 -19.08756 -19.08364 -19.08011
 Alpha  occ. eigenvalues --  -19.07390 -19.06238 -19.05572 -19.05420 -19.05236
 Alpha  occ. eigenvalues --  -19.04565 -19.04036 -19.03572 -19.03217 -15.41771
 Alpha  occ. eigenvalues --  -14.59233 -14.39948 -14.38164 -14.37299 -14.36851
 Alpha  occ. eigenvalues --  -14.36639 -14.36579 -14.35487 -14.35238 -14.33299
 Alpha  occ. eigenvalues --  -14.31930 -14.31152 -14.30139 -14.29760 -14.28719
 Alpha  occ. eigenvalues --  -12.55404 -12.55342 -12.55315 -10.35942 -10.32489
 Alpha  occ. eigenvalues --  -10.31400 -10.30569 -10.29542 -10.29080 -10.28791
 Alpha  occ. eigenvalues --  -10.28771 -10.28554 -10.28336 -10.27876 -10.26463
 Alpha  occ. eigenvalues --  -10.26408 -10.26383 -10.25635 -10.25389 -10.24869
 Alpha  occ. eigenvalues --  -10.24831 -10.24509 -10.24339 -10.24161 -10.24150
 Alpha  occ. eigenvalues --  -10.23968 -10.23811 -10.23652 -10.23222 -10.23144
 Alpha  occ. eigenvalues --  -10.23089 -10.23069 -10.22682 -10.22574 -10.22363
 Alpha  occ. eigenvalues --  -10.21902 -10.20427 -10.20416 -10.20399 -10.19834
 Alpha  occ. eigenvalues --  -10.19569 -10.19123 -10.18970 -10.18244 -10.18219
 Alpha  occ. eigenvalues --  -10.18181 -10.18121 -10.17730 -10.17681 -10.17668
 Alpha  occ. eigenvalues --  -10.17475 -10.17371 -10.17223 -10.17125 -10.17079
 Alpha  occ. eigenvalues --  -10.16801 -10.16373  -1.78685  -1.14356  -1.07489
 Alpha  occ. eigenvalues --   -1.06501  -1.06271  -1.06153  -1.05286  -1.04863
 Alpha  occ. eigenvalues --   -1.04523  -1.03865  -1.03645  -1.03544  -1.03525
 Alpha  occ. eigenvalues --   -1.03013  -1.02183  -1.01245  -1.00940  -1.00563
 Alpha  occ. eigenvalues --   -1.00448  -1.00087  -0.99287  -0.98866  -0.97956
 Alpha  occ. eigenvalues --   -0.97320  -0.97216  -0.96265  -0.94822  -0.94432
 Alpha  occ. eigenvalues --   -0.94113  -0.93946  -0.93257  -0.92426  -0.91884
 Alpha  occ. eigenvalues --   -0.90909  -0.90416  -0.90138  -0.89463  -0.88983
 Alpha  occ. eigenvalues --   -0.88726  -0.88377  -0.87208  -0.86453  -0.85530
 Alpha  occ. eigenvalues --   -0.83495  -0.83068  -0.82868  -0.82233  -0.79727
 Alpha  occ. eigenvalues --   -0.79619  -0.78115  -0.78098  -0.77471  -0.76863
 Alpha  occ. eigenvalues --   -0.75724  -0.75250  -0.74857  -0.74586  -0.74139
 Alpha  occ. eigenvalues --   -0.72833  -0.72828  -0.72443  -0.71983  -0.70593
 Alpha  occ. eigenvalues --   -0.70456  -0.69236  -0.69091  -0.68401  -0.68157
 Alpha  occ. eigenvalues --   -0.67124  -0.67108  -0.65939  -0.65420  -0.64887
 Alpha  occ. eigenvalues --   -0.64627  -0.64031  -0.63134  -0.62961  -0.62740
 Alpha  occ. eigenvalues --   -0.62372  -0.61781  -0.61599  -0.60362  -0.60271
 Alpha  occ. eigenvalues --   -0.60065  -0.59886  -0.58975  -0.58611  -0.57686
 Alpha  occ. eigenvalues --   -0.57401  -0.57033  -0.56982  -0.56648  -0.56077
 Alpha  occ. eigenvalues --   -0.55860  -0.55572  -0.55484  -0.55417  -0.55123
 Alpha  occ. eigenvalues --   -0.54762  -0.54210  -0.54131  -0.53804  -0.53273
 Alpha  occ. eigenvalues --   -0.53099  -0.52827  -0.52678  -0.52428  -0.52174
 Alpha  occ. eigenvalues --   -0.52152  -0.51395  -0.50941  -0.50790  -0.50222
 Alpha  occ. eigenvalues --   -0.49961  -0.49850  -0.49682  -0.49589  -0.49277
 Alpha  occ. eigenvalues --   -0.48862  -0.48650  -0.48421  -0.48008  -0.47976
 Alpha  occ. eigenvalues --   -0.47826  -0.47760  -0.47665  -0.47125  -0.47019
 Alpha  occ. eigenvalues --   -0.46937  -0.46555  -0.46119  -0.46041  -0.45848
 Alpha  occ. eigenvalues --   -0.45787  -0.45586  -0.45524  -0.45030  -0.44950
 Alpha  occ. eigenvalues --   -0.44743  -0.44553  -0.44401  -0.44341  -0.44034
 Alpha  occ. eigenvalues --   -0.43766  -0.43644  -0.43384  -0.43322  -0.43043
 Alpha  occ. eigenvalues --   -0.42965  -0.42852  -0.42793  -0.42631  -0.42469
 Alpha  occ. eigenvalues --   -0.42431  -0.42290  -0.42199  -0.42135  -0.41991
 Alpha  occ. eigenvalues --   -0.41898  -0.41880  -0.41631  -0.41542  -0.41470
 Alpha  occ. eigenvalues --   -0.41254  -0.41047  -0.40931  -0.40820  -0.40691
 Alpha  occ. eigenvalues --   -0.40621  -0.40476  -0.40262  -0.40254  -0.40118
 Alpha  occ. eigenvalues --   -0.39911  -0.39761  -0.39665  -0.39649  -0.39573
 Alpha  occ. eigenvalues --   -0.39192  -0.39109  -0.39015  -0.38701  -0.38667
 Alpha  occ. eigenvalues --   -0.38490  -0.38205  -0.38046  -0.37843  -0.37832
 Alpha  occ. eigenvalues --   -0.37666  -0.37546  -0.37233  -0.36995  -0.36869
 Alpha  occ. eigenvalues --   -0.36742  -0.36505  -0.36221  -0.36190  -0.35927
 Alpha  occ. eigenvalues --   -0.35718  -0.35590  -0.35272  -0.35094  -0.35001
 Alpha  occ. eigenvalues --   -0.34887  -0.34737  -0.34375  -0.34248  -0.34142
 Alpha  occ. eigenvalues --   -0.33722  -0.33550  -0.33491  -0.33299  -0.32971
 Alpha  occ. eigenvalues --   -0.32828  -0.32700  -0.32553  -0.32336  -0.32063
 Alpha  occ. eigenvalues --   -0.31626  -0.30883  -0.30637  -0.30465  -0.30258
 Alpha  occ. eigenvalues --   -0.29927  -0.29083  -0.28936  -0.28595  -0.28211
 Alpha  occ. eigenvalues --   -0.28111  -0.27593  -0.27508  -0.27206  -0.27062
 Alpha  occ. eigenvalues --   -0.26791  -0.26438  -0.25924  -0.25750  -0.25529
 Alpha  occ. eigenvalues --   -0.25092  -0.24753  -0.24697  -0.24464  -0.24284
 Alpha  occ. eigenvalues --   -0.24166  -0.24079  -0.23868  -0.23584  -0.23120
 Alpha  occ. eigenvalues --   -0.22983  -0.22653  -0.22611  -0.22085  -0.21919
 Alpha  occ. eigenvalues --   -0.21415  -0.21359  -0.19822  -0.19567  -0.19530
 Alpha  occ. eigenvalues --   -0.19454  -0.19323  -0.18672
 Alpha virt. eigenvalues --   -0.10674  -0.05743  -0.05422  -0.02282  -0.02123
 Alpha virt. eigenvalues --   -0.01297  -0.00837  -0.00290  -0.00261   0.00078
 Alpha virt. eigenvalues --    0.00555   0.00634   0.01116   0.01196   0.01286

 Mulliken charges:
               1
     1  C    0.090068
     2  C    0.014796
     3  O   -0.328273
     4  H    0.062976
     5  H   -0.011038
     6  H    0.008183
     7  N   -0.121345
     8  C    0.066309
     9  C    0.091140
    10  O   -0.266242
    11  C    0.084531
    12  C    0.154789
    13  O   -0.449538
    14  O   -0.381761
    15  H    0.124975
    16  H    0.044907
    17  H    0.001506
    18  H    0.011159
    19  N   -0.140988
    20  C    0.173021
    21  C    0.016516
    22  O   -0.276381
    23  C    0.041569
    24  C    0.042230
    25  C   -0.062645
    26  C    0.035670
    27  N    0.080762
    28  H    0.124658
    29  H    0.019982
    30  H    0.029539
    31  H   -0.008629
    32  H   -0.013671
    33  H    0.014807
    34  H    0.014978
    35  H    0.039648
    36  H    0.076859
    37  H    0.097034
    38  H    0.191286
    39  H    0.189010
    40  H    0.216907
    41  N   -0.146443
    42  C    0.080613
    43  C    0.070077
    44  O   -0.283631
    45  C    0.152908
    46  C    0.094031
    47  O   -0.457120
    48  O   -0.424445
    49  H    0.132234
    50  H    0.020408
    51  H   -0.002804
    52  H    0.025853
    53  N   -0.152373
    54  C    0.242668
    55  C    0.040029
    56  O   -0.287094
    57  H    0.143678
    58  H    0.001723
    59  H    0.039824
    60  N   -0.162259
    61  C    0.149761
    62  C    0.059259
    63  O   -0.287313
    64  C    0.093180
    65  C    0.066443
    66  N   -0.037833
    67  O   -0.372585
    68  H    0.144497
    69  H    0.028284
    70  H    0.057490
    71  H    0.011626
    72  H    0.127680
    73  H    0.117084
    74  N   -0.182602
    75  C    0.258662
    76  C   -0.011828
    77  O   -0.304071
    78  H    0.136642
    79  H    0.029991
    80  H    0.033818
    81  N   -0.126064
    82  C    0.122212
    83  C    0.116705
    84  O   -0.327359
    85  C    0.132685
    86  C    0.024509
    87  C   -0.012131
    88  C    0.020241
    89  C   -0.022438
    90  C   -0.063147
    91  C    0.159198
    92  O   -0.187008
    93  H    0.149735
    94  H   -0.014563
    95  H   -0.012968
    96  H   -0.046131
    97  H   -0.038355
    98  H   -0.039353
    99  H   -0.033364
   100  H   -0.042779
   101  H    0.164183
   102  N   -0.107234
   103  C    0.226562
   104  C    0.008023
   105  O   -0.287693
   106  C   -0.164102
   107  C    0.053827
   108  C    0.099331
   109  C    0.007760
   110  H    0.128560
   111  H   -0.013534
   112  H   -0.016162
   113  H    0.029053
   114  H    0.004854
   115  H    0.028305
   116  H    0.010892
   117  H   -0.010857
   118  H   -0.015211
   119  H   -0.015624
   120  H    0.012393
   121  N   -0.132826
   122  C    0.018437
   123  C    0.148070
   124  O   -0.281001
   125  C    0.282184
   126  O   -0.351792
   127  H    0.149290
   128  H    0.021170
   129  H   -0.003917
   130  H   -0.035112
   131  H    0.156057
   132  N   -0.124775
   133  C    0.106126
   134  C    0.050888
   135  O   -0.249886
   136  C    0.027245
   137  H    0.135175
   138  H    0.015513
   139  H    0.038649
   140  H    0.033891
   141  H    0.016244
   142  N   -0.167688
   143  C    0.097360
   144  C    0.101320
   145  O   -0.296890
   146  C    0.017075
   147  H    0.117730
   148  H    0.030230
   149  H    0.035599
   150  H    0.019096
   151  H    0.014619
   152  N   -0.111859
   153  C    0.182332
   154  C    0.061881
   155  O   -0.320517
   156  C   -0.080917
   157  C    0.133889
   158  C    0.167450
   159  O   -0.432723
   160  O   -0.415704
   161  H    0.114020
   162  H   -0.024941
   163  H    0.016531
   164  H   -0.003310
   165  H   -0.008955
   166  H   -0.003106
   167  N   -0.164256
   168  C    0.140881
   169  H    0.021931
   170  H    0.030534
   171  H    0.000054
   172  H    0.131213
   173  Ca   1.303142
   174  O   -0.296478
   175  H    0.160249
   176  H    0.162261
 Sum of Mulliken charges =  -0.00000

 Dipole moment (field-independent basis, Debye):
    X=             32.1687    Y=             15.9582    Z=              1.8265  Tot=             35.9558
 Quadrupole moment (field-independent basis, Debye-Ang):
   XX=           -729.5246   YY=           -353.6339   ZZ=           -539.0746
   XY=             47.1497   XZ=            -21.1048   YZ=             71.4971

 ESP charges:
               1
     1  C   -0.443640
     2  C    0.772915
     3  O   -0.594378
     4  H    0.151751
     5  H    0.097891
     6  H    0.102627
     7  N   -0.773745
     8  C    0.274257
     9  C    0.545794
    10  O   -0.460539
    11  C   -0.374386
    12  C    0.727759
    13  O   -0.711213
    14  O   -0.617777
    15  H    0.378957
    16  H    0.101496
    17  H    0.095640
    18  H    0.109513
    19  N   -0.458022
    20  C   -0.053089
    21  C    0.494885
    22  O   -0.552221
    23  C   -0.158727
    24  C    0.221959
    25  C   -0.113466
    26  C    0.058017
    27  N   -0.363346
    28  H    0.285359
    29  H    0.119893
    30  H    0.081168
    31  H    0.053651
    32  H   -0.065367
    33  H   -0.006478
    34  H    0.035380
    35  H    0.057613
    36  H    0.075035
    37  H    0.096864
    38  H    0.336472
    39  H    0.329188
    40  H    0.339869
    41  N   -0.376863
    42  C    0.227551
    43  C    0.246055
    44  O   -0.506895
    45  C   -0.401458
    46  C    0.821218
    47  O   -0.816772
    48  O   -0.736353
    49  H    0.270870
    50  H    0.074972
    51  H    0.094714
    52  H    0.132789
    53  N    0.283627
    54  C   -0.367343
    55  C    0.643897
    56  O   -0.579205
    57  H   -0.104704
    58  H    0.109605
    59  H    0.165244
    60  N   -0.284674
    61  C   -0.099961
    62  C    0.348204
    63  O   -0.474307
    64  C   -0.232378
    65  C    0.661492
    66  N   -0.881338
    67  O   -0.437388
    68  H    0.094584
    69  H    0.169349
    70  H    0.142705
    71  H    0.061072
    72  H    0.385894
    73  H    0.410104
    74  N   -0.043046
    75  C   -0.442493
    76  C    0.778910
    77  O   -0.618595
    78  H    0.157035
    79  H    0.163521
    80  H    0.163965
    81  N   -0.716555
    82  C    0.503779
    83  C    0.358132
    84  O   -0.537290
    85  C    0.237238
    86  C   -0.029307
    87  C   -0.340944
    88  C    0.027135
    89  C   -0.157262
    90  C   -0.414148
    91  C    0.387673
    92  O   -0.523699
    93  H    0.377109
    94  H   -0.079895
    95  H   -0.089634
    96  H   -0.125838
    97  H    0.227103
    98  H    0.082149
    99  H    0.128102
   100  H    0.175864
   101  H    0.374258
   102  N   -0.377943
   103  C   -0.449680
   104  C    0.790917
   105  O   -0.592648
   106  C    0.310913
   107  C   -0.194311
   108  C   -0.298790
   109  C   -0.152251
   110  H    0.306194
   111  H    0.126554
   112  H    0.027277
   113  H    0.111162
   114  H    0.101042
   115  H    0.071887
   116  H    0.064073
   117  H    0.062106
   118  H    0.047191
   119  H    0.029017
   120  H    0.039004
   121  N   -0.449703
   122  C   -0.185950
   123  C    0.622704
   124  O   -0.478921
   125  C    0.165182
   126  O   -0.616718
   127  H    0.466288
   128  H    0.096109
   129  H    0.032122
   130  H    0.024729
   131  H    0.403427
   132  N   -0.492115
   133  C    0.216386
   134  C    0.446492
   135  O   -0.538476
   136  C   -0.359835
   137  H    0.315154
   138  H    0.039235
   139  H    0.118819
   140  H    0.121514
   141  H    0.072564
   142  N   -0.258964
   143  C   -0.068890
   144  C    0.428742
   145  O   -0.524726
   146  C   -0.315430
   147  H    0.227639
   148  H    0.163687
   149  H    0.125783
   150  H    0.077636
   151  H    0.107145
   152  N   -0.105780
   153  C   -0.069939
   154  C    0.366815
   155  O   -0.566326
   156  C    0.141045
   157  C   -0.229633
   158  C    0.764737
   159  O   -0.703822
   160  O   -0.681891
   161  H    0.105710
   162  H    0.087381
   163  H    0.028322
   164  H   -0.172215
   165  H    0.022489
   166  H    0.062241
   167  N    0.019057
   168  C   -0.230442
   169  H    0.084350
   170  H    0.119442
   171  H    0.052403
   172  H    0.143132
   173  Ca   1.551221
   174  O   -0.917177
   175  H    0.448611
   176  H    0.411791
 Sum of ESP charges =   0.00000

 Normal termination of Gaussian 16 at Sat Sep 14 22:38:41 2019.
