 Gaussian 16, Revision A.03,
 Gaussian 16:  ES64L-G16RevA.03 25-Dec-2016

 ----------------------------------------------------------------------
 #b3lyp/svp scf=(tight,noincore) Test #IOP(5/87=12) Density=Current Pop
 =(MK,readradii) iop(6/33=2) iop(6/42=6)
 ----------------------------------------------------------------------

 ------------------
 holoCaM_loop3_84.0
 ------------------
 Symbolic Z-matrix:
 Charge =  0 Multiplicity = 1

                         Standard orientation:
 ---------------------------------------------------------------------
 Center     Atomic      Atomic             Coordinates (Angstroms)
 Number     Number       Type             X           Y           Z
 ---------------------------------------------------------------------
      1          6           0        2.741251    3.855114    4.635285
      2          6           0        2.077702    3.198407    3.439902
      3          8           0        2.625345    3.022820    2.354243
      4          1           0        3.573972    3.237664    4.972333
      5          1           0        3.112355    4.840110    4.350581
      6          1           0        2.016307    3.959324    5.442206
      7          7           0        0.757787    3.015544    3.510520
      8          6           0       -0.087729    2.624248    2.400840
      9          6           0       -0.285784    3.749595    1.400655
     10          8           0       -1.273133    4.481405    1.420541
     11          6           0       -1.391065    2.041445    2.936617
     12          6           0       -2.427196    1.666524    1.877907
     13          8           0       -2.155390    1.404775    0.686937
     14          8           0       -3.505015    1.332996    2.415740
     15          1           0        0.260019    3.302919    4.346547
     16          1           0        0.355467    1.747817    1.926662
     17          1           0       -1.885327    2.820377    3.517968
     18          1           0       -1.119400    1.174136    3.536679
     19          7           0        0.617559    3.862696    0.422402
     20          6           0        0.821837    4.956004   -0.502934
     21          6           0       -0.307145    5.214844   -1.484667
     22          8           0       -0.457668    6.359434   -1.909118
     23          6           0        2.100719    4.793342   -1.310524
     24          6           0        3.321266    4.713351   -0.393046
     25          6           0        3.598412    5.763140    0.682841
     26          6           0        3.716055    7.182323    0.148913
     27          7           0        4.027790    8.077319    1.266546
     28          1           0        1.362976    3.174443    0.354859
     29          1           0        0.841635    5.846765    0.124643
     30          1           0        2.123290    5.691517   -1.934521
     31          1           0        2.165558    3.936192   -1.969835
     32          1           0        4.231205    4.628686   -0.977034
     33          1           0        3.372121    3.738174    0.102578
     34          1           0        4.482860    5.508604    1.262724
     35          1           0        2.821885    5.691121    1.447249
     36          1           0        2.772298    7.418494   -0.356504
     37          1           0        4.543006    7.107979   -0.560400
     38          1           0        4.438462    8.913046    0.858369
     39          1           0        3.171241    8.280068    1.765061
     40          1           0        4.732385    7.705086    1.894391
     41          7           0       -1.046776    4.196851   -1.942091
     42          6           0       -2.289076    4.293430   -2.679426
     43          6           0       -3.552365    4.178643   -1.849954
     44          8           0       -4.665131    4.406635   -2.329507
     45          6           0       -2.280024    3.387147   -3.908275
     46          6           0       -2.102266    1.915892   -3.587012
     47          8           0       -2.441884    1.473317   -2.462606
     48          8           0       -1.613227    1.135892   -4.438681
     49          1           0       -0.823454    3.285309   -1.571389
     50          1           0       -2.343536    5.279885   -3.125454
     51          1           0       -1.371408    3.788017   -4.362828
     52          1           0       -3.024087    3.696150   -4.651637
     53          7           0       -3.432101    3.997573   -0.529784
     54          6           0       -4.504190    3.935336    0.436731
     55          6           0       -5.620561    2.948970    0.114090
     56          8           0       -6.776853    3.362277    0.228392
     57          1           0       -2.499852    3.784258   -0.219931
     58          1           0       -5.115585    4.828578    0.590400
     59          1           0       -3.994570    3.666003    1.365734
     60          7           0       -5.369059    1.784091   -0.489902
     61          6           0       -6.340512    0.767584   -0.845559
     62          6           0       -6.583589   -0.151140    0.337682
     63          8           0       -7.507498   -0.964681    0.314356
     64          6           0       -5.974594    0.067049   -2.155733
     65          6           0       -4.786222   -0.856676   -1.978239
     66          7           0       -4.561306   -1.637490   -3.040474
     67          8           0       -3.922253   -0.865323   -1.094846
     68          1           0       -4.424415    1.521011   -0.710209
     69          1           0       -7.257494    1.324918   -1.008722
     70          1           0       -5.762361    0.804130   -2.932951
     71          1           0       -6.792868   -0.504823   -2.599342
     72          1           0       -5.222476   -1.616723   -3.805015
     73          1           0       -3.858127   -2.358752   -2.984622
     74          7           0       -5.723936   -0.082048    1.364387
     75          6           0       -5.972392   -0.748643    2.627011
     76          6           0       -5.305696   -2.089811    2.855448
     77          8           0       -5.659196   -2.891515    3.713707
     78          1           0       -5.054555    0.679547    1.362871
     79          1           0       -7.028685   -0.830728    2.905590
     80          1           0       -5.522853   -0.139970    3.402403
     81          7           0       -4.313437   -2.422613    2.023363
     82          6           0       -3.317089   -3.458204    2.244592
     83          6           0       -1.922328   -3.040378    1.809433
     84          8           0       -1.748212   -2.263824    0.865215
     85          6           0       -3.677130   -4.814042    1.647622
     86          6           0       -4.596082   -4.717775    0.451980
     87          6           0       -4.064708   -4.592565   -0.834319
     88          6           0       -5.986994   -4.786300    0.624510
     89          6           0       -4.898816   -4.503882   -1.953514
     90          6           0       -6.827858   -4.691540   -0.490510
     91          6           0       -6.296896   -4.558639   -1.788669
     92          8           0       -7.146279   -4.552812   -2.859890
     93          1           0       -4.045261   -1.814896    1.261482
     94          1           0       -3.218991   -3.465595    3.324047
     95          1           0       -4.216114   -5.356631    2.427426
     96          1           0       -2.766872   -5.333713    1.337989
     97          1           0       -3.005562   -4.446510   -0.961902
     98          1           0       -6.427035   -4.834816    1.611683
     99          1           0       -4.526295   -4.512409   -2.966902
    100          1           0       -7.898269   -4.603559   -0.362524
    101          1           0       -8.071255   -4.560612   -2.596720
    102          7           0       -0.856918   -3.435094    2.502902
    103          6           0        0.494015   -2.993972    2.202415
    104          6           0        1.125372   -3.918066    1.168037
    105          8           0        0.832477   -5.106193    1.082207
    106          6           0        1.325218   -2.876675    3.472156
    107          6           0        0.930516   -1.577858    4.176418
    108          6           0        2.831955   -2.884551    3.262916
    109          6           0        1.281000   -0.251065    3.507029
    110          1           0       -0.974894   -3.971646    3.356303
    111          1           0        0.401128   -2.018301    1.733866
    112          1           0        1.190326   -3.726480    4.131426
    113          1           0        1.351885   -1.533662    5.176915
    114          1           0       -0.162967   -1.619102    4.263557
    115          1           0        3.176947   -3.882677    2.974604
    116          1           0        3.114284   -2.119825    2.534915
    117          1           0        3.404771   -2.608541    4.147111
    118          1           0        1.113937    0.578058    4.185442
    119          1           0        2.359414   -0.259174    3.371544
    120          1           0        0.727114   -0.094096    2.574145
    121          7           0        1.963537   -3.362211    0.302124
    122          6           0        2.779054   -3.985185   -0.728864
    123          6           0        4.274906   -3.723603   -0.653368
    124          8           0        4.777951   -2.945769    0.153985
    125          6           0        2.123495   -3.445407   -2.000156
    126          8           0        2.664491   -2.226441   -2.467856
    127          1           0        2.034476   -2.351151    0.238679
    128          1           0        2.637858   -5.066180   -0.725194
    129          1           0        1.050508   -3.328028   -1.895172
    130          1           0        2.420593   -4.093684   -2.827181
    131          1           0        2.117695   -1.956641   -3.218204
    132          7           0        5.081505   -4.393493   -1.486823
    133          6           0        6.522397   -4.420526   -1.343646
    134          6           0        7.137017   -3.058594   -1.636875
    135          8           0        8.022800   -2.613404   -0.923647
    136          6           0        7.080349   -5.494456   -2.278721
    137          1           0        4.645432   -5.005533   -2.163689
    138          1           0        6.682298   -4.682539   -0.296564
    139          1           0        6.705811   -6.457795   -1.937696
    140          1           0        6.804142   -5.282914   -3.320767
    141          1           0        8.165429   -5.491067   -2.204627
    142          7           0        6.670932   -2.308901   -2.643714
    143          6           0        7.074981   -0.936807   -2.813425
    144          6           0        6.796140   -0.056300   -1.600348
    145          8           0        7.625946    0.785465   -1.243483
    146          6           0        6.443513   -0.358708   -4.077565
    147          1           0        5.928490   -2.693602   -3.213087
    148          1           0        8.147832   -0.878427   -3.006775
    149          1           0        5.362947   -0.219868   -3.992127
    150          1           0        6.966429    0.555247   -4.346166
    151          1           0        6.597122   -1.075440   -4.893409
    152          7           0        5.747164   -0.368286   -0.855624
    153          6           0        5.399290    0.310185    0.372163
    154          6           0        6.255321   -0.163357    1.536107
    155          8           0        6.559245    0.650944    2.399325
    156          6           0        3.896880    0.274647    0.603687
    157          6           0        3.035272    0.705653   -0.579219
    158          6           0        1.534783    0.437228   -0.532519
    159          8           0        0.805174    1.214659   -1.191816
    160          8           0        1.074888   -0.602286   -0.027142
    161          1           0        5.143319   -1.160979   -1.062046
    162          1           0        5.623152    1.370976    0.268203
    163          1           0        3.673897    0.931599    1.442193
    164          1           0        3.571014   -0.746341    0.796025
    165          1           0        3.402420    0.168506   -1.454648
    166          1           0        3.087594    1.778876   -0.787195
    167          7           0        6.645426   -1.440739    1.655326
    168          6           0        7.328817   -2.054534    2.768040
    169          1           0        7.220297   -1.426247    3.651430
    170          1           0        6.895861   -3.034922    2.965136
    171          1           0        8.386661   -2.165489    2.528631
    172          1           0        6.393876   -2.120751    0.944829
    173         20           0       -1.277029   -0.347213   -0.994110
    174          8           0       -0.153796   -0.646628   -3.411070
    175          1           0       -0.460336    0.098381   -3.937469
    176          1           0        0.478680   -1.088224   -3.972380
 ---------------------------------------------------------------------

 SCF Done:  E(RB3LYP) =  -5333.59730822     A.U. after   18 cycles

 The electronic state is 1-A.
 Alpha  occ. eigenvalues -- -145.36848 -19.16753 -19.15001 -19.14157 -19.12409
 Alpha  occ. eigenvalues --  -19.11975 -19.11514 -19.10792 -19.10500 -19.09562
 Alpha  occ. eigenvalues --  -19.09301 -19.09146 -19.07936 -19.07832 -19.07495
 Alpha  occ. eigenvalues --  -19.05776 -19.05676 -19.05187 -19.04725 -19.04535
 Alpha  occ. eigenvalues --  -19.03497 -19.03307 -19.03216 -19.03028 -15.42578
 Alpha  occ. eigenvalues --  -14.58950 -14.39687 -14.37236 -14.37147 -14.36861
 Alpha  occ. eigenvalues --  -14.35030 -14.34891 -14.34491 -14.34032 -14.32999
 Alpha  occ. eigenvalues --  -14.31485 -14.31478 -14.29522 -14.29281 -14.29215
 Alpha  occ. eigenvalues --  -12.56198 -12.56157 -12.56138 -10.34308 -10.32645
 Alpha  occ. eigenvalues --  -10.30512 -10.29982 -10.29618 -10.28835 -10.28097
 Alpha  occ. eigenvalues --  -10.28076 -10.27037 -10.26938 -10.26931 -10.26745
 Alpha  occ. eigenvalues --  -10.26597 -10.26542 -10.26438 -10.24855 -10.24591
 Alpha  occ. eigenvalues --  -10.24184 -10.23865 -10.23765 -10.23684 -10.23585
 Alpha  occ. eigenvalues --  -10.23094 -10.22986 -10.22680 -10.22615 -10.22462
 Alpha  occ. eigenvalues --  -10.22399 -10.22343 -10.22307 -10.22275 -10.21906
 Alpha  occ. eigenvalues --  -10.21026 -10.20354 -10.19860 -10.19693 -10.19371
 Alpha  occ. eigenvalues --  -10.19367 -10.18711 -10.18197 -10.18025 -10.17981
 Alpha  occ. eigenvalues --  -10.17812 -10.17665 -10.17429 -10.17419 -10.17412
 Alpha  occ. eigenvalues --  -10.17265 -10.17191 -10.17044 -10.17043 -10.16941
 Alpha  occ. eigenvalues --  -10.16796 -10.15281  -1.79410  -1.14017  -1.07606
 Alpha  occ. eigenvalues --   -1.07184  -1.06880  -1.06763  -1.05055  -1.04891
 Alpha  occ. eigenvalues --   -1.04794  -1.04579  -1.03385  -1.03124  -1.02698
 Alpha  occ. eigenvalues --   -1.02621  -1.02499  -1.00948  -1.00789  -0.99538
 Alpha  occ. eigenvalues --   -0.99057  -0.98952  -0.98725  -0.98242  -0.97493
 Alpha  occ. eigenvalues --   -0.96773  -0.96472  -0.95840  -0.93673  -0.93384
 Alpha  occ. eigenvalues --   -0.93219  -0.93027  -0.92522  -0.92343  -0.90901
 Alpha  occ. eigenvalues --   -0.89786  -0.89484  -0.89021  -0.88871  -0.88300
 Alpha  occ. eigenvalues --   -0.88109  -0.87685  -0.87418  -0.85661  -0.85180
 Alpha  occ. eigenvalues --   -0.83192  -0.82602  -0.81774  -0.81398  -0.78970
 Alpha  occ. eigenvalues --   -0.78877  -0.78056  -0.77371  -0.77137  -0.76603
 Alpha  occ. eigenvalues --   -0.75470  -0.74612  -0.74244  -0.74009  -0.73919
 Alpha  occ. eigenvalues --   -0.72736  -0.72499  -0.72153  -0.71526  -0.70436
 Alpha  occ. eigenvalues --   -0.69645  -0.69054  -0.68774  -0.67980  -0.67743
 Alpha  occ. eigenvalues --   -0.67214  -0.65619  -0.65233  -0.64867  -0.64559
 Alpha  occ. eigenvalues --   -0.64139  -0.62837  -0.62818  -0.62494  -0.61912
 Alpha  occ. eigenvalues --   -0.61403  -0.60764  -0.60411  -0.60325  -0.60159
 Alpha  occ. eigenvalues --   -0.59813  -0.59141  -0.59014  -0.58103  -0.57873
 Alpha  occ. eigenvalues --   -0.57794  -0.56932  -0.56661  -0.55819  -0.55625
 Alpha  occ. eigenvalues --   -0.55268  -0.54995  -0.54836  -0.54465  -0.54304
 Alpha  occ. eigenvalues --   -0.54235  -0.53619  -0.53317  -0.53231  -0.52975
 Alpha  occ. eigenvalues --   -0.52729  -0.52623  -0.52328  -0.51756  -0.51696
 Alpha  occ. eigenvalues --   -0.51326  -0.50714  -0.50568  -0.50335  -0.50201
 Alpha  occ. eigenvalues --   -0.49798  -0.49586  -0.49444  -0.49074  -0.48720
 Alpha  occ. eigenvalues --   -0.48412  -0.48172  -0.48005  -0.47759  -0.47551
 Alpha  occ. eigenvalues --   -0.47370  -0.47038  -0.46819  -0.46544  -0.46357
 Alpha  occ. eigenvalues --   -0.46285  -0.46179  -0.46013  -0.45840  -0.45641
 Alpha  occ. eigenvalues --   -0.45575  -0.45355  -0.44911  -0.44851  -0.44800
 Alpha  occ. eigenvalues --   -0.44053  -0.43858  -0.43787  -0.43562  -0.43535
 Alpha  occ. eigenvalues --   -0.43402  -0.43230  -0.43149  -0.42903  -0.42669
 Alpha  occ. eigenvalues --   -0.42546  -0.42434  -0.42283  -0.42120  -0.42092
 Alpha  occ. eigenvalues --   -0.41920  -0.41856  -0.41745  -0.41502  -0.41336
 Alpha  occ. eigenvalues --   -0.41274  -0.41145  -0.41085  -0.40881  -0.40840
 Alpha  occ. eigenvalues --   -0.40636  -0.40395  -0.40139  -0.40065  -0.39952
 Alpha  occ. eigenvalues --   -0.39756  -0.39695  -0.39621  -0.39574  -0.39437
 Alpha  occ. eigenvalues --   -0.39395  -0.39177  -0.39115  -0.38962  -0.38810
 Alpha  occ. eigenvalues --   -0.38745  -0.38561  -0.38370  -0.38266  -0.38008
 Alpha  occ. eigenvalues --   -0.37894  -0.37798  -0.37620  -0.37502  -0.37236
 Alpha  occ. eigenvalues --   -0.37094  -0.37008  -0.36930  -0.36786  -0.36688
 Alpha  occ. eigenvalues --   -0.36441  -0.36268  -0.36038  -0.35902  -0.35743
 Alpha  occ. eigenvalues --   -0.35197  -0.35026  -0.34892  -0.34689  -0.34171
 Alpha  occ. eigenvalues --   -0.34142  -0.34005  -0.33783  -0.33712  -0.33420
 Alpha  occ. eigenvalues --   -0.33296  -0.33253  -0.33016  -0.32566  -0.32293
 Alpha  occ. eigenvalues --   -0.31968  -0.31676  -0.31633  -0.31559  -0.31464
 Alpha  occ. eigenvalues --   -0.31338  -0.31083  -0.30905  -0.30533  -0.29929
 Alpha  occ. eigenvalues --   -0.29639  -0.29252  -0.28329  -0.28108  -0.27922
 Alpha  occ. eigenvalues --   -0.27790  -0.27141  -0.26831  -0.26649  -0.26366
 Alpha  occ. eigenvalues --   -0.26342  -0.25999  -0.25627  -0.25446  -0.25146
 Alpha  occ. eigenvalues --   -0.24927  -0.24628  -0.24192  -0.24070  -0.23561
 Alpha  occ. eigenvalues --   -0.23478  -0.23384  -0.22811  -0.22583  -0.22551
 Alpha  occ. eigenvalues --   -0.22285  -0.22084  -0.21953  -0.21522  -0.21369
 Alpha  occ. eigenvalues --   -0.20701  -0.20684  -0.20071  -0.19333  -0.19213
 Alpha  occ. eigenvalues --   -0.19112  -0.18801  -0.18539
 Alpha virt. eigenvalues --   -0.10764  -0.04937  -0.04665  -0.02994  -0.01785
 Alpha virt. eigenvalues --   -0.01443  -0.00572  -0.00341  -0.00046   0.00187
 Alpha virt. eigenvalues --    0.00725   0.01367   0.01431   0.01745   0.02040

 Mulliken charges:
               1
     1  C    0.075706
     2  C    0.051848
     3  O   -0.303414
     4  H    0.060237
     5  H    0.002542
     6  H    0.007179
     7  N   -0.127202
     8  C    0.072701
     9  C    0.076244
    10  O   -0.284937
    11  C    0.055566
    12  C    0.156998
    13  O   -0.452085
    14  O   -0.380901
    15  H    0.120392
    16  H    0.014387
    17  H    0.001860
    18  H    0.019355
    19  N   -0.114542
    20  C    0.111190
    21  C    0.068904
    22  O   -0.298930
    23  C    0.044594
    24  C    0.005814
    25  C   -0.070750
    26  C    0.001409
    27  N    0.089046
    28  H    0.154429
    29  H   -0.033140
    30  H    0.004131
    31  H    0.041937
    32  H   -0.001590
    33  H    0.061794
    34  H    0.019520
    35  H    0.027820
    36  H    0.108152
    37  H    0.074605
    38  H    0.196411
    39  H    0.204598
    40  H    0.190935
    41  N   -0.156959
    42  C    0.123443
    43  C    0.064257
    44  O   -0.294224
    45  C    0.070574
    46  C    0.154417
    47  O   -0.442070
    48  O   -0.404848
    49  H    0.153687
    50  H    0.010893
    51  H   -0.008666
    52  H    0.029514
    53  N   -0.149994
    54  C    0.259372
    55  C    0.019820
    56  O   -0.290311
    57  H    0.135642
    58  H    0.010226
    59  H    0.016791
    60  N   -0.181277
    61  C    0.169737
    62  C    0.045532
    63  O   -0.297421
    64  C    0.044103
    65  C    0.101941
    66  N   -0.026570
    67  O   -0.357564
    68  H    0.148657
    69  H    0.017378
    70  H    0.069157
    71  H    0.022454
    72  H    0.121500
    73  H    0.120348
    74  N   -0.159141
    75  C    0.245229
    76  C    0.018180
    77  O   -0.298309
    78  H    0.147801
    79  H    0.022073
    80  H    0.026421
    81  N   -0.144885
    82  C    0.130836
    83  C    0.101086
    84  O   -0.378250
    85  C    0.192728
    86  C   -0.049077
    87  C    0.001848
    88  C    0.015048
    89  C   -0.047723
    90  C   -0.026527
    91  C    0.159165
    92  O   -0.210855
    93  H    0.151350
    94  H   -0.010120
    95  H    0.003418
    96  H    0.007452
    97  H   -0.046069
    98  H   -0.006779
    99  H   -0.041131
   100  H   -0.032438
   101  H    0.178718
   102  N   -0.095699
   103  C    0.150983
   104  C    0.031776
   105  O   -0.279563
   106  C   -0.103124
   107  C    0.046429
   108  C    0.073651
   109  C   -0.033923
   110  H    0.127719
   111  H    0.023829
   112  H   -0.014222
   113  H   -0.011586
   114  H   -0.021503
   115  H    0.010255
   116  H    0.017442
   117  H    0.001414
   118  H   -0.006205
   119  H    0.010577
   120  H    0.071685
   121  N   -0.156409
   122  C    0.101192
   123  C    0.124340
   124  O   -0.279536
   125  C    0.206666
   126  O   -0.312483
   127  H    0.161646
   128  H    0.031827
   129  H    0.030472
   130  H   -0.027796
   131  H    0.162196
   132  N   -0.141589
   133  C    0.094342
   134  C    0.045885
   135  O   -0.249316
   136  C    0.040881
   137  H    0.114794
   138  H    0.019832
   139  H    0.033522
   140  H    0.015254
   141  H    0.045026
   142  N   -0.125164
   143  C    0.101066
   144  C    0.071910
   145  O   -0.275937
   146  C    0.026952
   147  H    0.100565
   148  H    0.015864
   149  H    0.016021
   150  H    0.035922
   151  H    0.006849
   152  N   -0.159754
   153  C    0.153950
   154  C    0.073235
   155  O   -0.297310
   156  C   -0.016198
   157  C    0.077820
   158  C    0.139066
   159  O   -0.417776
   160  O   -0.443298
   161  H    0.136840
   162  H   -0.017652
   163  H    0.031754
   164  H    0.017163
   165  H   -0.006244
   166  H   -0.038574
   167  N   -0.162963
   168  C    0.131155
   169  H    0.021224
   170  H    0.002778
   171  H    0.023418
   172  H    0.134237
   173  Ca   1.288794
   174  O   -0.325962
   175  H    0.177933
   176  H    0.139237
 Sum of Mulliken charges =  -0.00000

 Dipole moment (field-independent basis, Debye):
    X=             27.3496    Y=              9.8799    Z=              0.0314  Tot=             29.0794
 Quadrupole moment (field-independent basis, Debye-Ang):
   XX=           -673.9407   YY=           -348.3243   ZZ=           -527.7721
   XY=            132.4669   XZ=             10.4936   YZ=             97.8921

 ESP charges:
               1
     1  C   -0.362871
     2  C    0.701913
     3  O   -0.630769
     4  H    0.129885
     5  H    0.082988
     6  H    0.086487
     7  N   -0.654769
     8  C    0.472069
     9  C    0.311643
    10  O   -0.475155
    11  C   -0.515558
    12  C    0.916177
    13  O   -0.798721
    14  O   -0.663918
    15  H    0.334711
    16  H   -0.127365
    17  H    0.106801
    18  H    0.128996
    19  N   -0.043842
    20  C   -0.278909
    21  C    0.639165
    22  O   -0.582698
    23  C   -0.073856
    24  C   -0.272908
    25  C    0.119256
    26  C    0.081746
    27  N   -0.492237
    28  H    0.246091
    29  H    0.114977
    30  H    0.067544
    31  H    0.091532
    32  H    0.074859
    33  H    0.144502
    34  H    0.012484
    35  H    0.001234
    36  H    0.076361
    37  H    0.066765
    38  H    0.358713
    39  H    0.371354
    40  H    0.358535
    41  N   -0.386624
    42  C    0.174210
    43  C    0.276385
    44  O   -0.515706
    45  C   -0.316751
    46  C    0.792560
    47  O   -0.699060
    48  O   -0.723344
    49  H    0.211601
    50  H    0.096597
    51  H    0.059887
    52  H    0.117208
    53  N    0.057728
    54  C   -0.153932
    55  C    0.570370
    56  O   -0.576593
    57  H   -0.082811
    58  H    0.080917
    59  H    0.083406
    60  N   -0.169871
    61  C   -0.198562
    62  C    0.365883
    63  O   -0.528209
    64  C   -0.082234
    65  C    0.719459
    66  N   -0.782546
    67  O   -0.609662
    68  H    0.191469
    69  H    0.153025
    70  H    0.092479
    71  H    0.055052
    72  H    0.356816
    73  H    0.357312
    74  N    0.143121
    75  C   -0.353117
    76  C    0.636214
    77  O   -0.578081
    78  H    0.007835
    79  H    0.127348
    80  H    0.140987
    81  N   -0.398132
    82  C    0.162019
    83  C    0.738224
    84  O   -0.660531
    85  C   -0.394661
    86  C    0.245074
    87  C   -0.262927
    88  C   -0.210861
    89  C   -0.229629
    90  C   -0.293309
    91  C    0.383806
    92  O   -0.577511
    93  H    0.207525
    94  H    0.036673
    95  H    0.115264
    96  H    0.111993
    97  H    0.142888
    98  H    0.191449
    99  H    0.140052
   100  H    0.149865
   101  H    0.419183
   102  N   -0.640223
   103  C    0.026515
   104  C    0.650993
   105  O   -0.573073
   106  C    0.121808
   107  C   -0.207028
   108  C   -0.270575
   109  C    0.073411
   110  H    0.326153
   111  H    0.100163
   112  H    0.038495
   113  H    0.046723
   114  H    0.013708
   115  H    0.064956
   116  H    0.007789
   117  H    0.094204
   118  H   -0.007947
   119  H    0.026924
   120  H    0.125541
   121  N   -0.550360
   122  C    0.217156
   123  C    0.435893
   124  O   -0.413076
   125  C   -0.061440
   126  O   -0.525571
   127  H    0.455720
   128  H    0.036077
   129  H    0.098928
   130  H    0.023685
   131  H    0.392944
   132  N   -0.416948
   133  C    0.080603
   134  C    0.577632
   135  O   -0.543234
   136  C   -0.402529
   137  H    0.285821
   138  H    0.112464
   139  H    0.125543
   140  H    0.109737
   141  H    0.139508
   142  N   -0.495836
   143  C    0.221757
   144  C    0.334790
   145  O   -0.520158
   146  C   -0.326869
   147  H    0.274515
   148  H    0.069689
   149  H    0.073915
   150  H    0.111026
   151  H    0.081323
   152  N   -0.011592
   153  C   -0.330359
   154  C    0.597009
   155  O   -0.582743
   156  C    0.332810
   157  C   -0.472134
   158  C    0.908091
   159  O   -0.720880
   160  O   -0.868942
   161  H    0.115275
   162  H    0.118099
   163  H   -0.010181
   164  H   -0.162976
   165  H    0.074421
   166  H    0.114066
   167  N   -0.121719
   168  C   -0.220043
   169  H    0.093709
   170  H    0.075797
   171  H    0.086620
   172  H    0.145606
   173  Ca   1.620590
   174  O   -0.894254
   175  H    0.444710
   176  H    0.397350
 Sum of ESP charges =   0.00000

 Normal termination of Gaussian 16 at Sat Sep 14 23:26:56 2019.
