 Gaussian 16, Revision A.03,
 Gaussian 16:  ES64L-G16RevA.03 25-Dec-2016

 ----------------------------------------------------------------------
 #b3lyp/svp scf=(tight,noincore) Test #IOP(5/87=12) Density=Current Pop
 =(MK,readradii) iop(6/33=2) iop(6/42=6)
 ----------------------------------------------------------------------

 ------------------
 holoCaM_loop3_61.0
 ------------------
 Symbolic Z-matrix:
 Charge =  0 Multiplicity = 1

                         Standard orientation:
 ---------------------------------------------------------------------
 Center     Atomic      Atomic             Coordinates (Angstroms)
 Number     Number       Type             X           Y           Z
 ---------------------------------------------------------------------
      1          6           0        3.035257    2.488279    4.803729
      2          6           0        2.304310    2.411064    3.469729
      3          8           0        2.904804    2.435376    2.403607
      4          1           0        3.636648    1.588975    4.940314
      5          1           0        3.684262    3.363650    4.812964
      6          1           0        2.309051    2.565546    5.612816
      7          7           0        0.975947    2.265649    3.489888
      8          6           0        0.124920    2.366032    2.320326
      9          6           0        0.159724    3.765490    1.741615
     10          8           0       -0.154244    4.797295    2.325741
     11          6           0       -1.236638    1.850975    2.789664
     12          6           0       -2.224690    1.673626    1.654587
     13          8           0       -3.269415    1.003726    1.848713
     14          8           0       -1.971035    2.026311    0.480418
     15          1           0        0.530517    2.109361    4.381833
     16          1           0        0.399819    1.566511    1.616126
     17          1           0       -1.731570    2.566534    3.439677
     18          1           0       -1.151258    0.915568    3.335031
     19          7           0        0.631563    3.816916    0.484148
     20          6           0        0.801810    4.970471   -0.359491
     21          6           0       -0.278639    5.292379   -1.387306
     22          8           0       -0.119271    6.322529   -2.047226
     23          6           0        2.157629    4.906871   -1.075249
     24          6           0        3.333604    4.718594   -0.125651
     25          6           0        3.400421    5.709927    1.030807
     26          6           0        4.723039    5.740053    1.784713
     27          7           0        4.828071    6.843810    2.763124
     28          1           0        0.971650    2.932584    0.130174
     29          1           0        0.808248    5.911291    0.179227
     30          1           0        2.247023    5.813310   -1.672725
     31          1           0        2.202449    4.202241   -1.914944
     32          1           0        4.281219    4.625567   -0.658915
     33          1           0        3.219323    3.750015    0.348054
     34          1           0        2.593857    5.502318    1.730272
     35          1           0        3.243114    6.702488    0.607750
     36          1           0        5.527143    5.882656    1.059399
     37          1           0        4.883174    4.801293    2.315925
     38          1           0        4.354455    7.681917    2.472325
     39          1           0        4.306456    6.562444    3.586138
     40          1           0        5.815240    6.878291    2.938364
     41          7           0       -1.378037    4.538783   -1.391436
     42          6           0       -2.493943    4.877920   -2.250295
     43          6           0       -3.832665    4.584318   -1.585674
     44          8           0       -4.883594    4.657419   -2.214962
     45          6           0       -2.358474    4.233581   -3.621636
     46          6           0       -2.298235    2.713622   -3.522662
     47          8           0       -1.828043    2.119806   -4.522913
     48          8           0       -2.598112    2.129921   -2.467215
     49          1           0       -1.404725    3.720713   -0.801649
     50          1           0       -2.512398    5.954059   -2.440254
     51          1           0       -1.438598    4.547315   -4.115194
     52          1           0       -3.090057    4.590501   -4.341285
     53          7           0       -3.810861    4.336154   -0.267288
     54          6           0       -4.988266    4.253131    0.556498
     55          6           0       -5.931970    3.112278    0.180627
     56          8           0       -7.005828    3.135091    0.763215
     57          1           0       -2.908572    4.293106    0.184510
     58          1           0       -5.505154    5.211826    0.531380
     59          1           0       -4.646674    4.022875    1.567289
     60          7           0       -5.474393    2.169513   -0.641088
     61          6           0       -6.372244    1.165221   -1.167454
     62          6           0       -6.695215    0.016505   -0.213126
     63          8           0       -7.510572   -0.839795   -0.550832
     64          6           0       -5.731387    0.649749   -2.450611
     65          6           0       -4.684752   -0.428745   -2.213324
     66          7           0       -4.503575   -1.423525   -3.090700
     67          8           0       -3.971623   -0.527085   -1.221469
     68          1           0       -4.524791    2.204342   -0.989288
     69          1           0       -7.310007    1.675003   -1.408540
     70          1           0       -5.303308    1.439781   -3.054514
     71          1           0       -6.534009    0.228881   -3.064426
     72          1           0       -5.033558   -1.352426   -3.942500
     73          1           0       -3.686752   -2.031102   -3.126038
     74          7           0       -6.082191    0.060357    0.972276
     75          6           0       -6.267135   -0.971453    1.963772
     76          6           0       -5.289226   -2.129051    2.097044
     77          8           0       -5.632125   -3.080026    2.807442
     78          1           0       -5.380434    0.778352    1.096048
     79          1           0       -7.230522   -1.424619    1.709556
     80          1           0       -6.263453   -0.463405    2.929574
     81          7           0       -4.125219   -2.020461    1.457829
     82          6           0       -3.080728   -3.034381    1.548400
     83          6           0       -1.702978   -2.409636    1.548324
     84          8           0       -1.506564   -1.355054    0.951099
     85          6           0       -3.154796   -3.996122    0.360769
     86          6           0       -4.466560   -4.712142    0.201112
     87          6           0       -5.211241   -4.549524   -0.972602
     88          6           0       -4.853881   -5.671248    1.145092
     89          6           0       -6.325331   -5.360228   -1.245661
     90          6           0       -6.011046   -6.423927    0.927509
     91          6           0       -6.757612   -6.261956   -0.256004
     92          8           0       -7.853036   -7.044354   -0.493704
     93          1           0       -4.021514   -1.183836    0.903029
     94          1           0       -3.122754   -3.507892    2.526572
     95          1           0       -2.257195   -4.616318    0.422980
     96          1           0       -3.026774   -3.340571   -0.503096
     97          1           0       -4.977057   -3.631047   -1.486468
     98          1           0       -4.280941   -5.886855    2.038990
     99          1           0       -6.899679   -5.102458   -2.121663
    100          1           0       -6.454200   -7.113474    1.639927
    101          1           0       -8.002998   -7.621762    0.256971
    102          7           0       -0.689097   -3.021609    2.159089
    103          6           0        0.670351   -2.542037    2.019048
    104          6           0        1.380847   -3.537091    1.111325
    105          8           0        1.479871   -4.701413    1.465090
    106          6           0        1.301856   -2.374849    3.407050
    107          6           0        0.486700   -1.484480    4.352018
    108          6           0        2.777608   -2.000974    3.312848
    109          6           0        0.854650   -1.697418    5.815804
    110          1           0       -0.828719   -3.924543    2.582310
    111          1           0        0.714874   -1.589137    1.498566
    112          1           0        1.347173   -3.399119    3.761897
    113          1           0       -0.551520   -1.785247    4.224587
    114          1           0        0.756416   -0.447762    4.160265
    115          1           0        3.193709   -2.031236    4.316514
    116          1           0        3.325812   -2.663867    2.649112
    117          1           0        2.820435   -1.038092    2.802238
    118          1           0        0.745842   -2.747880    6.069360
    119          1           0        1.875226   -1.415188    6.080512
    120          1           0        0.190568   -1.154011    6.489305
    121          7           0        1.746323   -3.098394   -0.100233
    122          6           0        2.553495   -3.831100   -1.054075
    123          6           0        4.036213   -3.822116   -0.707134
    124          8           0        4.499210   -3.126674    0.188574
    125          6           0        2.280348   -3.218333   -2.429832
    126          8           0        2.615162   -1.846728   -2.533759
    127          1           0        1.674774   -2.096757   -0.213833
    128          1           0        2.302274   -4.890869   -1.119472
    129          1           0        1.211084   -3.208951   -2.653407
    130          1           0        2.821510   -3.776070   -3.190998
    131          1           0        1.984335   -1.450777   -1.918146
    132          7           0        4.851758   -4.553096   -1.468812
    133          6           0        6.271858   -4.749058   -1.269777
    134          6           0        7.105349   -3.569019   -1.732486
    135          8           0        8.162091   -3.318168   -1.156318
    136          6           0        6.711254   -6.053633   -1.911038
    137          1           0        4.469589   -4.993161   -2.294880
    138          1           0        6.372721   -4.761671   -0.176036
    139          1           0        7.806264   -6.115658   -1.913440
    140          1           0        6.132641   -6.846726   -1.451462
    141          1           0        6.499444   -5.998027   -2.986279
    142          7           0        6.659031   -2.747496   -2.680537
    143          6           0        7.304549   -1.469824   -2.929859
    144          6           0        6.945763   -0.426684   -1.878654
    145          8           0        7.782622    0.438529   -1.627309
    146          6           0        6.833131   -0.997326   -4.309246
    147          1           0        5.767820   -2.946725   -3.108265
    148          1           0        8.389848   -1.567264   -2.989283
    149          1           0        7.157831   -1.680828   -5.081707
    150          1           0        5.750834   -1.079243   -4.452855
    151          1           0        7.312017   -0.040780   -4.535933
    152          7           0        5.782143   -0.481546   -1.243060
    153          6           0        5.347560    0.490246   -0.264409
    154          6           0        6.086360    0.185189    1.032092
    155          8           0        6.642441    1.014188    1.737806
    156          6           0        3.840082    0.413806   -0.040879
    157          6           0        3.054081    0.924928   -1.239861
    158          6           0        1.555549    0.808913   -0.995029
    159          8           0        1.092292   -0.354353   -0.961792
    160          8           0        0.699954    1.713421   -1.114705
    161          1           0        5.198118   -1.282469   -1.424818
    162          1           0        5.625862    1.425400   -0.747042
    163          1           0        3.686913    0.969072    0.890743
    164          1           0        3.618342   -0.615858    0.233024
    165          1           0        3.405332    0.499300   -2.187524
    166          1           0        3.349437    1.960647   -1.416070
    167          7           0        6.281048   -1.102866    1.355219
    168          6           0        7.116660   -1.508600    2.466269
    169          1           0        7.754481   -2.336939    2.157466
    170          1           0        7.737851   -0.669812    2.780224
    171          1           0        6.487279   -1.826005    3.298101
    172          1           0        5.721846   -1.838992    0.950111
    173         20           0       -1.463305    0.145615   -1.217639
    174          8           0       -0.322993    0.205873   -3.708390
    175          1           0        0.361643    0.205860   -4.380903
    176          1           0       -0.945963    0.858258   -4.009226
 ---------------------------------------------------------------------

 SCF Done:  E(RB3LYP) =  -5333.63267107     A.U. after   15 cycles

 The electronic state is 1-A.
 Alpha  occ. eigenvalues -- -145.38633 -19.15109 -19.13989 -19.13871 -19.12996
 Alpha  occ. eigenvalues --  -19.12805 -19.11866 -19.11035 -19.11011 -19.10446
 Alpha  occ. eigenvalues --  -19.10213 -19.09666 -19.09064 -19.08115 -19.07269
 Alpha  occ. eigenvalues --  -19.06803 -19.06362 -19.06266 -19.06223 -19.05710
 Alpha  occ. eigenvalues --  -19.05546 -19.05506 -19.03983 -19.03553 -15.44318
 Alpha  occ. eigenvalues --  -14.57305 -14.39416 -14.38218 -14.37558 -14.37226
 Alpha  occ. eigenvalues --  -14.37060 -14.36843 -14.34558 -14.32807 -14.32771
 Alpha  occ. eigenvalues --  -14.32682 -14.31973 -14.31568 -14.31448 -14.31328
 Alpha  occ. eigenvalues --  -12.57943 -12.57906 -12.57878 -10.32892 -10.32222
 Alpha  occ. eigenvalues --  -10.31681 -10.30966 -10.30607 -10.29425 -10.29324
 Alpha  occ. eigenvalues --  -10.29098 -10.27591 -10.27013 -10.26507 -10.26407
 Alpha  occ. eigenvalues --  -10.25871 -10.25840 -10.25738 -10.25108 -10.24917
 Alpha  occ. eigenvalues --  -10.24757 -10.24547 -10.24539 -10.24239 -10.24161
 Alpha  occ. eigenvalues --  -10.23973 -10.23951 -10.23808 -10.23724 -10.23441
 Alpha  occ. eigenvalues --  -10.22371 -10.22303 -10.22023 -10.21948 -10.21316
 Alpha  occ. eigenvalues --  -10.20981 -10.20197 -10.19871 -10.19830 -10.19786
 Alpha  occ. eigenvalues --  -10.19739 -10.19581 -10.19347 -10.19270 -10.19113
 Alpha  occ. eigenvalues --  -10.19022 -10.18883 -10.18853 -10.18677 -10.18221
 Alpha  occ. eigenvalues --  -10.18179 -10.18135 -10.17896 -10.17856 -10.17851
 Alpha  occ. eigenvalues --  -10.17538 -10.14718  -1.81146  -1.12698  -1.08971
 Alpha  occ. eigenvalues --   -1.08575  -1.08525  -1.07374  -1.06361  -1.06273
 Alpha  occ. eigenvalues --   -1.05701  -1.05127  -1.04264  -1.03859  -1.03769
 Alpha  occ. eigenvalues --   -1.02834  -1.01866  -1.01689  -1.00452  -1.00198
 Alpha  occ. eigenvalues --   -0.99965  -0.99753  -0.99613  -0.99101  -0.98699
 Alpha  occ. eigenvalues --   -0.98148  -0.97080  -0.96376  -0.94828  -0.94581
 Alpha  occ. eigenvalues --   -0.93846  -0.93831  -0.93454  -0.91948  -0.91731
 Alpha  occ. eigenvalues --   -0.90923  -0.90213  -0.90132  -0.89826  -0.89617
 Alpha  occ. eigenvalues --   -0.88659  -0.88003  -0.87976  -0.87419  -0.86238
 Alpha  occ. eigenvalues --   -0.83795  -0.82803  -0.81880  -0.80107  -0.79802
 Alpha  occ. eigenvalues --   -0.78896  -0.78873  -0.78317  -0.77556  -0.77342
 Alpha  occ. eigenvalues --   -0.75840  -0.75342  -0.74593  -0.74495  -0.73153
 Alpha  occ. eigenvalues --   -0.73041  -0.72720  -0.72134  -0.71148  -0.70780
 Alpha  occ. eigenvalues --   -0.70309  -0.69269  -0.69010  -0.67702  -0.67663
 Alpha  occ. eigenvalues --   -0.67085  -0.66147  -0.65849  -0.65674  -0.64939
 Alpha  occ. eigenvalues --   -0.64658  -0.63181  -0.62874  -0.62157  -0.61892
 Alpha  occ. eigenvalues --   -0.61824  -0.61208  -0.61026  -0.60634  -0.60574
 Alpha  occ. eigenvalues --   -0.60312  -0.58970  -0.58823  -0.58170  -0.57874
 Alpha  occ. eigenvalues --   -0.57822  -0.57576  -0.56879  -0.56618  -0.56359
 Alpha  occ. eigenvalues --   -0.56261  -0.56057  -0.55734  -0.55053  -0.54950
 Alpha  occ. eigenvalues --   -0.54560  -0.54338  -0.54318  -0.53955  -0.53438
 Alpha  occ. eigenvalues --   -0.53413  -0.52754  -0.52384  -0.52231  -0.51825
 Alpha  occ. eigenvalues --   -0.51546  -0.51500  -0.51177  -0.50679  -0.50353
 Alpha  occ. eigenvalues --   -0.50246  -0.49761  -0.49626  -0.49214  -0.49069
 Alpha  occ. eigenvalues --   -0.48897  -0.48877  -0.48685  -0.48389  -0.48205
 Alpha  occ. eigenvalues --   -0.48076  -0.47926  -0.47426  -0.47284  -0.47035
 Alpha  occ. eigenvalues --   -0.46740  -0.46626  -0.46532  -0.46199  -0.45958
 Alpha  occ. eigenvalues --   -0.45891  -0.45440  -0.45152  -0.45104  -0.44648
 Alpha  occ. eigenvalues --   -0.44579  -0.44496  -0.44364  -0.44267  -0.43873
 Alpha  occ. eigenvalues --   -0.43777  -0.43666  -0.43498  -0.43432  -0.43287
 Alpha  occ. eigenvalues --   -0.43260  -0.43231  -0.43081  -0.43055  -0.42952
 Alpha  occ. eigenvalues --   -0.42767  -0.42533  -0.42329  -0.42114  -0.41800
 Alpha  occ. eigenvalues --   -0.41680  -0.41638  -0.41450  -0.41351  -0.41166
 Alpha  occ. eigenvalues --   -0.41034  -0.41018  -0.40770  -0.40708  -0.40568
 Alpha  occ. eigenvalues --   -0.40360  -0.40150  -0.40053  -0.39976  -0.39787
 Alpha  occ. eigenvalues --   -0.39763  -0.39635  -0.39477  -0.39351  -0.39163
 Alpha  occ. eigenvalues --   -0.39048  -0.39011  -0.38909  -0.38831  -0.38691
 Alpha  occ. eigenvalues --   -0.38406  -0.38028  -0.37928  -0.37882  -0.37718
 Alpha  occ. eigenvalues --   -0.37489  -0.37412  -0.37300  -0.37214  -0.36855
 Alpha  occ. eigenvalues --   -0.36591  -0.36533  -0.36479  -0.36399  -0.36158
 Alpha  occ. eigenvalues --   -0.36007  -0.35975  -0.35783  -0.35473  -0.35347
 Alpha  occ. eigenvalues --   -0.35223  -0.35143  -0.34977  -0.34624  -0.34255
 Alpha  occ. eigenvalues --   -0.34188  -0.34076  -0.33887  -0.33718  -0.33463
 Alpha  occ. eigenvalues --   -0.33166  -0.32949  -0.32833  -0.32666  -0.31940
 Alpha  occ. eigenvalues --   -0.31647  -0.31524  -0.31369  -0.30311  -0.30211
 Alpha  occ. eigenvalues --   -0.29992  -0.29526  -0.29305  -0.28933  -0.28876
 Alpha  occ. eigenvalues --   -0.28775  -0.28518  -0.28467  -0.27951  -0.27840
 Alpha  occ. eigenvalues --   -0.27659  -0.26419  -0.26300  -0.26233  -0.25726
 Alpha  occ. eigenvalues --   -0.25653  -0.25414  -0.24779  -0.24671  -0.24629
 Alpha  occ. eigenvalues --   -0.24329  -0.23606  -0.23529  -0.23499  -0.23374
 Alpha  occ. eigenvalues --   -0.23243  -0.23156  -0.22711  -0.22190  -0.22078
 Alpha  occ. eigenvalues --   -0.21776  -0.21621  -0.21099  -0.20846  -0.20643
 Alpha  occ. eigenvalues --   -0.20492  -0.20225  -0.19237
 Alpha virt. eigenvalues --   -0.09634  -0.04288  -0.02946  -0.02722  -0.02068
 Alpha virt. eigenvalues --   -0.01304  -0.00765  -0.00578  -0.00398  -0.00185
 Alpha virt. eigenvalues --    0.00542   0.00842   0.00922   0.01162   0.01301

 Mulliken charges:
               1
     1  C    0.083097
     2  C    0.025478
     3  O   -0.287802
     4  H    0.061901
     5  H   -0.003633
     6  H    0.005491
     7  N   -0.119759
     8  C    0.091413
     9  C    0.092867
    10  O   -0.297683
    11  C    0.042655
    12  C    0.096766
    13  O   -0.366958
    14  O   -0.454283
    15  H    0.125810
    16  H    0.016211
    17  H    0.015357
    18  H    0.017034
    19  N   -0.141859
    20  C    0.148835
    21  C    0.060244
    22  O   -0.307919
    23  C    0.005379
    24  C    0.041797
    25  C   -0.051462
    26  C   -0.010804
    27  N    0.089381
    28  H    0.156936
    29  H    0.002866
    30  H    0.005716
    31  H    0.006761
    32  H   -0.000247
    33  H    0.035962
    34  H    0.049017
    35  H    0.007122
    36  H    0.063541
    37  H    0.095541
    38  H    0.187620
    39  H    0.193366
    40  H    0.201450
    41  N   -0.158612
    42  C    0.142188
    43  C    0.038271
    44  O   -0.283920
    45  C    0.085197
    46  C    0.145997
    47  O   -0.399058
    48  O   -0.452281
    49  H    0.179038
    50  H    0.019362
    51  H    0.006210
    52  H    0.017956
    53  N   -0.162549
    54  C    0.234061
    55  C    0.024065
    56  O   -0.286388
    57  H    0.117561
    58  H    0.024312
    59  H    0.019896
    60  N   -0.168021
    61  C    0.138447
    62  C    0.047382
    63  O   -0.287257
    64  C    0.075021
    65  C    0.070390
    66  N   -0.032574
    67  O   -0.373867
    68  H    0.172367
    69  H    0.033584
    70  H    0.077060
    71  H    0.020530
    72  H    0.123705
    73  H    0.134950
    74  N   -0.156552
    75  C    0.218758
    76  C    0.035019
    77  O   -0.309753
    78  H    0.155608
    79  H    0.041836
    80  H    0.031026
    81  N   -0.138645
    82  C    0.115731
    83  C    0.112214
    84  O   -0.365541
    85  C    0.167331
    86  C    0.008835
    87  C   -0.009602
    88  C    0.039027
    89  C   -0.009448
    90  C   -0.031383
    91  C    0.158198
    92  O   -0.195117
    93  H    0.166111
    94  H    0.002634
    95  H   -0.004385
    96  H   -0.061441
    97  H   -0.041500
    98  H   -0.037345
    99  H   -0.022886
   100  H   -0.046900
   101  H    0.168874
   102  N   -0.118642
   103  C    0.142655
   104  C    0.052461
   105  O   -0.277562
   106  C   -0.114600
   107  C    0.061342
   108  C    0.043848
   109  C    0.010188
   110  H    0.132839
   111  H    0.009248
   112  H   -0.016783
   113  H    0.012628
   114  H   -0.019286
   115  H    0.010780
   116  H    0.028471
   117  H    0.007404
   118  H    0.000817
   119  H    0.004451
   120  H    0.007015
   121  N   -0.141506
   122  C    0.086720
   123  C    0.105403
   124  O   -0.272681
   125  C    0.231826
   126  O   -0.345126
   127  H    0.137093
   128  H    0.024137
   129  H    0.013977
   130  H   -0.016575
   131  H    0.182050
   132  N   -0.148053
   133  C    0.086083
   134  C    0.051995
   135  O   -0.268868
   136  C    0.059384
   137  H    0.112375
   138  H    0.037123
   139  H    0.048931
   140  H    0.039419
   141  H   -0.001761
   142  N   -0.141696
   143  C    0.116065
   144  C    0.066990
   145  O   -0.280320
   146  C    0.032583
   147  H    0.103065
   148  H    0.028851
   149  H    0.003432
   150  H    0.009541
   151  H    0.039056
   152  N   -0.148413
   153  C    0.132872
   154  C    0.089122
   155  O   -0.289348
   156  C   -0.050567
   157  C    0.098051
   158  C    0.226358
   159  O   -0.481488
   160  O   -0.389499
   161  H    0.107550
   162  H   -0.013481
   163  H    0.048887
   164  H   -0.012636
   165  H    0.025840
   166  H   -0.029476
   167  N   -0.184236
   168  C    0.127193
   169  H    0.022219
   170  H    0.033996
   171  H    0.001671
   172  H    0.122885
   173  Ca   1.292577
   174  O   -0.338203
   175  H    0.173608
   176  H    0.140799
 Sum of Mulliken charges =  -0.00000

 Dipole moment (field-independent basis, Debye):
    X=             23.1201    Y=              4.1641    Z=              7.0933  Tot=             24.5396
 Quadrupole moment (field-independent basis, Debye-Ang):
   XX=           -677.0162   YY=           -429.0584   ZZ=           -508.5163
   XY=            122.5633   XZ=             39.8035   YZ=            112.5137

 ESP charges:
               1
     1  C   -0.514251
     2  C    0.806379
     3  O   -0.593479
     4  H    0.157189
     5  H    0.135359
     6  H    0.109605
     7  N   -0.642335
     8  C    0.113464
     9  C    0.472878
    10  O   -0.567334
    11  C   -0.301362
    12  C    0.794669
    13  O   -0.755031
    14  O   -0.714128
    15  H    0.339040
    16  H    0.073793
    17  H    0.094833
    18  H    0.064009
    19  N   -0.028302
    20  C   -0.424397
    21  C    0.854433
    22  O   -0.601925
    23  C    0.164336
    24  C   -0.257911
    25  C   -0.023067
    26  C    0.194123
    27  N   -0.458744
    28  H    0.035550
    29  H    0.124837
    30  H    0.015946
    31  H    0.015743
    32  H    0.065695
    33  H    0.107097
    34  H    0.035049
    35  H    0.034418
    36  H    0.049123
    37  H    0.027075
    38  H    0.341402
    39  H    0.341535
    40  H    0.355855
    41  N   -0.837863
    42  C    0.018754
    43  C    0.467704
    44  O   -0.550634
    45  C   -0.200653
    46  C    0.817779
    47  O   -0.724901
    48  O   -0.851370
    49  H    0.590255
    50  H    0.124552
    51  H    0.090690
    52  H    0.071882
    53  N   -0.233746
    54  C   -0.258241
    55  C    0.598311
    56  O   -0.575264
    57  H    0.185698
    58  H    0.127834
    59  H    0.113645
    60  N   -0.374443
    61  C   -0.244178
    62  C    0.457713
    63  O   -0.523682
    64  C   -0.029735
    65  C    0.544725
    66  N   -0.754000
    67  O   -0.570064
    68  H    0.490748
    69  H    0.170601
    70  H    0.065974
    71  H    0.064259
    72  H    0.350119
    73  H    0.360338
    74  N   -0.057230
    75  C   -0.513501
    76  C    0.791254
    77  O   -0.575876
    78  H    0.210040
    79  H    0.180846
    80  H    0.159052
    81  N   -0.777652
    82  C    0.360736
    83  C    0.600994
    84  O   -0.675143
    85  C   -0.411460
    86  C    0.210971
    87  C   -0.244879
    88  C   -0.115322
    89  C   -0.287378
    90  C   -0.363703
    91  C    0.445399
    92  O   -0.552923
    93  H    0.558353
    94  H   -0.001156
    95  H    0.093564
    96  H    0.072589
    97  H    0.185874
    98  H    0.135648
    99  H    0.176057
   100  H    0.157213
   101  H    0.396924
   102  N   -0.542164
   103  C   -0.074516
   104  C    0.621797
   105  O   -0.559993
   106  C    0.353076
   107  C   -0.008255
   108  C   -0.315397
   109  C   -0.265053
   110  H    0.320247
   111  H    0.115128
   112  H   -0.056346
   113  H    0.037320
   114  H    0.045492
   115  H    0.092887
   116  H    0.081085
   117  H   -0.006978
   118  H    0.058689
   119  H    0.058656
   120  H    0.065768
   121  N   -0.292912
   122  C   -0.155355
   123  C    0.498067
   124  O   -0.417947
   125  C    0.086321
   126  O   -0.545284
   127  H    0.100408
   128  H    0.109080
   129  H    0.043742
   130  H    0.051102
   131  H    0.465928
   132  N   -0.328384
   133  C    0.061116
   134  C    0.622853
   135  O   -0.562350
   136  C   -0.391391
   137  H    0.237677
   138  H    0.094727
   139  H    0.144606
   140  H    0.128442
   141  H    0.094248
   142  N   -0.603960
   143  C    0.304236
   144  C    0.236324
   145  O   -0.497108
   146  C   -0.428399
   147  H    0.337913
   148  H    0.087435
   149  H    0.101786
   150  H    0.114336
   151  H    0.134481
   152  N    0.178295
   153  C   -0.438117
   154  C    0.576618
   155  O   -0.576520
   156  C    0.053233
   157  C    0.112071
   158  C    0.522045
   159  O   -0.648877
   160  O   -0.576265
   161  H   -0.045811
   162  H    0.155773
   163  H    0.063898
   164  H    0.002183
   165  H   -0.033341
   166  H    0.019887
   167  N   -0.123720
   168  C   -0.191769
   169  H    0.074509
   170  H    0.114094
   171  H    0.049158
   172  H    0.152491
   173  Ca   1.585706
   174  O   -0.958028
   175  H    0.442692
   176  H    0.453353
 Sum of ESP charges =  -0.00000

 Normal termination of Gaussian 16 at Sat Sep 14 22:36:47 2019.
