 Gaussian 16, Revision A.03,
 Gaussian 16:  ES64L-G16RevA.03 25-Dec-2016

 ----------------------------------------------------------------------
 #b3lyp/svp scf=(tight,noincore) Test #IOP(5/87=12) Density=Current Pop
 =(MK,readradii) iop(6/33=2) iop(6/42=6)
 ----------------------------------------------------------------------

 ------------------
 holoCaM_loop3_82.0
 ------------------
 Symbolic Z-matrix:
 Charge =  0 Multiplicity = 1

                         Standard orientation:
 ---------------------------------------------------------------------
 Center     Atomic      Atomic             Coordinates (Angstroms)
 Number     Number       Type             X           Y           Z
 ---------------------------------------------------------------------
      1          6           0        1.531090    2.996863    6.082857
      2          6           0        1.211650    2.448714    4.705544
      3          8           0        2.158769    2.239711    3.952495
      4          1           0        2.045514    3.952991    5.982409
      5          1           0        0.605545    3.139914    6.641679
      6          1           0        2.172558    2.294051    6.614969
      7          7           0       -0.063941    2.202006    4.396833
      8          6           0       -0.514222    1.989027    3.038014
      9          6           0       -0.434511    3.273106    2.218571
     10          8           0       -1.076736    4.237197    2.615276
     11          6           0       -1.933522    1.440804    3.105384
     12          6           0       -2.593935    1.067542    1.780533
     13          8           0       -2.131037    1.388544    0.665372
     14          8           0       -3.744376    0.593303    1.949595
     15          1           0       -0.774129    2.336440    5.100865
     16          1           0        0.029515    1.226495    2.476769
     17          1           0       -2.644709    2.035870    3.689345
     18          1           0       -1.877561    0.531342    3.702666
     19          7           0        0.372145    3.326791    1.156063
     20          6           0        0.803216    4.585611    0.565767
     21          6           0       -0.280508    5.374855   -0.138531
     22          8           0       -0.390688    6.592371    0.035006
     23          6           0        2.021791    4.354557   -0.316611
     24          6           0        2.672924    5.706863   -0.611724
     25          6           0        4.076166    5.581425   -1.198732
     26          6           0        4.125977    5.131018   -2.659708
     27          7           0        5.476747    5.436352   -3.151941
     28          1           0        0.989550    2.559970    0.912551
     29          1           0        1.156933    5.159472    1.416806
     30          1           0        1.832790    3.875596   -1.278835
     31          1           0        2.748197    3.737402    0.202189
     32          1           0        2.747822    6.340626    0.263225
     33          1           0        2.050975    6.162732   -1.377860
     34          1           0        4.600869    4.925199   -0.495842
     35          1           0        4.560897    6.550029   -1.151380
     36          1           0        3.351453    5.511230   -3.334209
     37          1           0        4.058694    4.044915   -2.701573
     38          1           0        5.567620    5.089550   -4.096701
     39          1           0        5.576493    6.435247   -3.073460
     40          1           0        6.123198    4.955489   -2.543523
     41          7           0       -1.086487    4.751063   -1.002465
     42          6           0       -2.325940    5.264860   -1.552889
     43          6           0       -3.534945    5.135808   -0.635418
     44          8           0       -4.452169    5.947949   -0.722744
     45          6           0       -2.593244    4.712408   -2.942977
     46          6           0       -2.692889    3.195331   -3.081352
     47          8           0       -2.423862    2.489322   -2.090102
     48          8           0       -2.944654    2.700526   -4.200450
     49          1           0       -0.907899    3.763033   -0.974120
     50          1           0       -2.221161    6.346565   -1.614825
     51          1           0       -1.756415    5.045029   -3.553617
     52          1           0       -3.406886    5.239715   -3.450947
     53          7           0       -3.573868    4.215719    0.337476
     54          6           0       -4.706145    3.981575    1.204266
     55          6           0       -5.526849    2.772082    0.782756
     56          8           0       -6.555516    2.563495    1.421924
     57          1           0       -2.963153    3.419587    0.193945
     58          1           0       -5.352343    4.865632    1.228173
     59          1           0       -4.240038    3.801440    2.180840
     60          7           0       -5.248965    1.999758   -0.265241
     61          6           0       -6.194473    1.155911   -0.966978
     62          6           0       -6.609255   -0.123313   -0.248548
     63          8           0       -7.473309   -0.882073   -0.677842
     64          6           0       -5.775396    0.958442   -2.415108
     65          6           0       -4.779856   -0.190686   -2.544362
     66          7           0       -4.873234   -0.924174   -3.656825
     67          8           0       -3.864553   -0.376372   -1.744399
     68          1           0       -4.371756    2.126756   -0.751426
     69          1           0       -7.115040    1.732748   -0.863463
     70          1           0       -5.272510    1.854569   -2.785869
     71          1           0       -6.672923    0.780521   -3.004420
     72          1           0       -5.607720   -0.699504   -4.311236
     73          1           0       -4.241001   -1.655385   -3.937914
     74          7           0       -6.064651   -0.415636    0.937434
     75          6           0       -6.351891   -1.579643    1.746187
     76          6           0       -5.302068   -2.669143    1.607041
     77          8           0       -5.586612   -3.817875    1.936357
     78          1           0       -5.327343    0.206057    1.240048
     79          1           0       -7.238675   -2.100403    1.363143
     80          1           0       -6.487017   -1.247957    2.781573
     81          7           0       -4.185911   -2.344993    0.941594
     82          6           0       -3.169404   -3.348636    0.692365
     83          6           0       -1.796831   -2.674183    0.704885
     84          8           0       -1.556973   -1.602885    0.148837
     85          6           0       -3.469670   -3.898309   -0.700115
     86          6           0       -4.840418   -4.524748   -0.807459
     87          6           0       -5.874315   -3.717053   -1.298973
     88          6           0       -4.961410   -5.848950   -0.385616
     89          6           0       -7.165047   -4.268390   -1.292927
     90          6           0       -6.259242   -6.369721   -0.497108
     91          6           0       -7.370609   -5.600077   -0.884939
     92          8           0       -8.578974   -6.231060   -0.977748
     93          1           0       -4.020682   -1.380976    0.704171
     94          1           0       -3.195544   -4.185736    1.376382
     95          1           0       -2.726063   -4.668691   -0.889218
     96          1           0       -3.427619   -3.120730   -1.463531
     97          1           0       -5.705094   -2.707090   -1.621679
     98          1           0       -4.085712   -6.382449   -0.029339
     99          1           0       -8.034784   -3.693528   -1.599671
    100          1           0       -6.377376   -7.387852   -0.135372
    101          1           0       -8.503554   -7.183419   -0.865833
    102          7           0       -0.865271   -3.378858    1.346779
    103          6           0        0.554170   -3.071426    1.415866
    104          6           0        1.405430   -3.903390    0.465766
    105          8           0        1.130625   -5.090615    0.323358
    106          6           0        0.960261   -3.071554    2.885285
    107          6           0        0.446775   -1.852781    3.643325
    108          6           0        2.483327   -3.212859    3.011783
    109          6           0        1.184861   -1.250757    4.832399
    110          1           0       -1.169858   -4.273225    1.704319
    111          1           0        0.593915   -2.082899    0.971192
    112          1           0        0.592292   -3.923312    3.455115
    113          1           0       -0.619986   -2.000696    3.832640
    114          1           0        0.442916   -1.036819    2.930099
    115          1           0        2.807886   -4.198431    2.703547
    116          1           0        2.956121   -2.450270    2.398820
    117          1           0        2.810776   -3.048204    4.042155
    118          1           0        2.215655   -0.944151    4.654195
    119          1           0        0.638527   -0.360283    5.159927
    120          1           0        1.020978   -1.939710    5.663655
    121          7           0        2.297497   -3.210288   -0.236534
    122          6           0        3.402672   -3.640892   -1.083982
    123          6           0        4.746089   -3.614629   -0.377271
    124          8           0        5.027382   -2.840814    0.533544
    125          6           0        3.372809   -2.989408   -2.466291
    126          8           0        4.264222   -1.917663   -2.719559
    127          1           0        2.231644   -2.208648   -0.130321
    128          1           0        3.254225   -4.697170   -1.310570
    129          1           0        2.335732   -2.723804   -2.623848
    130          1           0        3.609506   -3.721364   -3.234155
    131          1           0        3.909486   -1.367312   -3.421111
    132          7           0        5.699946   -4.367612   -0.935280
    133          6           0        7.079665   -4.297017   -0.510202
    134          6           0        7.829122   -3.027678   -0.877071
    135          8           0        8.814716   -2.692561   -0.231780
    136          6           0        7.800693   -5.480667   -1.161041
    137          1           0        5.491859   -4.920844   -1.762525
    138          1           0        7.251879   -4.511574    0.546636
    139          1           0        7.425657   -6.400855   -0.698763
    140          1           0        7.593963   -5.539820   -2.227420
    141          1           0        8.888421   -5.407370   -1.098776
    142          7           0        7.313167   -2.202414   -1.796870
    143          6           0        7.813550   -0.877751   -2.095173
    144          6           0        7.271015    0.212440   -1.169733
    145          8           0        7.981136    1.030957   -0.598193
    146          6           0        7.545708   -0.564951   -3.559692
    147          1           0        6.453544   -2.444612   -2.272464
    148          1           0        8.895117   -0.848332   -1.957166
    149          1           0        7.913981   -1.267740   -4.309201
    150          1           0        6.480069   -0.310501   -3.587404
    151          1           0        8.085947    0.347463   -3.799153
    152          7           0        6.007149    0.014036   -0.789365
    153          6           0        5.384540    0.785820    0.284417
    154          6           0        6.041900    0.441109    1.611614
    155          8           0        6.392747    1.371390    2.330908
    156          6           0        3.893325    0.488982    0.380666
    157          6           0        3.220553    0.977644   -0.901359
    158          6           0        1.748919    0.651313   -1.067496
    159          8           0        1.181153   -0.046106   -0.198734
    160          8           0        1.105241    1.104654   -2.038867
    161          1           0        5.457788   -0.666328   -1.283640
    162          1           0        5.551176    1.858819    0.196061
    163          1           0        3.525171    1.016979    1.259974
    164          1           0        3.728913   -0.562883    0.588388
    165          1           0        3.696509    0.491757   -1.754107
    166          1           0        3.466582    2.027913   -1.065080
    167          7           0        6.322547   -0.829761    1.869926
    168          6           0        7.020111   -1.228503    3.081953
    169          1           0        7.711875   -0.439526    3.378752
    170          1           0        6.296223   -1.395205    3.880019
    171          1           0        7.575638   -2.147106    2.896123
    172          1           0        5.953656   -1.609255    1.323657
    173         20           0       -1.302543    0.359811   -1.454157
    174          8           0       -0.942148   -1.739918   -2.923802
    175          1           0       -0.450868   -2.545973   -3.105239
    176          1           0       -1.149412   -1.375117   -3.782907
 ---------------------------------------------------------------------

 SCF Done:  E(RB3LYP) =  -5333.57572670     A.U. after   20 cycles

 The electronic state is 1-A.
 Alpha  occ. eigenvalues -- -145.36885 -19.21959 -19.21437 -19.15911 -19.13266
 Alpha  occ. eigenvalues --  -19.11720 -19.11691 -19.11440 -19.11372 -19.10802
 Alpha  occ. eigenvalues --  -19.09844 -19.09608 -19.07563 -19.07537 -19.06803
 Alpha  occ. eigenvalues --  -19.06550 -19.06028 -19.05763 -19.04880 -19.04293
 Alpha  occ. eigenvalues --  -19.04178 -19.03592 -19.03264 -19.03162 -15.42700
 Alpha  occ. eigenvalues --  -14.59013 -14.41528 -14.38621 -14.37963 -14.36599
 Alpha  occ. eigenvalues --  -14.36578 -14.36330 -14.34321 -14.34295 -14.32418
 Alpha  occ. eigenvalues --  -14.32251 -14.31172 -14.30345 -14.29599 -14.28331
 Alpha  occ. eigenvalues --  -12.56316 -12.56271 -12.56244 -10.35435 -10.34390
 Alpha  occ. eigenvalues --  -10.31046 -10.30598 -10.30412 -10.30138 -10.29660
 Alpha  occ. eigenvalues --  -10.29435 -10.29169 -10.28833 -10.27811 -10.27226
 Alpha  occ. eigenvalues --  -10.26593 -10.25982 -10.25879 -10.25407 -10.25373
 Alpha  occ. eigenvalues --  -10.24256 -10.23934 -10.23573 -10.23224 -10.23219
 Alpha  occ. eigenvalues --  -10.23091 -10.23085 -10.23007 -10.22917 -10.22900
 Alpha  occ. eigenvalues --  -10.22779 -10.22703 -10.22071 -10.22020 -10.21878
 Alpha  occ. eigenvalues --  -10.20877 -10.20646 -10.20434 -10.19888 -10.19701
 Alpha  occ. eigenvalues --  -10.19641 -10.19314 -10.19041 -10.17802 -10.17632
 Alpha  occ. eigenvalues --  -10.17519 -10.17175 -10.16996 -10.16839 -10.16612
 Alpha  occ. eigenvalues --  -10.16426 -10.16055 -10.15893 -10.15822 -10.15811
 Alpha  occ. eigenvalues --  -10.15774 -10.15607  -1.79700  -1.14658  -1.09808
 Alpha  occ. eigenvalues --   -1.08883  -1.08223  -1.07353  -1.07217  -1.06500
 Alpha  occ. eigenvalues --   -1.05069  -1.04813  -1.04435  -1.03890  -1.03828
 Alpha  occ. eigenvalues --   -1.03784  -1.01811  -1.01381  -1.00340  -0.99761
 Alpha  occ. eigenvalues --   -0.99743  -0.99397  -0.98968  -0.98379  -0.98080
 Alpha  occ. eigenvalues --   -0.97928  -0.97466  -0.96877  -0.95830  -0.94921
 Alpha  occ. eigenvalues --   -0.94154  -0.93480  -0.92727  -0.91512  -0.91353
 Alpha  occ. eigenvalues --   -0.90699  -0.89502  -0.89418  -0.88837  -0.88799
 Alpha  occ. eigenvalues --   -0.88720  -0.88691  -0.87758  -0.86163  -0.85205
 Alpha  occ. eigenvalues --   -0.84423  -0.81990  -0.81954  -0.81852  -0.81186
 Alpha  occ. eigenvalues --   -0.80380  -0.79333  -0.77396  -0.76518  -0.76115
 Alpha  occ. eigenvalues --   -0.75924  -0.75109  -0.74222  -0.74211  -0.73485
 Alpha  occ. eigenvalues --   -0.73324  -0.71996  -0.71368  -0.71192  -0.70773
 Alpha  occ. eigenvalues --   -0.70036  -0.69582  -0.68846  -0.68254  -0.68019
 Alpha  occ. eigenvalues --   -0.67674  -0.67044  -0.65942  -0.65026  -0.64069
 Alpha  occ. eigenvalues --   -0.63810  -0.63489  -0.63198  -0.62863  -0.62582
 Alpha  occ. eigenvalues --   -0.62308  -0.61957  -0.61862  -0.61330  -0.60929
 Alpha  occ. eigenvalues --   -0.60502  -0.60074  -0.59776  -0.59259  -0.59218
 Alpha  occ. eigenvalues --   -0.57907  -0.57503  -0.57466  -0.56459  -0.56105
 Alpha  occ. eigenvalues --   -0.55965  -0.55830  -0.55508  -0.55398  -0.55352
 Alpha  occ. eigenvalues --   -0.55123  -0.54682  -0.54056  -0.53417  -0.53255
 Alpha  occ. eigenvalues --   -0.53243  -0.52979  -0.52850  -0.52715  -0.52488
 Alpha  occ. eigenvalues --   -0.52104  -0.52078  -0.51841  -0.50799  -0.50599
 Alpha  occ. eigenvalues --   -0.50166  -0.49692  -0.49624  -0.49109  -0.49039
 Alpha  occ. eigenvalues --   -0.48944  -0.48790  -0.48438  -0.48328  -0.48241
 Alpha  occ. eigenvalues --   -0.48046  -0.47896  -0.47569  -0.47422  -0.47276
 Alpha  occ. eigenvalues --   -0.47063  -0.46903  -0.46552  -0.46521  -0.45960
 Alpha  occ. eigenvalues --   -0.45843  -0.45637  -0.45164  -0.45041  -0.44788
 Alpha  occ. eigenvalues --   -0.44614  -0.44336  -0.44269  -0.44250  -0.43970
 Alpha  occ. eigenvalues --   -0.43727  -0.43653  -0.43508  -0.43421  -0.43252
 Alpha  occ. eigenvalues --   -0.43089  -0.42892  -0.42879  -0.42534  -0.42484
 Alpha  occ. eigenvalues --   -0.42207  -0.42039  -0.41898  -0.41756  -0.41714
 Alpha  occ. eigenvalues --   -0.41662  -0.41452  -0.41338  -0.41071  -0.40991
 Alpha  occ. eigenvalues --   -0.40850  -0.40561  -0.40356  -0.40278  -0.40158
 Alpha  occ. eigenvalues --   -0.40108  -0.39974  -0.39863  -0.39667  -0.39652
 Alpha  occ. eigenvalues --   -0.39456  -0.39169  -0.39018  -0.38922  -0.38821
 Alpha  occ. eigenvalues --   -0.38775  -0.38597  -0.38501  -0.38451  -0.38296
 Alpha  occ. eigenvalues --   -0.38247  -0.37952  -0.37911  -0.37826  -0.37788
 Alpha  occ. eigenvalues --   -0.37597  -0.37337  -0.37120  -0.37073  -0.36919
 Alpha  occ. eigenvalues --   -0.36868  -0.36722  -0.36415  -0.36242  -0.36156
 Alpha  occ. eigenvalues --   -0.35958  -0.35878  -0.35685  -0.35329  -0.35182
 Alpha  occ. eigenvalues --   -0.34780  -0.34587  -0.34241  -0.34192  -0.34117
 Alpha  occ. eigenvalues --   -0.34029  -0.33908  -0.33386  -0.33234  -0.33190
 Alpha  occ. eigenvalues --   -0.32346  -0.32264  -0.32052  -0.31829  -0.31750
 Alpha  occ. eigenvalues --   -0.31651  -0.31356  -0.30857  -0.30421  -0.30367
 Alpha  occ. eigenvalues --   -0.30045  -0.29869  -0.29169  -0.29097  -0.28485
 Alpha  occ. eigenvalues --   -0.28438  -0.27700  -0.27499  -0.27417  -0.27112
 Alpha  occ. eigenvalues --   -0.27037  -0.26166  -0.26108  -0.25695  -0.25345
 Alpha  occ. eigenvalues --   -0.25256  -0.24683  -0.23639  -0.23294  -0.23237
 Alpha  occ. eigenvalues --   -0.23203  -0.23116  -0.22883  -0.22835  -0.22662
 Alpha  occ. eigenvalues --   -0.22398  -0.22209  -0.22136  -0.22051  -0.21668
 Alpha  occ. eigenvalues --   -0.21493  -0.19901  -0.19685  -0.19425  -0.19221
 Alpha  occ. eigenvalues --   -0.19091  -0.18727  -0.18144
 Alpha virt. eigenvalues --   -0.10914  -0.05606  -0.05116  -0.04727  -0.04347
 Alpha virt. eigenvalues --   -0.02804  -0.01974  -0.01555  -0.00871  -0.00488
 Alpha virt. eigenvalues --    0.00189   0.00768   0.00826   0.01041   0.01357

 Mulliken charges:
               1
     1  C    0.075607
     2  C    0.022451
     3  O   -0.299586
     4  H    0.042229
     5  H   -0.013607
     6  H    0.036463
     7  N   -0.109994
     8  C    0.131551
     9  C    0.078505
    10  O   -0.269267
    11  C    0.006373
    12  C    0.195126
    13  O   -0.477224
    14  O   -0.390556
    15  H    0.125844
    16  H   -0.002452
    17  H    0.025682
    18  H    0.007459
    19  N   -0.119622
    20  C    0.135296
    21  C    0.049816
    22  O   -0.283879
    23  C   -0.046874
    24  C    0.030983
    25  C   -0.051012
    26  C    0.004521
    27  N    0.081393
    28  H    0.140769
    29  H    0.006461
    30  H    0.017426
    31  H    0.028647
    32  H    0.036260
    33  H    0.024798
    34  H    0.055540
    35  H    0.007111
    36  H    0.090516
    37  H    0.075580
    38  H    0.192844
    39  H    0.194435
    40  H    0.205568
    41  N   -0.125744
    42  C    0.162555
    43  C    0.038706
    44  O   -0.290016
    45  C    0.060339
    46  C    0.127331
    47  O   -0.484734
    48  O   -0.373985
    49  H    0.114645
    50  H    0.005876
    51  H   -0.013852
    52  H    0.018219
    53  N   -0.184964
    54  C    0.242858
    55  C    0.018426
    56  O   -0.309192
    57  H    0.150202
    58  H    0.047693
    59  H    0.032274
    60  N   -0.153740
    61  C    0.144969
    62  C    0.016707
    63  O   -0.307914
    64  C    0.087062
    65  C    0.086447
    66  N   -0.037355
    67  O   -0.335827
    68  H    0.129954
    69  H    0.023277
    70  H    0.069726
    71  H    0.011894
    72  H    0.128863
    73  H    0.113106
    74  N   -0.163322
    75  C    0.249975
    76  C    0.025891
    77  O   -0.299345
    78  H    0.162227
    79  H    0.039893
    80  H    0.031547
    81  N   -0.160367
    82  C    0.122026
    83  C    0.145253
    84  O   -0.362651
    85  C    0.148369
    86  C   -0.053598
    87  C    0.051467
    88  C    0.029187
    89  C   -0.042772
    90  C   -0.060986
    91  C    0.207176
    92  O   -0.204780
    93  H    0.153854
    94  H   -0.013529
    95  H   -0.040565
    96  H   -0.027581
    97  H   -0.048528
    98  H   -0.045642
    99  H   -0.016403
   100  H   -0.052140
   101  H    0.169826
   102  N   -0.116182
   103  C    0.148785
   104  C    0.024945
   105  O   -0.266196
   106  C   -0.106098
   107  C   -0.006984
   108  C    0.070776
   109  C    0.048121
   110  H    0.125449
   111  H    0.031640
   112  H   -0.011569
   113  H    0.002352
   114  H    0.006279
   115  H    0.003216
   116  H    0.006490
   117  H    0.016643
   118  H    0.035713
   119  H   -0.003100
   120  H   -0.006891
   121  N   -0.137133
   122  C    0.095091
   123  C    0.123155
   124  O   -0.261395
   125  C    0.221068
   126  O   -0.309223
   127  H    0.149076
   128  H    0.021463
   129  H    0.008687
   130  H   -0.000613
   131  H    0.202992
   132  N   -0.132216
   133  C    0.091190
   134  C    0.066852
   135  O   -0.254367
   136  C    0.006116
   137  H    0.126671
   138  H    0.043117
   139  H    0.036521
   140  H   -0.005392
   141  H    0.050261
   142  N   -0.141931
   143  C    0.089191
   144  C    0.047651
   145  O   -0.249838
   146  C    0.050867
   147  H    0.107615
   148  H    0.025922
   149  H    0.030824
   150  H   -0.025063
   151  H    0.004325
   152  N   -0.155656
   153  C    0.124202
   154  C    0.053775
   155  O   -0.272376
   156  C    0.019506
   157  C    0.082542
   158  C    0.121785
   159  O   -0.380978
   160  O   -0.439731
   161  H    0.121571
   162  H   -0.035790
   163  H    0.041170
   164  H   -0.003791
   165  H   -0.065196
   166  H   -0.045241
   167  N   -0.174817
   168  C    0.137363
   169  H    0.035967
   170  H    0.013253
   171  H    0.010237
   172  H    0.134125
   173  Ca   1.278779
   174  O   -0.283258
   175  H    0.193919
   176  H    0.184301
 Sum of Mulliken charges =  -0.00000

 Dipole moment (field-independent basis, Debye):
    X=             32.4544    Y=             -2.5588    Z=            -23.6047  Tot=             40.2121
 Quadrupole moment (field-independent basis, Debye-Ang):
   XX=           -652.9610   YY=           -507.2107   ZZ=           -480.9701
   XY=             98.4524   XZ=            -94.4774   YZ=            -35.4675

 ESP charges:
               1
     1  C   -0.433569
     2  C    0.772082
     3  O   -0.611460
     4  H    0.134757
     5  H    0.076457
     6  H    0.125574
     7  N   -0.637602
     8  C   -0.010961
     9  C    0.555259
    10  O   -0.484508
    11  C   -0.337168
    12  C    0.689488
    13  O   -0.756524
    14  O   -0.630619
    15  H    0.363916
    16  H    0.110198
    17  H    0.154002
    18  H    0.096074
    19  N    0.188110
    20  C   -1.089078
    21  C    0.882642
    22  O   -0.572339
    23  C    0.568465
    24  C   -0.244155
    25  C   -0.024601
    26  C    0.156493
    27  N   -0.539631
    28  H    0.064524
    29  H    0.273349
    30  H   -0.091693
    31  H    0.024951
    32  H    0.119423
    33  H    0.050266
    34  H    0.025853
    35  H    0.028202
    36  H    0.085333
    37  H    0.039741
    38  H    0.380765
    39  H    0.365137
    40  H    0.369593
    41  N   -0.642583
    42  C    0.223772
    43  C    0.436156
    44  O   -0.573206
    45  C   -0.278414
    46  C    0.768279
    47  O   -0.810314
    48  O   -0.691999
    49  H    0.414942
    50  H    0.060029
    51  H    0.071610
    52  H    0.086559
    53  N    0.279759
    54  C   -0.491387
    55  C    0.791612
    56  O   -0.615933
    57  H   -0.528366
    58  H    0.190126
    59  H    0.196152
    60  N   -0.567472
    61  C   -0.020506
    62  C    0.407507
    63  O   -0.552957
    64  C   -0.225973
    65  C    0.589624
    66  N   -0.791786
    67  O   -0.505367
    68  H    0.467333
    69  H    0.126891
    70  H    0.132498
    71  H    0.091108
    72  H    0.373465
    73  H    0.381605
    74  N   -0.030099
    75  C   -0.509802
    76  C    0.663243
    77  O   -0.531149
    78  H    0.266189
    79  H    0.224684
    80  H    0.165408
    81  N   -0.608556
    82  C    0.179211
    83  C    0.593084
    84  O   -0.499084
    85  C    0.047795
    86  C   -0.142739
    87  C   -0.128719
    88  C    0.026276
    89  C   -0.364003
    90  C   -0.474820
    91  C    0.584484
    92  O   -0.598103
    93  H    0.343724
    94  H    0.041165
    95  H   -0.028347
    96  H   -0.009390
    97  H    0.186431
    98  H    0.110197
    99  H    0.187190
   100  H    0.157005
   101  H    0.401120
   102  N   -0.668316
   103  C    0.115689
   104  C    0.741449
   105  O   -0.578876
   106  C   -0.094453
   107  C    0.334595
   108  C   -0.099158
   109  C   -0.421784
   110  H    0.335683
   111  H    0.045374
   112  H    0.034835
   113  H   -0.044594
   114  H    0.004574
   115  H    0.025384
   116  H   -0.021662
   117  H    0.043958
   118  H    0.131603
   119  H    0.100913
   120  H    0.064178
   121  N   -0.731999
   122  C    0.414199
   123  C    0.419240
   124  O   -0.425632
   125  C    0.134919
   126  O   -0.526262
   127  H    0.407733
   128  H   -0.034208
   129  H    0.009126
   130  H    0.001524
   131  H    0.402564
   132  N   -0.458865
   133  C    0.165122
   134  C    0.484625
   135  O   -0.528961
   136  C   -0.372464
   137  H    0.295017
   138  H    0.107524
   139  H    0.108786
   140  H    0.085478
   141  H    0.132824
   142  N   -0.360197
   143  C    0.192206
   144  C    0.301683
   145  O   -0.494881
   146  C   -0.310044
   147  H    0.164997
   148  H    0.079724
   149  H    0.105959
   150  H    0.027727
   151  H    0.089399
   152  N   -0.082131
   153  C   -0.177999
   154  C    0.563615
   155  O   -0.563463
   156  C   -0.153014
   157  C   -0.020432
   158  C    0.751254
   159  O   -0.796529
   160  O   -0.795510
   161  H    0.153428
   162  H    0.087332
   163  H    0.117432
   164  H    0.018714
   165  H   -0.027977
   166  H   -0.013077
   167  N   -0.126001
   168  C   -0.184678
   169  H    0.106414
   170  H    0.060559
   171  H    0.068874
   172  H    0.144549
   173  Ca   1.666239
   174  O   -0.889929
   175  H    0.454285
   176  H    0.419885
 Sum of ESP charges =  -0.00000

 Normal termination of Gaussian 16 at Sat Sep 14 23:27:37 2019.
