 Gaussian 16, Revision A.03,
 Gaussian 16:  ES64L-G16RevA.03 25-Dec-2016

 ----------------------------------------------------------------------
 #b3lyp/svp scf=(tight,noincore) Test #IOP(5/87=12) Density=Current Pop
 =(MK,readradii) iop(6/33=2) iop(6/42=6)
 ----------------------------------------------------------------------

 ------------------
 holoCaM_loop3_71.0
 ------------------
 Symbolic Z-matrix:
 Charge =  0 Multiplicity = 1

                         Standard orientation:
 ---------------------------------------------------------------------
 Center     Atomic      Atomic             Coordinates (Angstroms)
 Number     Number       Type             X           Y           Z
 ---------------------------------------------------------------------
      1          6           0        2.432849    1.743464    5.792817
      2          6           0        1.876549    1.576716    4.392523
      3          8           0        2.702200    1.570372    3.479035
      4          1           0        3.417657    2.208772    5.739009
      5          1           0        1.763948    2.376307    6.377047
      6          1           0        2.518819    0.766444    6.268740
      7          7           0        0.558425    1.568604    4.195082
      8          6           0       -0.188612    1.772642    2.972092
      9          6           0        0.058258    3.208594    2.554483
     10          8           0       -0.308528    4.195687    3.181313
     11          6           0       -1.653977    1.412544    3.172427
     12          6           0       -2.510240    1.345952    1.922436
     13          8           0       -1.970409    1.553388    0.815028
     14          8           0       -3.737970    1.249788    2.101128
     15          1           0        0.082014    1.382602    5.068143
     16          1           0        0.118224    1.033530    2.220717
     17          1           0       -2.029502    2.297306    3.693655
     18          1           0       -1.780516    0.433326    3.628957
     19          7           0        0.746435    3.326328    1.409035
     20          6           0        1.278287    4.597878    0.960488
     21          6           0        0.214872    5.466167    0.307477
     22          8           0        0.418231    6.675311    0.157758
     23          6           0        2.402864    4.350589   -0.043491
     24          6           0        3.310254    5.565228   -0.163052
     25          6           0        4.455996    5.082833   -1.047964
     26          6           0        5.466398    6.206423   -1.234598
     27          7           0        4.962251    7.317995   -2.062635
     28          1           0        1.186733    2.511821    1.014175
     29          1           0        1.547046    5.226814    1.813605
     30          1           0        1.994804    4.054662   -1.007968
     31          1           0        2.959688    3.460058    0.237402
     32          1           0        3.644926    5.889490    0.821707
     33          1           0        2.829299    6.334261   -0.773766
     34          1           0        4.093030    4.764268   -2.019803
     35          1           0        4.877718    4.239346   -0.503189
     36          1           0        6.433160    5.841492   -1.580281
     37          1           0        5.740217    6.711053   -0.307845
     38          1           0        4.148294    7.597887   -1.538293
     39          1           0        5.587761    8.114215   -2.173854
     40          1           0        4.631765    6.924182   -2.930154
     41          7           0       -0.883058    4.901150   -0.183852
     42          6           0       -1.923081    5.617067   -0.904210
     43          6           0       -3.323395    5.329299   -0.392047
     44          8           0       -4.301036    5.909330   -0.869416
     45          6           0       -1.764605    5.272738   -2.379074
     46          6           0       -1.411977    3.849772   -2.798264
     47          8           0       -0.895444    3.838139   -3.945242
     48          8           0       -1.495587    2.865642   -2.036557
     49          1           0       -0.919411    3.893187   -0.159572
     50          1           0       -1.772995    6.678532   -0.695247
     51          1           0       -1.120134    6.034292   -2.797276
     52          1           0       -2.729821    5.515331   -2.842978
     53          7           0       -3.529178    4.369386    0.524861
     54          6           0       -4.848015    3.984241    0.979759
     55          6           0       -5.663926    3.333079   -0.140812
     56          8           0       -6.539225    3.922708   -0.754319
     57          1           0       -2.766662    4.094210    1.124232
     58          1           0       -5.369965    4.916995    1.190090
     59          1           0       -4.897959    3.461077    1.929288
     60          7           0       -5.379397    2.038008   -0.270165
     61          6           0       -6.362765    1.099258   -0.771501
     62          6           0       -6.631462   -0.161747    0.047503
     63          8           0       -7.302261   -1.092435   -0.384295
     64          6           0       -6.005840    0.740073   -2.207673
     65          6           0       -4.783487   -0.096950   -2.551688
     66          7           0       -4.538699   -0.436834   -3.823992
     67          8           0       -4.002263   -0.319563   -1.632649
     68          1           0       -4.641825    1.676217    0.320508
     69          1           0       -7.338731    1.580534   -0.799153
     70          1           0       -5.944285    1.675283   -2.763904
     71          1           0       -6.841380    0.207693   -2.672800
     72          1           0       -5.161582   -0.231324   -4.589944
     73          1           0       -3.763646   -1.065578   -4.016537
     74          7           0       -6.026360   -0.262901    1.239358
     75          6           0       -6.344406   -1.404433    2.067882
     76          6           0       -5.447774   -2.594832    1.739095
     77          8           0       -5.462873   -3.631604    2.403154
     78          1           0       -5.515949    0.525680    1.614754
     79          1           0       -7.396917   -1.689669    2.040298
     80          1           0       -6.171765   -1.161961    3.113111
     81          7           0       -4.555123   -2.448187    0.765560
     82          6           0       -3.408734   -3.314402    0.562178
     83          6           0       -2.036672   -2.664989    0.680105
     84          8           0       -1.950079   -1.492474    0.321762
     85          6           0       -3.538625   -3.990910   -0.801775
     86          6           0       -4.902257   -4.590299   -1.062623
     87          6           0       -5.833248   -3.849526   -1.802833
     88          6           0       -5.342408   -5.662761   -0.284296
     89          6           0       -7.159571   -4.278066   -1.871539
     90          6           0       -6.689992   -6.023416   -0.243734
     91          6           0       -7.611674   -5.359509   -1.084467
     92          8           0       -8.941599   -5.591977   -0.922428
     93          1           0       -4.546386   -1.646387    0.160218
     94          1           0       -3.510895   -4.099945    1.319532
     95          1           0       -2.880537   -4.846450   -0.918275
     96          1           0       -3.250420   -3.226944   -1.521422
     97          1           0       -5.569273   -2.900340   -2.262468
     98          1           0       -4.722012   -6.225101    0.409088
     99          1           0       -7.789276   -3.638859   -2.464401
    100          1           0       -7.153408   -6.726054    0.436667
    101          1           0       -9.169521   -6.340582   -0.356175
    102          7           0       -1.050242   -3.364478    1.252619
    103          6           0        0.315664   -2.904144    1.316596
    104          6           0        1.195767   -3.842583    0.492185
    105          8           0        0.996450   -5.050179    0.580412
    106          6           0        0.800119   -2.864462    2.762635
    107          6           0        0.122675   -1.815927    3.634038
    108          6           0        2.309399   -2.685360    2.939542
    109          6           0        0.004488   -2.156628    5.112197
    110          1           0       -1.285997   -4.219938    1.732730
    111          1           0        0.421153   -1.883287    0.942667
    112          1           0        0.650969   -3.896753    3.053720
    113          1           0       -0.921354   -1.734265    3.331656
    114          1           0        0.517246   -0.801857    3.625329
    115          1           0        2.658829   -1.932463    2.235024
    116          1           0        2.585401   -2.559145    3.983761
    117          1           0        2.814866   -3.604473    2.640655
    118          1           0        0.949452   -2.312914    5.648496
    119          1           0       -0.466897   -1.295566    5.580991
    120          1           0       -0.666250   -3.003386    5.224049
    121          7           0        2.118011   -3.286750   -0.295099
    122          6           0        3.046087   -4.065856   -1.084699
    123          6           0        4.469780   -3.835778   -0.583637
    124          8           0        4.746714   -2.980919    0.249684
    125          6           0        2.891503   -3.799807   -2.577791
    126          8           0        3.499600   -2.569127   -2.895508
    127          1           0        2.125549   -2.299151   -0.528316
    128          1           0        2.800485   -5.120622   -0.948508
    129          1           0        1.825037   -3.792087   -2.803823
    130          1           0        3.391628   -4.524553   -3.221777
    131          1           0        3.197398   -2.230092   -3.737844
    132          7           0        5.349670   -4.764501   -0.963857
    133          6           0        6.727623   -4.755296   -0.512017
    134          6           0        7.417951   -3.427673   -0.800748
    135          8           0        7.999383   -2.767730    0.065574
    136          6           0        7.586445   -5.892492   -1.032220
    137          1           0        5.038437   -5.479455   -1.608896
    138          1           0        6.679744   -4.869137    0.563412
    139          1           0        7.526456   -6.056066   -2.105460
    140          1           0        8.639313   -5.776738   -0.766570
    141          1           0        7.168974   -6.850497   -0.711370
    142          7           0        7.126752   -2.908950   -1.992355
    143          6           0        7.478899   -1.575357   -2.428387
    144          6           0        6.917939   -0.420132   -1.619822
    145          8           0        7.498793    0.668484   -1.640427
    146          6           0        7.152988   -1.514113   -3.920008
    147          1           0        6.606401   -3.525394   -2.604753
    148          1           0        8.561248   -1.451218   -2.388261
    149          1           0        6.097751   -1.641502   -4.177975
    150          1           0        7.530000   -0.533147   -4.192526
    151          1           0        7.694617   -2.265307   -4.500134
    152          7           0        5.787745   -0.591352   -0.938981
    153          6           0        5.263980    0.317389    0.067478
    154          6           0        5.787613    0.169337    1.488601
    155          8           0        5.992722    1.163773    2.172726
    156          6           0        3.743021    0.203519   -0.001224
    157          6           0        3.179411    0.494638   -1.387223
    158          6           0        1.669848    0.369066   -1.418067
    159          8           0        1.036572    0.748974   -2.430752
    160          8           0        1.024650    0.041161   -0.395425
    161          1           0        5.314937   -1.479027   -1.010294
    162          1           0        5.522341    1.298060   -0.333189
    163          1           0        3.202406    0.900996    0.628030
    164          1           0        3.559026   -0.837295    0.279224
    165          1           0        3.655176   -0.173671   -2.109449
    166          1           0        3.403339    1.542037   -1.606336
    167          7           0        6.152383   -1.031935    1.942568
    168          6           0        6.809208   -1.313066    3.203221
    169          1           0        7.834562   -0.946142    3.167816
    170          1           0        6.273886   -0.815354    4.011885
    171          1           0        6.814607   -2.388954    3.378312
    172          1           0        5.847355   -1.779599    1.341022
    173         20           0       -1.415891    0.456481   -1.326001
    174          8           0       -1.389671    0.484804   -3.982448
    175          1           0       -1.914729   -0.104680   -4.516418
    176          1           0       -0.980053    1.085841   -4.612024
 ---------------------------------------------------------------------

 SCF Done:  E(RB3LYP) =  -5333.56312781     A.U. after   20 cycles

 The electronic state is 1-A.
 Alpha  occ. eigenvalues -- -145.35447 -19.17779 -19.14796 -19.14606 -19.14583
 Alpha  occ. eigenvalues --  -19.13555 -19.12116 -19.11168 -19.10776 -19.08214
 Alpha  occ. eigenvalues --  -19.08156 -19.07793 -19.06831 -19.06631 -19.06481
 Alpha  occ. eigenvalues --  -19.06146 -19.05658 -19.05540 -19.05066 -19.04987
 Alpha  occ. eigenvalues --  -19.04593 -19.03932 -19.02535 -18.99604 -15.41244
 Alpha  occ. eigenvalues --  -14.56746 -14.40285 -14.39122 -14.37343 -14.37265
 Alpha  occ. eigenvalues --  -14.37053 -14.33799 -14.33572 -14.33344 -14.32753
 Alpha  occ. eigenvalues --  -14.32660 -14.30929 -14.30849 -14.30831 -14.30414
 Alpha  occ. eigenvalues --  -12.54857 -12.54830 -12.54783 -10.32993 -10.32765
 Alpha  occ. eigenvalues --  -10.32041 -10.30214 -10.29541 -10.29462 -10.28188
 Alpha  occ. eigenvalues --  -10.27240 -10.26708 -10.26306 -10.26284 -10.26223
 Alpha  occ. eigenvalues --  -10.26054 -10.25867 -10.25433 -10.24789 -10.24744
 Alpha  occ. eigenvalues --  -10.24660 -10.24122 -10.23968 -10.23747 -10.23577
 Alpha  occ. eigenvalues --  -10.22890 -10.22838 -10.22827 -10.22543 -10.22498
 Alpha  occ. eigenvalues --  -10.21775 -10.21739 -10.20991 -10.20845 -10.20641
 Alpha  occ. eigenvalues --  -10.20569 -10.20474 -10.20416 -10.19312 -10.19284
 Alpha  occ. eigenvalues --  -10.18803 -10.18797 -10.18271 -10.17849 -10.17605
 Alpha  occ. eigenvalues --  -10.17518 -10.17433 -10.17426 -10.17334 -10.17153
 Alpha  occ. eigenvalues --  -10.17139 -10.16860 -10.16555 -10.16445 -10.16336
 Alpha  occ. eigenvalues --  -10.16255 -10.12642  -1.78158  -1.12143  -1.08058
 Alpha  occ. eigenvalues --   -1.06455  -1.05982  -1.05827  -1.05642  -1.05424
 Alpha  occ. eigenvalues --   -1.04700  -1.03958  -1.03635  -1.03090  -1.01397
 Alpha  occ. eigenvalues --   -1.01299  -1.01038  -1.00861  -1.00589  -0.99933
 Alpha  occ. eigenvalues --   -0.99760  -0.99740  -0.99154  -0.98611  -0.98352
 Alpha  occ. eigenvalues --   -0.97070  -0.96955  -0.95307  -0.94400  -0.93867
 Alpha  occ. eigenvalues --   -0.93654  -0.93618  -0.90835  -0.90675  -0.90656
 Alpha  occ. eigenvalues --   -0.90489  -0.90260  -0.89670  -0.89511  -0.88328
 Alpha  occ. eigenvalues --   -0.88017  -0.87262  -0.87115  -0.86031  -0.85636
 Alpha  occ. eigenvalues --   -0.83340  -0.82766  -0.81460  -0.80724  -0.79267
 Alpha  occ. eigenvalues --   -0.78216  -0.77803  -0.77245  -0.76984  -0.76963
 Alpha  occ. eigenvalues --   -0.74664  -0.74507  -0.72866  -0.72758  -0.72483
 Alpha  occ. eigenvalues --   -0.71710  -0.71195  -0.70995  -0.70919  -0.70835
 Alpha  occ. eigenvalues --   -0.70234  -0.69649  -0.68723  -0.68025  -0.67278
 Alpha  occ. eigenvalues --   -0.67209  -0.66164  -0.65691  -0.64663  -0.64087
 Alpha  occ. eigenvalues --   -0.64048  -0.63089  -0.62340  -0.61878  -0.61647
 Alpha  occ. eigenvalues --   -0.61063  -0.60722  -0.60560  -0.60468  -0.59277
 Alpha  occ. eigenvalues --   -0.59207  -0.58546  -0.58498  -0.58203  -0.58179
 Alpha  occ. eigenvalues --   -0.57571  -0.57369  -0.56640  -0.56384  -0.56123
 Alpha  occ. eigenvalues --   -0.55720  -0.55399  -0.55219  -0.54725  -0.54629
 Alpha  occ. eigenvalues --   -0.54358  -0.54068  -0.53868  -0.53558  -0.53385
 Alpha  occ. eigenvalues --   -0.52827  -0.52755  -0.52229  -0.51894  -0.51483
 Alpha  occ. eigenvalues --   -0.51249  -0.50606  -0.50506  -0.50352  -0.50149
 Alpha  occ. eigenvalues --   -0.50005  -0.49542  -0.49148  -0.48660  -0.48473
 Alpha  occ. eigenvalues --   -0.48318  -0.48237  -0.48187  -0.47890  -0.47323
 Alpha  occ. eigenvalues --   -0.47009  -0.46771  -0.46713  -0.46422  -0.46272
 Alpha  occ. eigenvalues --   -0.46162  -0.45892  -0.45413  -0.45351  -0.45205
 Alpha  occ. eigenvalues --   -0.45132  -0.44898  -0.44637  -0.44486  -0.44204
 Alpha  occ. eigenvalues --   -0.44153  -0.44032  -0.43989  -0.43676  -0.43480
 Alpha  occ. eigenvalues --   -0.43400  -0.43365  -0.43239  -0.43124  -0.42923
 Alpha  occ. eigenvalues --   -0.42526  -0.42376  -0.42266  -0.42003  -0.41801
 Alpha  occ. eigenvalues --   -0.41718  -0.41660  -0.41541  -0.41333  -0.41158
 Alpha  occ. eigenvalues --   -0.41150  -0.40960  -0.40827  -0.40668  -0.40556
 Alpha  occ. eigenvalues --   -0.40400  -0.40066  -0.40014  -0.39866  -0.39821
 Alpha  occ. eigenvalues --   -0.39641  -0.39458  -0.39433  -0.39289  -0.39265
 Alpha  occ. eigenvalues --   -0.39051  -0.38926  -0.38663  -0.38595  -0.38329
 Alpha  occ. eigenvalues --   -0.38170  -0.38123  -0.37906  -0.37694  -0.37560
 Alpha  occ. eigenvalues --   -0.37500  -0.37429  -0.37394  -0.37210  -0.36940
 Alpha  occ. eigenvalues --   -0.36782  -0.36730  -0.36685  -0.36292  -0.36142
 Alpha  occ. eigenvalues --   -0.36110  -0.35676  -0.35318  -0.35264  -0.35187
 Alpha  occ. eigenvalues --   -0.35022  -0.34876  -0.34763  -0.34536  -0.34439
 Alpha  occ. eigenvalues --   -0.34216  -0.33833  -0.33769  -0.33730  -0.33477
 Alpha  occ. eigenvalues --   -0.33316  -0.32744  -0.32626  -0.32380  -0.32263
 Alpha  occ. eigenvalues --   -0.32143  -0.32070  -0.31875  -0.31662  -0.31540
 Alpha  occ. eigenvalues --   -0.31345  -0.31314  -0.30885  -0.30873  -0.30197
 Alpha  occ. eigenvalues --   -0.29988  -0.29004  -0.28927  -0.28698  -0.28200
 Alpha  occ. eigenvalues --   -0.28100  -0.27751  -0.26321  -0.26246  -0.26016
 Alpha  occ. eigenvalues --   -0.25923  -0.25478  -0.25162  -0.24908  -0.24578
 Alpha  occ. eigenvalues --   -0.24260  -0.23993  -0.23733  -0.23254  -0.23144
 Alpha  occ. eigenvalues --   -0.23133  -0.23003  -0.22992  -0.22498  -0.22262
 Alpha  occ. eigenvalues --   -0.21905  -0.21865  -0.21590  -0.21447  -0.21101
 Alpha  occ. eigenvalues --   -0.21048  -0.20569  -0.20430  -0.19625  -0.19253
 Alpha  occ. eigenvalues --   -0.18990  -0.18493  -0.15887
 Alpha virt. eigenvalues --   -0.08690  -0.03110  -0.02801  -0.01963  -0.01554
 Alpha virt. eigenvalues --   -0.00948  -0.00739  -0.00553  -0.00293   0.00362
 Alpha virt. eigenvalues --    0.00929   0.01271   0.01596   0.01913   0.02254

 Mulliken charges:
               1
     1  C    0.050244
     2  C    0.018894
     3  O   -0.282549
     4  H    0.043894
     5  H    0.012953
     6  H    0.025456
     7  N   -0.140778
     8  C    0.092449
     9  C    0.105121
    10  O   -0.273030
    11  C    0.050563
    12  C    0.166255
    13  O   -0.472145
    14  O   -0.399229
    15  H    0.116488
    16  H    0.026242
    17  H    0.022060
    18  H    0.015160
    19  N   -0.136872
    20  C    0.138073
    21  C    0.032599
    22  O   -0.327094
    23  C    0.006003
    24  C   -0.003259
    25  C   -0.054862
    26  C    0.050792
    27  N    0.066154
    28  H    0.146699
    29  H    0.013959
    30  H    0.036383
    31  H    0.029348
    32  H    0.031221
    33  H   -0.001735
    34  H    0.038464
    35  H    0.081862
    36  H    0.074907
    37  H    0.048617
    38  H    0.184144
    39  H    0.203156
    40  H    0.193584
    41  N   -0.144311
    42  C    0.165335
    43  C    0.040356
    44  O   -0.279828
    45  C    0.061160
    46  C    0.146701
    47  O   -0.404177
    48  O   -0.469442
    49  H    0.146417
    50  H    0.012828
    51  H   -0.022550
    52  H    0.014373
    53  N   -0.153634
    54  C    0.218434
    55  C    0.028661
    56  O   -0.249028
    57  H    0.131594
    58  H   -0.009593
    59  H    0.026084
    60  N   -0.155740
    61  C    0.155227
    62  C    0.026645
    63  O   -0.273927
    64  C    0.060297
    65  C    0.094937
    66  N   -0.050986
    67  O   -0.343004
    68  H    0.139307
    69  H    0.025046
    70  H    0.048479
    71  H    0.014100
    72  H    0.137944
    73  H    0.122774
    74  N   -0.171311
    75  C    0.242422
    76  C    0.049112
    77  O   -0.305993
    78  H    0.139455
    79  H    0.034127
    80  H    0.022880
    81  N   -0.129764
    82  C    0.093003
    83  C    0.145934
    84  O   -0.351167
    85  C    0.126292
    86  C    0.030272
    87  C   -0.021028
    88  C    0.008029
    89  C    0.001871
    90  C   -0.035939
    91  C    0.164148
    92  O   -0.207196
    93  H    0.148014
    94  H   -0.003369
    95  H   -0.004191
    96  H   -0.046083
    97  H   -0.058987
    98  H   -0.028786
    99  H   -0.034070
   100  H   -0.048683
   101  H    0.177283
   102  N   -0.101650
   103  C    0.140292
   104  C    0.057315
   105  O   -0.284249
   106  C   -0.117885
   107  C    0.007028
   108  C    0.092695
   109  C    0.016220
   110  H    0.136013
   111  H    0.036663
   112  H   -0.027108
   113  H   -0.000326
   114  H    0.028766
   115  H    0.036639
   116  H    0.006879
   117  H   -0.011760
   118  H    0.009356
   119  H   -0.011183
   120  H    0.006490
   121  N   -0.131972
   122  C    0.066136
   123  C    0.120390
   124  O   -0.268655
   125  C    0.220698
   126  O   -0.307243
   127  H    0.155686
   128  H    0.032535
   129  H    0.022494
   130  H   -0.014323
   131  H    0.192256
   132  N   -0.124215
   133  C    0.097167
   134  C    0.033504
   135  O   -0.252413
   136  C    0.049966
   137  H    0.117798
   138  H    0.021901
   139  H   -0.005172
   140  H    0.054153
   141  H    0.020042
   142  N   -0.129923
   143  C    0.112119
   144  C    0.077477
   145  O   -0.295740
   146  C    0.020144
   147  H    0.101312
   148  H    0.020269
   149  H    0.001134
   150  H    0.029977
   151  H    0.013298
   152  N   -0.152592
   153  C    0.144026
   154  C    0.094503
   155  O   -0.287459
   156  C   -0.055066
   157  C    0.072090
   158  C    0.087315
   159  O   -0.385191
   160  O   -0.437160
   161  H    0.130099
   162  H   -0.026056
   163  H    0.028400
   164  H    0.003514
   165  H   -0.014299
   166  H   -0.014622
   167  N   -0.155807
   168  C    0.159620
   169  H    0.020507
   170  H    0.022381
   171  H    0.001367
   172  H    0.120516
   173  Ca   1.297309
   174  O   -0.274340
   175  H    0.128588
   176  H    0.194418
 Sum of Mulliken charges =  -0.00000

 Dipole moment (field-independent basis, Debye):
    X=             22.6981    Y=             -3.3216    Z=            -13.1178  Tot=             26.4256
 Quadrupole moment (field-independent basis, Debye-Ang):
   XX=           -575.1486   YY=           -436.5978   ZZ=           -507.3331
   XY=            121.6263   XZ=            -62.6497   YZ=             -5.7505

 ESP charges:
               1
     1  C   -0.442185
     2  C    0.834449
     3  O   -0.628798
     4  H    0.146675
     5  H    0.087430
     6  H    0.102953
     7  N   -0.779410
     8  C    0.325894
     9  C    0.593822
    10  O   -0.555537
    11  C   -0.461415
    12  C    1.047683
    13  O   -0.948384
    14  O   -0.765345
    15  H    0.351861
    16  H   -0.009446
    17  H    0.102467
    18  H    0.097759
    19  N   -0.054625
    20  C   -0.690275
    21  C    0.770041
    22  O   -0.623946
    23  C    0.533202
    24  C   -0.331940
    25  C   -0.195248
    26  C    0.239078
    27  N   -0.524921
    28  H    0.163068
    29  H    0.199806
    30  H    0.011882
    31  H    0.004674
    32  H    0.119878
    33  H    0.059811
    34  H    0.074608
    35  H    0.098860
    36  H    0.032738
    37  H    0.049666
    38  H    0.359385
    39  H    0.373296
    40  H    0.376032
    41  N   -0.534826
    42  C    0.108621
    43  C    0.324330
    44  O   -0.495146
    45  C   -0.298891
    46  C    0.816721
    47  O   -0.708307
    48  O   -0.774393
    49  H    0.267156
    50  H    0.100080
    51  H    0.076458
    52  H    0.083844
    53  N    0.044872
    54  C   -0.430319
    55  C    0.803435
    56  O   -0.555317
    57  H    0.143658
    58  H    0.088054
    59  H    0.187460
    60  N   -0.508453
    61  C   -0.095863
    62  C    0.457502
    63  O   -0.484479
    64  C   -0.168579
    65  C    0.651873
    66  N   -0.834307
    67  O   -0.437688
    68  H    0.149135
    69  H    0.132845
    70  H    0.123096
    71  H    0.052269
    72  H    0.392662
    73  H    0.372324
    74  N   -0.219776
    75  C   -0.394857
    76  C    0.686315
    77  O   -0.592140
    78  H    0.321116
    79  H    0.176222
    80  H    0.140303
    81  N   -0.167318
    82  C   -0.137949
    83  C    0.564747
    84  O   -0.599768
    85  C    0.237684
    86  C   -0.107243
    87  C   -0.194160
    88  C   -0.110741
    89  C   -0.174639
    90  C   -0.251945
    91  C    0.313925
    92  O   -0.533289
    93  H    0.148069
    94  H    0.083590
    95  H   -0.021752
    96  H   -0.077255
    97  H    0.133290
    98  H    0.127772
    99  H    0.136522
   100  H    0.134741
   101  H    0.403340
   102  N   -0.614337
   103  C    0.104418
   104  C    0.594097
   105  O   -0.553706
   106  C    0.127469
   107  C    0.125306
   108  C   -0.229982
   109  C   -0.373117
   110  H    0.341459
   111  H    0.064965
   112  H   -0.007340
   113  H    0.043804
   114  H    0.036418
   115  H   -0.014732
   116  H    0.083114
   117  H    0.050702
   118  H    0.088002
   119  H    0.080717
   120  H    0.073342
   121  N   -0.384677
   122  C    0.144943
   123  C    0.408046
   124  O   -0.335616
   125  C    0.016773
   126  O   -0.426578
   127  H    0.219146
   128  H    0.033843
   129  H    0.064253
   130  H    0.020289
   131  H    0.378997
   132  N   -0.427356
   133  C    0.139477
   134  C    0.565023
   135  O   -0.544973
   136  C   -0.405497
   137  H    0.303414
   138  H    0.081184
   139  H    0.101238
   140  H    0.142154
   141  H    0.115235
   142  N   -0.541342
   143  C    0.296704
   144  C    0.309686
   145  O   -0.535797
   146  C   -0.285123
   147  H    0.266480
   148  H    0.053698
   149  H    0.060653
   150  H    0.081018
   151  H    0.077855
   152  N    0.092851
   153  C   -0.205044
   154  C    0.539412
   155  O   -0.558779
   156  C    0.167490
   157  C   -0.127577
   158  C    0.584766
   159  O   -0.650182
   160  O   -0.707934
   161  H   -0.066667
   162  H    0.074070
   163  H    0.007591
   164  H   -0.034530
   165  H   -0.020778
   166  H    0.008253
   167  N   -0.102574
   168  C   -0.261539
   169  H    0.108044
   170  H    0.099618
   171  H    0.097439
   172  H    0.126656
   173  Ca   1.644557
   174  O   -0.917384
   175  H    0.400352
   176  H    0.467966
 Sum of ESP charges =  -0.00000

 Normal termination of Gaussian 16 at Sat Sep 14 22:40:42 2019.
