 Gaussian 16, Revision A.03,
 Gaussian 16:  ES64L-G16RevA.03 25-Dec-2016

 ----------------------------------------------------------------------
 #b3lyp/svp scf=(tight,noincore) Test #IOP(5/87=12) Density=Current Pop
 =(MK,readradii) iop(6/33=2) iop(6/42=6)
 ----------------------------------------------------------------------

 ------------------
 holoCaM_loop3_80.0
 ------------------
 Symbolic Z-matrix:
 Charge =  0 Multiplicity = 1

                         Standard orientation:
 ---------------------------------------------------------------------
 Center     Atomic      Atomic             Coordinates (Angstroms)
 Number     Number       Type             X           Y           Z
 ---------------------------------------------------------------------
      1          6           0        3.878121    4.564966    4.796318
      2          6           0        3.063660    4.254897    3.548356
      3          8           0        3.602180    4.312795    2.438742
      4          1           0        4.688453    5.247161    4.539787
      5          1           0        3.235637    5.030319    5.544175
      6          1           0        4.294384    3.640918    5.197427
      7          7           0        1.755774    3.992849    3.598017
      8          6           0        0.952012    3.684228    2.428051
      9          6           0        0.779029    4.868997    1.486138
     10          8           0        0.967482    6.020548    1.845325
     11          6           0       -0.434559    3.343422    2.986146
     12          6           0       -1.404419    2.902151    1.906817
     13          8           0       -1.337992    1.811418    1.303834
     14          8           0       -2.309556    3.742379    1.712797
     15          1           0        1.324205    3.993530    4.514940
     16          1           0        1.415012    2.829458    1.956036
     17          1           0       -0.850910    4.173412    3.547099
     18          1           0       -0.273082    2.505504    3.673183
     19          7           0        0.455665    4.567266    0.225783
     20          6           0        0.413495    5.483832   -0.893203
     21          6           0       -0.946648    5.888345   -1.441091
     22          8           0       -0.967311    6.990184   -1.994647
     23          6           0        1.304283    4.918479   -1.994689
     24          6           0        2.787672    4.792904   -1.676592
     25          6           0        3.417647    6.187719   -1.627375
     26          6           0        4.793212    6.112175   -0.981298
     27          7           0        5.363722    7.418612   -0.628678
     28          1           0        0.226200    3.588870    0.133121
     29          1           0        0.933170    6.399879   -0.614824
     30          1           0        1.161618    5.501604   -2.906507
     31          1           0        0.948284    3.920907   -2.256826
     32          1           0        3.304856    4.282004   -2.489366
     33          1           0        2.884652    4.350203   -0.689317
     34          1           0        2.778170    6.942531   -1.171604
     35          1           0        3.638302    6.526464   -2.637060
     36          1           0        5.538249    5.563712   -1.545131
     37          1           0        4.680957    5.551991   -0.045193
     38          1           0        6.255873    7.335292   -0.149487
     39          1           0        5.609037    7.976023   -1.441952
     40          1           0        4.717452    8.015762   -0.144687
     41          7           0       -1.972986    5.042748   -1.302540
     42          6           0       -3.203277    5.070025   -2.066372
     43          6           0       -4.527778    5.033407   -1.321150
     44          8           0       -5.429546    5.791849   -1.694891
     45          6           0       -3.045948    4.025780   -3.167327
     46          6           0       -2.937070    2.596477   -2.646714
     47          8           0       -2.873560    2.268544   -1.447995
     48          8           0       -3.160229    1.684865   -3.477414
     49          1           0       -1.893748    4.193000   -0.775806
     50          1           0       -3.168893    6.035186   -2.580066
     51          1           0       -2.097799    4.308798   -3.611640
     52          1           0       -3.862031    4.060207   -3.876568
     53          7           0       -4.654795    4.177266   -0.305725
     54          6           0       -5.765385    3.837378    0.554255
     55          6           0       -6.420950    2.471369    0.365699
     56          8           0       -7.553532    2.348481    0.831055
     57          1           0       -3.814799    3.644140   -0.130269
     58          1           0       -6.565671    4.569373    0.496587
     59          1           0       -5.350831    3.883068    1.568383
     60          7           0       -5.780261    1.586984   -0.395539
     61          6           0       -6.419514    0.379621   -0.888012
     62          6           0       -6.629854   -0.698213    0.162194
     63          8           0       -7.051669   -1.813467   -0.156680
     64          6           0       -5.645792   -0.045230   -2.136313
     65          6           0       -4.377944   -0.841615   -1.886449
     66          7           0       -4.129210   -1.796982   -2.791327
     67          8           0       -3.588002   -0.691262   -0.959094
     68          1           0       -4.802633    1.733473   -0.578527
     69          1           0       -7.385132    0.694591   -1.274244
     70          1           0       -5.416491    0.883040   -2.656829
     71          1           0       -6.354666   -0.604647   -2.756918
     72          1           0       -4.646920   -1.779744   -3.662980
     73          1           0       -3.287878   -2.332406   -2.653193
     74          7           0       -6.244473   -0.406918    1.403978
     75          6           0       -6.204674   -1.236256    2.584493
     76          6           0       -5.155350   -2.347834    2.604792
     77          8           0       -5.118764   -3.098149    3.574013
     78          1           0       -5.944786    0.535668    1.600498
     79          1           0       -7.102395   -1.840764    2.704768
     80          1           0       -6.142906   -0.534767    3.414311
     81          7           0       -4.289976   -2.455706    1.586759
     82          6           0       -3.171361   -3.368847    1.516941
     83          6           0       -1.816832   -2.684705    1.558173
     84          8           0       -1.619040   -1.527196    1.169779
     85          6           0       -3.189783   -4.240348    0.265083
     86          6           0       -4.533134   -4.885052    0.007472
     87          6           0       -5.104913   -4.690428   -1.257515
     88          6           0       -5.160985   -5.641948    0.996163
     89          6           0       -6.301333   -5.344945   -1.573563
     90          6           0       -6.387184   -6.229345    0.682953
     91          6           0       -6.974476   -6.121237   -0.601376
     92          8           0       -8.199732   -6.557722   -0.985471
     93          1           0       -4.337723   -1.793318    0.818148
     94          1           0       -3.150004   -4.081168    2.343948
     95          1           0       -2.365265   -4.963583    0.264134
     96          1           0       -2.930632   -3.586383   -0.572396
     97          1           0       -4.596548   -3.987371   -1.909570
     98          1           0       -4.768149   -5.626685    2.008708
     99          1           0       -6.730172   -5.188507   -2.549742
    100          1           0       -6.909851   -6.675172    1.514252
    101          1           0       -8.579301   -7.044499   -0.256379
    102          7           0       -0.762124   -3.429139    1.901699
    103          6           0        0.632172   -3.158307    1.634883
    104          6           0        1.176050   -3.996738    0.497593
    105          8           0        1.051989   -5.226118    0.434879
    106          6           0        1.481569   -3.284902    2.900268
    107          6           0        1.087224   -2.266918    3.967554
    108          6           0        2.989614   -3.231480    2.661632
    109          6           0        1.549348   -0.820589    3.750365
    110          1           0       -0.976216   -4.366745    2.203625
    111          1           0        0.701471   -2.127835    1.281861
    112          1           0        1.199967   -4.275052    3.243202
    113          1           0        1.406275   -2.507632    4.974462
    114          1           0        0.004406   -2.290824    4.058844
    115          1           0        3.488527   -3.049027    3.616774
    116          1           0        3.381911   -4.101651    2.129086
    117          1           0        3.192559   -2.463348    1.916926
    118          1           0        1.040152   -0.219885    4.496270
    119          1           0        2.613248   -0.697820    3.976516
    120          1           0        1.277870   -0.405253    2.777279
    121          7           0        1.799230   -3.259349   -0.431119
    122          6           0        2.602874   -3.679148   -1.555408
    123          6           0        3.997412   -3.985803   -1.023031
    124          8           0        4.526261   -3.406526   -0.083213
    125          6           0        2.766727   -2.552852   -2.583469
    126          8           0        1.530711   -2.411663   -3.247345
    127          1           0        1.646065   -2.257820   -0.460765
    128          1           0        2.187333   -4.597581   -1.953161
    129          1           0        3.452168   -2.883317   -3.361135
    130          1           0        3.048051   -1.647545   -2.050388
    131          1           0        1.753400   -2.139184   -4.148380
    132          7           0        4.742219   -4.817471   -1.762349
    133          6           0        6.142229   -5.025878   -1.487688
    134          6           0        7.012128   -3.779679   -1.431442
    135          8           0        7.772131   -3.579276   -0.486807
    136          6           0        6.756186   -5.965680   -2.522447
    137          1           0        4.308750   -5.217783   -2.586518
    138          1           0        6.204312   -5.575768   -0.551330
    139          1           0        7.822888   -6.186942   -2.481325
    140          1           0        6.166310   -6.874573   -2.543882
    141          1           0        6.574632   -5.537953   -3.514510
    142          7           0        6.714540   -2.836282   -2.341521
    143          6           0        7.303253   -1.516249   -2.436544
    144          6           0        6.989347   -0.590449   -1.269600
    145          8           0        7.825979    0.250343   -0.924323
    146          6           0        6.755382   -0.900131   -3.729307
    147          1           0        6.124600   -3.192498   -3.066835
    148          1           0        8.383414   -1.542848   -2.594483
    149          1           0        5.743139   -0.569203   -3.467102
    150          1           0        7.362321   -0.048643   -4.038650
    151          1           0        6.730240   -1.649937   -4.511968
    152          7           0        5.820355   -0.780197   -0.662103
    153          6           0        5.470112   -0.115219    0.583905
    154          6           0        6.213077   -0.806261    1.714111
    155          8           0        6.711789   -0.103635    2.591666
    156          6           0        3.961709   -0.112413    0.757440
    157          6           0        3.203195    1.062411    0.143482
    158          6           0        1.741688    0.788610   -0.189430
    159          8           0        1.000153    1.728053   -0.555179
    160          8           0        1.235480   -0.353203   -0.166731
    161          1           0        5.277070   -1.588233   -0.923864
    162          1           0        5.830602    0.920057    0.565224
    163          1           0        3.817639   -0.079115    1.840738
    164          1           0        3.625252   -1.078852    0.386911
    165          1           0        3.708709    1.334777   -0.782246
    166          1           0        3.244329    1.943335    0.776635
    167          7           0        6.367368   -2.128561    1.766228
    168          6           0        7.146441   -2.835373    2.767409
    169          1           0        8.104857   -3.128835    2.340473
    170          1           0        7.315659   -2.182404    3.624160
    171          1           0        6.604607   -3.725065    3.088403
    172          1           0        6.081046   -2.660477    0.947396
    173         20           0       -1.216989    0.404970   -0.738018
    174          8           0       -0.698097   -1.971786   -1.907412
    175          1           0       -1.061356   -2.786459   -2.237337
    176          1           0        0.169741   -1.922796   -2.310718
 ---------------------------------------------------------------------

 SCF Done:  E(RB3LYP) =  -5333.59644271     A.U. after   19 cycles

 The electronic state is 1-A.
 Alpha  occ. eigenvalues -- -145.36757 -19.21558 -19.16690 -19.15585 -19.15555
 Alpha  occ. eigenvalues --  -19.12793 -19.12386 -19.11029 -19.10138 -19.10048
 Alpha  occ. eigenvalues --  -19.09733 -19.08551 -19.08163 -19.07508 -19.07174
 Alpha  occ. eigenvalues --  -19.06602 -19.06388 -19.06362 -19.06060 -19.05969
 Alpha  occ. eigenvalues --  -19.03918 -19.03387 -19.03374 -19.01158 -15.42530
 Alpha  occ. eigenvalues --  -14.56802 -14.41319 -14.39283 -14.36923 -14.36596
 Alpha  occ. eigenvalues --  -14.35958 -14.35725 -14.34033 -14.33677 -14.33538
 Alpha  occ. eigenvalues --  -14.32737 -14.32262 -14.31914 -14.31690 -14.29680
 Alpha  occ. eigenvalues --  -12.56159 -12.56094 -12.56083 -10.33515 -10.32196
 Alpha  occ. eigenvalues --  -10.31560 -10.30896 -10.30852 -10.29356 -10.28930
 Alpha  occ. eigenvalues --  -10.28812 -10.28287 -10.28072 -10.27501 -10.27298
 Alpha  occ. eigenvalues --  -10.26482 -10.26478 -10.25863 -10.25402 -10.25142
 Alpha  occ. eigenvalues --  -10.25092 -10.25075 -10.24935 -10.24070 -10.24020
 Alpha  occ. eigenvalues --  -10.23578 -10.23224 -10.23215 -10.22621 -10.22280
 Alpha  occ. eigenvalues --  -10.22254 -10.22232 -10.21908 -10.21546 -10.21388
 Alpha  occ. eigenvalues --  -10.21325 -10.21002 -10.19609 -10.19561 -10.19285
 Alpha  occ. eigenvalues --  -10.19164 -10.18913 -10.18791 -10.18716 -10.18407
 Alpha  occ. eigenvalues --  -10.18394 -10.18382 -10.17934 -10.17804 -10.17700
 Alpha  occ. eigenvalues --  -10.17626 -10.17305 -10.16680 -10.16217 -10.15899
 Alpha  occ. eigenvalues --  -10.15727 -10.15249  -1.79400  -1.11906  -1.10048
 Alpha  occ. eigenvalues --   -1.09184  -1.07251  -1.07014  -1.06746  -1.05647
 Alpha  occ. eigenvalues --   -1.05097  -1.04536  -1.04076  -1.03512  -1.03146
 Alpha  occ. eigenvalues --   -1.02743  -1.02663  -1.01379  -1.00849  -1.00442
 Alpha  occ. eigenvalues --   -1.00098  -0.99702  -0.99448  -0.99286  -0.98841
 Alpha  occ. eigenvalues --   -0.98035  -0.96869  -0.96468  -0.95947  -0.94457
 Alpha  occ. eigenvalues --   -0.93234  -0.92807  -0.92361  -0.91813  -0.91146
 Alpha  occ. eigenvalues --   -0.90462  -0.90205  -0.89916  -0.89471  -0.89146
 Alpha  occ. eigenvalues --   -0.88529  -0.88091  -0.87052  -0.86687  -0.86405
 Alpha  occ. eigenvalues --   -0.84058  -0.83639  -0.81773  -0.80656  -0.79894
 Alpha  occ. eigenvalues --   -0.79660  -0.78851  -0.78152  -0.77690  -0.76554
 Alpha  occ. eigenvalues --   -0.74790  -0.73862  -0.73593  -0.73073  -0.72856
 Alpha  occ. eigenvalues --   -0.72707  -0.71940  -0.71534  -0.71215  -0.71174
 Alpha  occ. eigenvalues --   -0.69872  -0.69515  -0.69459  -0.68914  -0.68065
 Alpha  occ. eigenvalues --   -0.67129  -0.66888  -0.66374  -0.65540  -0.64280
 Alpha  occ. eigenvalues --   -0.63300  -0.63155  -0.62766  -0.62699  -0.61992
 Alpha  occ. eigenvalues --   -0.61700  -0.61301  -0.60840  -0.60431  -0.60194
 Alpha  occ. eigenvalues --   -0.60188  -0.59211  -0.58974  -0.58400  -0.58014
 Alpha  occ. eigenvalues --   -0.57849  -0.57519  -0.57346  -0.57166  -0.56985
 Alpha  occ. eigenvalues --   -0.56476  -0.56245  -0.55907  -0.55782  -0.55630
 Alpha  occ. eigenvalues --   -0.55488  -0.54949  -0.54625  -0.54286  -0.54135
 Alpha  occ. eigenvalues --   -0.53736  -0.53691  -0.53252  -0.52587  -0.52253
 Alpha  occ. eigenvalues --   -0.52110  -0.51673  -0.50913  -0.50825  -0.50448
 Alpha  occ. eigenvalues --   -0.49942  -0.49585  -0.49371  -0.49104  -0.48873
 Alpha  occ. eigenvalues --   -0.48780  -0.48504  -0.48192  -0.47916  -0.47802
 Alpha  occ. eigenvalues --   -0.47693  -0.47287  -0.47191  -0.46624  -0.46568
 Alpha  occ. eigenvalues --   -0.46281  -0.46171  -0.46079  -0.45950  -0.45596
 Alpha  occ. eigenvalues --   -0.45480  -0.45397  -0.45300  -0.45235  -0.45062
 Alpha  occ. eigenvalues --   -0.44841  -0.44599  -0.44521  -0.44311  -0.44233
 Alpha  occ. eigenvalues --   -0.44003  -0.43926  -0.43715  -0.43639  -0.43399
 Alpha  occ. eigenvalues --   -0.43316  -0.42973  -0.42889  -0.42793  -0.42602
 Alpha  occ. eigenvalues --   -0.42510  -0.42273  -0.42203  -0.42093  -0.41687
 Alpha  occ. eigenvalues --   -0.41416  -0.41283  -0.41140  -0.40926  -0.40806
 Alpha  occ. eigenvalues --   -0.40754  -0.40661  -0.40529  -0.40493  -0.40391
 Alpha  occ. eigenvalues --   -0.40241  -0.40148  -0.40084  -0.39779  -0.39661
 Alpha  occ. eigenvalues --   -0.39592  -0.39539  -0.39396  -0.39165  -0.39090
 Alpha  occ. eigenvalues --   -0.38872  -0.38633  -0.38537  -0.38454  -0.38422
 Alpha  occ. eigenvalues --   -0.38036  -0.37966  -0.37845  -0.37818  -0.37446
 Alpha  occ. eigenvalues --   -0.37429  -0.37163  -0.36991  -0.36899  -0.36696
 Alpha  occ. eigenvalues --   -0.36607  -0.36293  -0.36174  -0.36030  -0.35745
 Alpha  occ. eigenvalues --   -0.35501  -0.35479  -0.35370  -0.35283  -0.35173
 Alpha  occ. eigenvalues --   -0.34990  -0.34655  -0.34620  -0.34423  -0.34043
 Alpha  occ. eigenvalues --   -0.33944  -0.33717  -0.33577  -0.33478  -0.33247
 Alpha  occ. eigenvalues --   -0.32780  -0.32770  -0.32662  -0.32546  -0.32176
 Alpha  occ. eigenvalues --   -0.31948  -0.31686  -0.31533  -0.31504  -0.31121
 Alpha  occ. eigenvalues --   -0.30425  -0.30306  -0.29677  -0.28532  -0.28337
 Alpha  occ. eigenvalues --   -0.28050  -0.27915  -0.27638  -0.27561  -0.26846
 Alpha  occ. eigenvalues --   -0.26358  -0.26178  -0.25544  -0.25457  -0.25234
 Alpha  occ. eigenvalues --   -0.25208  -0.25125  -0.24524  -0.24393  -0.24146
 Alpha  occ. eigenvalues --   -0.24053  -0.23943  -0.23790  -0.23334  -0.22488
 Alpha  occ. eigenvalues --   -0.22450  -0.22336  -0.22197  -0.21981  -0.21743
 Alpha  occ. eigenvalues --   -0.21291  -0.20873  -0.20444  -0.20040  -0.19643
 Alpha  occ. eigenvalues --   -0.19358  -0.18854  -0.17097
 Alpha virt. eigenvalues --   -0.08979  -0.05003  -0.03092  -0.03020  -0.02103
 Alpha virt. eigenvalues --   -0.01986  -0.01626  -0.00488  -0.00234  -0.00101
 Alpha virt. eigenvalues --    0.00687   0.00764   0.00942   0.01075   0.01901

 Mulliken charges:
               1
     1  C    0.073344
     2  C    0.024132
     3  O   -0.336386
     4  H    0.015190
     5  H    0.012153
     6  H    0.048796
     7  N   -0.106920
     8  C    0.061795
     9  C    0.071754
    10  O   -0.285327
    11  C    0.118442
    12  C    0.073065
    13  O   -0.456071
    14  O   -0.365114
    15  H    0.116550
    16  H    0.021156
    17  H    0.003504
    18  H   -0.005893
    19  N   -0.152741
    20  C    0.122519
    21  C    0.105094
    22  O   -0.301691
    23  C    0.039996
    24  C    0.048229
    25  C   -0.050082
    26  C    0.021132
    27  N    0.081229
    28  H    0.161208
    29  H   -0.012461
    30  H   -0.011978
    31  H    0.000070
    32  H    0.001599
    33  H    0.052640
    34  H    0.037151
    35  H    0.002117
    36  H    0.056709
    37  H    0.093113
    38  H    0.193577
    39  H    0.173805
    40  H    0.193240
    41  N   -0.135639
    42  C    0.093512
    43  C    0.067352
    44  O   -0.289378
    45  C    0.096957
    46  C    0.070602
    47  O   -0.454230
    48  O   -0.387581
    49  H    0.137110
    50  H    0.003407
    51  H    0.000618
    52  H    0.019967
    53  N   -0.151565
    54  C    0.228453
    55  C   -0.008821
    56  O   -0.290967
    57  H    0.146205
    58  H    0.034627
    59  H    0.031901
    60  N   -0.182221
    61  C    0.135977
    62  C    0.053120
    63  O   -0.279091
    64  C    0.056459
    65  C    0.104906
    66  N   -0.025905
    67  O   -0.358467
    68  H    0.156224
    69  H    0.028603
    70  H    0.071275
    71  H    0.014455
    72  H    0.139042
    73  H    0.112662
    74  N   -0.130952
    75  C    0.206505
    76  C    0.046869
    77  O   -0.298451
    78  H    0.136576
    79  H    0.038203
    80  H    0.043271
    81  N   -0.117751
    82  C    0.079100
    83  C    0.121482
    84  O   -0.322897
    85  C    0.129202
    86  C   -0.006197
    87  C    0.045135
    88  C    0.003027
    89  C   -0.001703
    90  C   -0.067321
    91  C    0.187189
    92  O   -0.179557
    93  H    0.156015
    94  H    0.014536
    95  H    0.010811
    96  H   -0.076274
    97  H   -0.105524
    98  H   -0.014373
    99  H   -0.037293
   100  H   -0.039734
   101  H    0.168771
   102  N   -0.120099
   103  C    0.144173
   104  C    0.056293
   105  O   -0.284046
   106  C   -0.094246
   107  C    0.035804
   108  C    0.102367
   109  C   -0.010776
   110  H    0.118376
   111  H    0.030741
   112  H   -0.026920
   113  H   -0.012366
   114  H   -0.011478
   115  H    0.017460
   116  H   -0.001472
   117  H   -0.005287
   118  H   -0.002245
   119  H    0.017682
   120  H    0.040070
   121  N   -0.151671
   122  C    0.077265
   123  C    0.077097
   124  O   -0.273022
   125  C    0.244736
   126  O   -0.307644
   127  H    0.157042
   128  H    0.006083
   129  H   -0.013378
   130  H    0.039545
   131  H    0.192420
   132  N   -0.110925
   133  C    0.087965
   134  C    0.061387
   135  O   -0.242376
   136  C    0.031851
   137  H    0.117338
   138  H    0.033740
   139  H    0.055494
   140  H    0.025310
   141  H   -0.014496
   142  N   -0.141980
   143  C    0.088721
   144  C    0.078279
   145  O   -0.265493
   146  C    0.030340
   147  H    0.097052
   148  H    0.023679
   149  H   -0.000588
   150  H    0.041400
   151  H    0.009677
   152  N   -0.172390
   153  C    0.134134
   154  C    0.026573
   155  O   -0.289431
   156  C    0.003695
   157  C    0.075012
   158  C    0.141426
   159  O   -0.423911
   160  O   -0.428113
   161  H    0.121715
   162  H    0.001040
   163  H    0.027169
   164  H    0.020975
   165  H   -0.008813
   166  H    0.041396
   167  N   -0.163107
   168  C    0.133924
   169  H    0.026209
   170  H    0.033127
   171  H    0.007515
   172  H    0.134169
   173  Ca   1.313136
   174  O   -0.299647
   175  H    0.168187
   176  H    0.160254
 Sum of Mulliken charges =  -0.00000

 Dipole moment (field-independent basis, Debye):
    X=             28.8756    Y=             -1.4988    Z=            -14.4254  Tot=             32.3131
 Quadrupole moment (field-independent basis, Debye-Ang):
   XX=           -601.5721   YY=           -461.4356   ZZ=           -516.9799
   XY=            161.6950   XZ=            -70.3353   YZ=             33.2489

 ESP charges:
               1
     1  C   -0.449770
     2  C    0.765105
     3  O   -0.627129
     4  H    0.127896
     5  H    0.105342
     6  H    0.131442
     7  N   -0.711419
     8  C    0.294122
     9  C    0.635660
    10  O   -0.574867
    11  C   -0.576097
    12  C    1.008410
    13  O   -0.867057
    14  O   -0.741401
    15  H    0.358254
    16  H    0.036607
    17  H    0.155366
    18  H    0.120547
    19  N   -0.461948
    20  C   -0.064280
    21  C    0.650129
    22  O   -0.588706
    23  C    0.051614
    24  C   -0.017528
    25  C    0.015136
    26  C    0.240305
    27  N   -0.446317
    28  H    0.379226
    29  H    0.073081
    30  H    0.002408
    31  H    0.000494
    32  H    0.027238
    33  H   -0.018745
    34  H    0.029971
    35  H   -0.022136
    36  H    0.028377
    37  H    0.032733
    38  H    0.346316
    39  H    0.311263
    40  H    0.349074
    41  N   -0.372155
    42  C    0.139557
    43  C    0.384034
    44  O   -0.546413
    45  C   -0.291568
    46  C    0.668029
    47  O   -0.572695
    48  O   -0.739538
    49  H    0.063263
    50  H    0.062262
    51  H    0.075244
    52  H    0.117116
    53  N   -0.052470
    54  C   -0.319662
    55  C    0.695271
    56  O   -0.597742
    57  H    0.180507
    58  H    0.144113
    59  H    0.119936
    60  N   -0.426967
    61  C   -0.048091
    62  C    0.277797
    63  O   -0.420614
    64  C   -0.527173
    65  C    0.957493
    66  N   -0.756850
    67  O   -0.786574
    68  H    0.231553
    69  H    0.180030
    70  H    0.247391
    71  H    0.139920
    72  H    0.355980
    73  H    0.344491
    74  N   -0.029198
    75  C   -0.518564
    76  C    0.730026
    77  O   -0.587497
    78  H    0.216108
    79  H    0.191982
    80  H    0.195897
    81  N   -0.543597
    82  C    0.377060
    83  C    0.486573
    84  O   -0.568660
    85  C   -0.234645
    86  C    0.160824
    87  C   -0.259651
    88  C   -0.198250
    89  C   -0.205913
    90  C   -0.294695
    91  C    0.338642
    92  O   -0.513717
    93  H    0.327525
    94  H   -0.018431
    95  H    0.050251
    96  H    0.080442
    97  H    0.138983
    98  H    0.171420
    99  H    0.152317
   100  H    0.146695
   101  H    0.395480
   102  N   -0.651104
   103  C    0.416898
   104  C    0.367634
   105  O   -0.541294
   106  C   -0.024661
   107  C    0.035003
   108  C   -0.243900
   109  C    0.035998
   110  H    0.312427
   111  H    0.111695
   112  H   -0.005299
   113  H   -0.001062
   114  H   -0.002956
   115  H    0.102652
   116  H    0.076537
   117  H   -0.129881
   118  H   -0.005379
   119  H    0.007933
   120  H   -0.029639
   121  N   -0.155942
   122  C    0.066489
   123  C    0.444719
   124  O   -0.319365
   125  C    0.124678
   126  O   -0.639631
   127  H    0.175560
   128  H    0.044865
   129  H    0.050639
   130  H    0.078490
   131  H    0.426452
   132  N   -0.487449
   133  C    0.226974
   134  C    0.435585
   135  O   -0.505009
   136  C   -0.383651
   137  H    0.288777
   138  H    0.073383
   139  H    0.146402
   140  H    0.114075
   141  H    0.071045
   142  N   -0.352237
   143  C    0.177505
   144  C    0.360453
   145  O   -0.511918
   146  C   -0.273941
   147  H    0.222532
   148  H    0.062669
   149  H    0.028589
   150  H    0.113528
   151  H    0.072841
   152  N    0.059153
   153  C   -0.327426
   154  C    0.616923
   155  O   -0.584816
   156  C    0.295056
   157  C   -0.118955
   158  C    0.708413
   159  O   -0.767083
   160  O   -0.664226
   161  H   -0.115277
   162  H    0.118421
   163  H   -0.010286
   164  H   -0.117389
   165  H   -0.001116
   166  H    0.052465
   167  N   -0.104460
   168  C   -0.250594
   169  H    0.106739
   170  H    0.111899
   171  H    0.075978
   172  H    0.133905
   173  Ca   1.614366
   174  O   -0.992688
   175  H    0.436760
   176  H    0.493933
 Sum of ESP charges =   0.00000

 Normal termination of Gaussian 16 at Sat Sep 14 22:40:17 2019.
