 Gaussian 16, Revision A.03,
 Gaussian 16:  ES64L-G16RevA.03 25-Dec-2016

 ----------------------------------------------------------------------
 #b3lyp/svp scf=(tight,noincore) Test #IOP(5/87=12) Density=Current Pop
 =(MK,readradii) iop(6/33=2) iop(6/42=6)
 ----------------------------------------------------------------------

 ------------------
 holoCaM_loop3_90.0
 ------------------
 Symbolic Z-matrix:
 Charge =  0 Multiplicity = 1

                         Standard orientation:
 ---------------------------------------------------------------------
 Center     Atomic      Atomic             Coordinates (Angstroms)
 Number     Number       Type             X           Y           Z
 ---------------------------------------------------------------------
      1          6           0       -1.181497   -2.905480    6.380122
      2          6           0       -1.142758   -2.441744    4.932418
      3          8           0       -2.178281   -2.451052    4.264580
      4          1           0       -1.987425   -3.627745    6.508656
      5          1           0       -0.231102   -3.372472    6.638556
      6          1           0       -1.354809   -2.049536    7.032049
      7          7           0        0.046389   -2.060974    4.469231
      8          6           0        0.380935   -1.873684    3.069230
      9          6           0        0.419834   -3.188267    2.312092
     10          8           0        1.005051   -4.121116    2.871926
     11          6           0        1.733061   -1.159890    3.062040
     12          6           0        2.313711   -0.858427    1.684337
     13          8           0        2.036810   -1.625579    0.739612
     14          8           0        3.021740    0.149776    1.488832
     15          1           0        0.766529   -2.089172    5.177400
     16          1           0       -0.309967   -1.174634    2.581292
     17          1           0        2.400517   -1.844769    3.565771
     18          1           0        1.584896   -0.227402    3.613595
     19          7           0       -0.155501   -3.380579    1.130311
     20          6           0       -0.134229   -4.599106    0.349454
     21          6           0        1.242986   -5.226416    0.196277
     22          8           0        1.485070   -6.390037    0.536101
     23          6           0       -0.727301   -4.374950   -1.042422
     24          6           0       -0.717392   -5.602885   -1.945682
     25          6           0       -1.042251   -5.309182   -3.407019
     26          6           0       -0.889162   -6.469716   -4.392476
     27          7           0        0.461936   -7.051636   -4.422536
     28          1           0       -0.420971   -2.474263    0.765048
     29          1           0       -0.710466   -5.354413    0.880926
     30          1           0       -0.184169   -3.620060   -1.610004
     31          1           0       -1.768618   -4.069992   -0.905460
     32          1           0       -1.279443   -6.433237   -1.509430
     33          1           0        0.320286   -5.942719   -2.056751
     34          1           0       -0.415112   -4.490854   -3.742182
     35          1           0       -2.095118   -5.041876   -3.519353
     36          1           0       -1.102910   -6.130159   -5.413413
     37          1           0       -1.616076   -7.221716   -4.093996
     38          1           0        0.771448   -7.548886   -3.592810
     39          1           0        0.363489   -7.731602   -5.155239
     40          1           0        1.158218   -6.387155   -4.719615
     41          7           0        2.182805   -4.420844   -0.309089
     42          6           0        3.506735   -4.805831   -0.765152
     43          6           0        4.621905   -4.326734    0.156565
     44          8           0        5.801443   -4.509854   -0.125141
     45          6           0        3.560997   -4.386685   -2.232113
     46          6           0        2.915882   -3.108701   -2.741017
     47          8           0        2.363887   -3.152828   -3.862826
     48          8           0        2.962921   -2.032933   -2.104220
     49          1           0        1.973673   -3.453754   -0.499616
     50          1           0        3.629679   -5.883368   -0.793425
     51          1           0        3.179888   -5.187872   -2.870435
     52          1           0        4.627663   -4.404928   -2.462090
     53          7           0        4.219719   -3.604766    1.203755
     54          6           0        5.067795   -2.932175    2.163176
     55          6           0        5.816387   -1.759631    1.557492
     56          8           0        6.850588   -1.410827    2.134002
     57          1           0        3.225754   -3.395729    1.237487
     58          1           0        5.750375   -3.615359    2.675176
     59          1           0        4.594116   -2.512211    3.052309
     60          7           0        5.488998   -1.265404    0.362019
     61          6           0        6.295797   -0.313046   -0.377568
     62          6           0        6.481196    1.053868    0.273027
     63          8           0        7.302124    1.794419   -0.255519
     64          6           0        5.841207   -0.340699   -1.838110
     65          6           0        4.851060    0.747936   -2.233437
     66          7           0        5.133527    1.565263   -3.244026
     67          8           0        3.825610    0.917387   -1.577740
     68          1           0        4.527106   -1.443060    0.138184
     69          1           0        7.310735   -0.699335   -0.461714
     70          1           0        5.466121   -1.320228   -2.136494
     71          1           0        6.639608    0.028685   -2.491264
     72          1           0        6.011713    1.480882   -3.732462
     73          1           0        4.422389    2.120109   -3.689591
     74          7           0        5.856522    1.305784    1.424383
     75          6           0        5.783348    2.656028    1.946673
     76          6           0        4.651940    3.597551    1.549623
     77          8           0        4.731925    4.792899    1.811434
     78          1           0        5.160149    0.673244    1.787643
     79          1           0        6.736130    3.127814    1.715751
     80          1           0        5.724553    2.642627    3.036473
     81          7           0        3.500784    3.065727    1.115682
     82          6           0        2.333076    3.784612    0.649245
     83          6           0        1.107136    2.917118    0.880384
     84          8           0        1.081352    1.752529    0.513140
     85          6           0        2.381242    4.125570   -0.838917
     86          6           0        3.364010    5.224576   -1.132265
     87          6           0        4.446992    4.884920   -1.955056
     88          6           0        3.172143    6.565686   -0.777989
     89          6           0        5.406390    5.846388   -2.286316
     90          6           0        4.100954    7.548755   -1.142383
     91          6           0        5.222784    7.192926   -1.911983
     92          8           0        6.138392    8.186718   -2.109312
     93          1           0        3.452555    2.062883    1.082855
     94          1           0        2.113573    4.704171    1.188809
     95          1           0        1.407127    4.552736   -1.091762
     96          1           0        2.439413    3.231410   -1.463493
     97          1           0        4.627559    3.855420   -2.219489
     98          1           0        2.363715    6.967900   -0.179936
     99          1           0        6.318171    5.684199   -2.832348
    100          1           0        3.891844    8.569685   -0.823988
    101          1           0        5.843788    9.008933   -1.726859
    102          7           0        0.027529    3.573169    1.341951
    103          6           0       -1.266205    2.917618    1.339243
    104          6           0       -2.193926    3.618649    0.364980
    105          8           0       -2.274676    4.848999    0.369421
    106          6           0       -1.683726    2.803816    2.803390
    107          6           0       -0.928225    1.670600    3.491897
    108          6           0       -3.190671    2.609404    2.963138
    109          6           0       -1.269725    1.518985    4.969865
    110          1           0        0.003287    4.522586    1.663384
    111          1           0       -1.187839    1.900486    0.968971
    112          1           0       -1.473623    3.746228    3.314385
    113          1           0        0.124931    1.927605    3.387442
    114          1           0       -1.180875    0.730780    2.997725
    115          1           0       -3.424202    2.484111    4.020571
    116          1           0       -3.832743    3.412295    2.606474
    117          1           0       -3.413042    1.662325    2.463445
    118          1           0       -0.465353    1.006971    5.490082
    119          1           0       -1.260676    2.497065    5.454302
    120          1           0       -2.156775    0.903715    5.097871
    121          7           0       -2.951838    2.816207   -0.382051
    122          6           0       -3.936095    3.150395   -1.383329
    123          6           0       -5.337673    3.018427   -0.800263
    124          8           0       -5.542554    2.238983    0.133220
    125          6           0       -3.668049    2.312173   -2.632983
    126          8           0       -3.915962    0.956565   -2.373432
    127          1           0       -2.783795    1.839577   -0.186976
    128          1           0       -3.849868    4.186441   -1.729123
    129          1           0       -2.620237    2.539485   -2.782044
    130          1           0       -4.310910    2.642779   -3.459802
    131          1           0       -3.193429    0.650663   -1.830413
    132          7           0       -6.362355    3.515637   -1.494963
    133          6           0       -7.751268    3.249924   -1.209977
    134          6           0       -8.092725    1.773701   -1.322987
    135          8           0       -9.019061    1.296022   -0.667605
    136          6           0       -8.631205    4.140413   -2.080690
    137          1           0       -6.091986    3.986592   -2.351994
    138          1           0       -7.893593    3.567586   -0.180349
    139          1           0       -9.668499    3.813828   -1.978896
    140          1           0       -8.627393    5.176626   -1.719514
    141          1           0       -8.362358    4.052300   -3.134805
    142          7           0       -7.315730    1.034225   -2.120955
    143          6           0       -7.449164   -0.393572   -2.297848
    144          6           0       -6.853606   -1.177557   -1.134414
    145          8           0       -7.456578   -2.201100   -0.813500
    146          6           0       -6.861005   -0.885725   -3.623426
    147          1           0       -6.526585    1.434863   -2.594283
    148          1           0       -8.497913   -0.697623   -2.252277
    149          1           0       -7.114926   -1.943223   -3.716287
    150          1           0       -7.308954   -0.277728   -4.416131
    151          1           0       -5.777278   -0.770090   -3.682273
    152          7           0       -5.905036   -0.604281   -0.398909
    153          6           0       -5.334338   -1.252839    0.758060
    154          6           0       -6.015469   -0.926982    2.082174
    155          8           0       -5.923821   -1.673548    3.059128
    156          6           0       -3.865607   -0.859044    0.869210
    157          6           0       -2.998499   -1.521381   -0.206119
    158          6           0       -1.760169   -0.691809   -0.536799
    159          8           0       -0.595612   -1.115555   -0.403204
    160          8           0       -1.889952    0.444743   -1.040195
    161          1           0       -5.406754    0.148782   -0.847809
    162          1           0       -5.268162   -2.334219    0.604637
    163          1           0       -3.427621   -1.124976    1.827724
    164          1           0       -3.839475    0.216068    0.722067
    165          1           0       -3.679885   -1.569543   -1.054172
    166          1           0       -2.765120   -2.503084    0.172819
    167          7           0       -6.812710    0.142457    2.136089
    168          6           0       -7.549134    0.572107    3.310304
    169          1           0       -8.617353    0.549178    3.096866
    170          1           0       -7.331408   -0.098320    4.141435
    171          1           0       -7.253572    1.588165    3.573722
    172          1           0       -6.719208    0.905943    1.482142
    173         20           0        1.435805   -0.207123   -1.450817
    174          8           0        0.346542   -1.656371   -3.382056
    175          1           0       -0.345620   -1.890035   -3.991000
    176          1           0        1.054587   -2.279683   -3.569818
 ---------------------------------------------------------------------

 SCF Done:  E(RB3LYP) =  -5333.59685828     A.U. after   20 cycles

 The electronic state is 1-A.
 Alpha  occ. eigenvalues -- -145.40969 -19.16019 -19.15008 -19.13182 -19.13057
 Alpha  occ. eigenvalues --  -19.11932 -19.11898 -19.10854 -19.10709 -19.10669
 Alpha  occ. eigenvalues --  -19.10069 -19.09322 -19.09069 -19.08706 -19.07707
 Alpha  occ. eigenvalues --  -19.07317 -19.07231 -19.07049 -19.06742 -19.06442
 Alpha  occ. eigenvalues --  -19.06146 -19.05995 -19.05878 -19.04993 -15.46697
 Alpha  occ. eigenvalues --  -14.58259 -14.38664 -14.38074 -14.36388 -14.35618
 Alpha  occ. eigenvalues --  -14.34877 -14.34396 -14.33574 -14.33426 -14.33180
 Alpha  occ. eigenvalues --  -14.32714 -14.32545 -14.32211 -14.32190 -14.31034
 Alpha  occ. eigenvalues --  -12.60320 -12.60279 -12.60247 -10.35468 -10.31764
 Alpha  occ. eigenvalues --  -10.30186 -10.29874 -10.29779 -10.29624 -10.28309
 Alpha  occ. eigenvalues --  -10.27778 -10.27431 -10.27249 -10.26541 -10.26076
 Alpha  occ. eigenvalues --  -10.25946 -10.25868 -10.25749 -10.25738 -10.25413
 Alpha  occ. eigenvalues --  -10.25348 -10.25140 -10.24783 -10.24710 -10.24527
 Alpha  occ. eigenvalues --  -10.24283 -10.23957 -10.23319 -10.23211 -10.22815
 Alpha  occ. eigenvalues --  -10.22544 -10.22246 -10.21998 -10.21885 -10.21835
 Alpha  occ. eigenvalues --  -10.21029 -10.21023 -10.20930 -10.20893 -10.20168
 Alpha  occ. eigenvalues --  -10.19954 -10.19310 -10.19077 -10.19011 -10.18395
 Alpha  occ. eigenvalues --  -10.18375 -10.18357 -10.18265 -10.18173 -10.17916
 Alpha  occ. eigenvalues --  -10.17882 -10.17816 -10.17595 -10.17094 -10.16966
 Alpha  occ. eigenvalues --  -10.16330 -10.15981  -1.83498  -1.13783  -1.11099
 Alpha  occ. eigenvalues --   -1.10859  -1.10766  -1.06560  -1.05973  -1.05695
 Alpha  occ. eigenvalues --   -1.05373  -1.04879  -1.03900  -1.02744  -1.02399
 Alpha  occ. eigenvalues --   -1.02201  -1.01935  -1.01665  -1.01518  -1.00806
 Alpha  occ. eigenvalues --   -1.00501  -1.00350  -1.00089  -0.99371  -0.99050
 Alpha  occ. eigenvalues --   -0.99004  -0.97983  -0.95576  -0.95027  -0.94899
 Alpha  occ. eigenvalues --   -0.93539  -0.93288  -0.92348  -0.92266  -0.92196
 Alpha  occ. eigenvalues --   -0.91259  -0.90607  -0.90504  -0.90290  -0.89956
 Alpha  occ. eigenvalues --   -0.89646  -0.89189  -0.88750  -0.88581  -0.87015
 Alpha  occ. eigenvalues --   -0.83936  -0.82457  -0.81336  -0.80397  -0.79309
 Alpha  occ. eigenvalues --   -0.78716  -0.78292  -0.78100  -0.77416  -0.77193
 Alpha  occ. eigenvalues --   -0.76355  -0.75955  -0.73822  -0.73386  -0.73058
 Alpha  occ. eigenvalues --   -0.72673  -0.72080  -0.71844  -0.71760  -0.70581
 Alpha  occ. eigenvalues --   -0.70518  -0.68987  -0.68830  -0.68214  -0.67675
 Alpha  occ. eigenvalues --   -0.66790  -0.66540  -0.66399  -0.64962  -0.64858
 Alpha  occ. eigenvalues --   -0.64298  -0.63329  -0.62890  -0.62050  -0.61661
 Alpha  occ. eigenvalues --   -0.61659  -0.60983  -0.60730  -0.60594  -0.60025
 Alpha  occ. eigenvalues --   -0.59975  -0.58804  -0.58522  -0.57919  -0.57804
 Alpha  occ. eigenvalues --   -0.57466  -0.57320  -0.56694  -0.56673  -0.56597
 Alpha  occ. eigenvalues --   -0.56182  -0.55884  -0.55785  -0.55625  -0.55461
 Alpha  occ. eigenvalues --   -0.55056  -0.54707  -0.54520  -0.54327  -0.54243
 Alpha  occ. eigenvalues --   -0.53672  -0.53208  -0.52847  -0.52685  -0.52365
 Alpha  occ. eigenvalues --   -0.52231  -0.51398  -0.51155  -0.50588  -0.50321
 Alpha  occ. eigenvalues --   -0.49898  -0.49527  -0.49474  -0.49023  -0.48944
 Alpha  occ. eigenvalues --   -0.48814  -0.48492  -0.48388  -0.48363  -0.48098
 Alpha  occ. eigenvalues --   -0.47746  -0.47698  -0.47559  -0.47156  -0.46742
 Alpha  occ. eigenvalues --   -0.46707  -0.46486  -0.46288  -0.46271  -0.45964
 Alpha  occ. eigenvalues --   -0.45718  -0.45436  -0.45358  -0.45268  -0.45089
 Alpha  occ. eigenvalues --   -0.44841  -0.44740  -0.44641  -0.44580  -0.44305
 Alpha  occ. eigenvalues --   -0.43827  -0.43591  -0.43509  -0.43436  -0.43331
 Alpha  occ. eigenvalues --   -0.43039  -0.43033  -0.42886  -0.42784  -0.42576
 Alpha  occ. eigenvalues --   -0.42419  -0.42308  -0.42232  -0.41958  -0.41945
 Alpha  occ. eigenvalues --   -0.41826  -0.41613  -0.41508  -0.41459  -0.41176
 Alpha  occ. eigenvalues --   -0.41032  -0.40872  -0.40617  -0.40492  -0.40365
 Alpha  occ. eigenvalues --   -0.40308  -0.40277  -0.40102  -0.39890  -0.39850
 Alpha  occ. eigenvalues --   -0.39717  -0.39616  -0.39383  -0.39301  -0.39119
 Alpha  occ. eigenvalues --   -0.38983  -0.38803  -0.38680  -0.38636  -0.38377
 Alpha  occ. eigenvalues --   -0.38231  -0.38181  -0.38157  -0.37910  -0.37786
 Alpha  occ. eigenvalues --   -0.37620  -0.37173  -0.37139  -0.36875  -0.36800
 Alpha  occ. eigenvalues --   -0.36691  -0.36633  -0.36577  -0.36170  -0.36141
 Alpha  occ. eigenvalues --   -0.35899  -0.35749  -0.35601  -0.35343  -0.35273
 Alpha  occ. eigenvalues --   -0.35096  -0.34904  -0.34874  -0.34766  -0.34507
 Alpha  occ. eigenvalues --   -0.34349  -0.34149  -0.33807  -0.33283  -0.33254
 Alpha  occ. eigenvalues --   -0.33135  -0.32827  -0.32515  -0.32283  -0.32155
 Alpha  occ. eigenvalues --   -0.32104  -0.31502  -0.31238  -0.31150  -0.30043
 Alpha  occ. eigenvalues --   -0.29515  -0.29065  -0.28694  -0.28593  -0.28387
 Alpha  occ. eigenvalues --   -0.28212  -0.27794  -0.27665  -0.27614  -0.27052
 Alpha  occ. eigenvalues --   -0.26991  -0.26642  -0.26354  -0.26050  -0.25667
 Alpha  occ. eigenvalues --   -0.25603  -0.25266  -0.25173  -0.24992  -0.24792
 Alpha  occ. eigenvalues --   -0.24700  -0.24641  -0.24496  -0.24237  -0.23902
 Alpha  occ. eigenvalues --   -0.23401  -0.23190  -0.22695  -0.22413  -0.22246
 Alpha  occ. eigenvalues --   -0.22104  -0.21958  -0.21730  -0.21581  -0.21339
 Alpha  occ. eigenvalues --   -0.20950  -0.20668  -0.20631
 Alpha virt. eigenvalues --   -0.10133  -0.04618  -0.04325  -0.03312  -0.01471
 Alpha virt. eigenvalues --   -0.01168  -0.00967  -0.00656   0.00075   0.00946
 Alpha virt. eigenvalues --    0.01037   0.01256   0.01392   0.01619   0.01673

 Mulliken charges:
               1
     1  C    0.040913
     2  C    0.017351
     3  O   -0.278523
     4  H    0.041605
     5  H    0.009740
     6  H    0.033653
     7  N   -0.100833
     8  C    0.125481
     9  C    0.054931
    10  O   -0.317727
    11  C    0.060028
    12  C    0.115761
    13  O   -0.457096
    14  O   -0.364300
    15  H    0.115560
    16  H   -0.010030
    17  H    0.005291
    18  H    0.020792
    19  N   -0.102020
    20  C    0.200540
    21  C    0.034110
    22  O   -0.269774
    23  C    0.016837
    24  C   -0.008831
    25  C   -0.000509
    26  C    0.012596
    27  N    0.072582
    28  H    0.160802
    29  H    0.000034
    30  H   -0.013509
    31  H    0.018962
    32  H    0.020946
    33  H   -0.030501
    34  H    0.001999
    35  H    0.041182
    36  H    0.070126
    37  H    0.073916
    38  H    0.209329
    39  H    0.183588
    40  H    0.202264
    41  N   -0.205466
    42  C    0.148832
    43  C    0.060207
    44  O   -0.275097
    45  C    0.104487
    46  C    0.124568
    47  O   -0.405412
    48  O   -0.455503
    49  H    0.169614
    50  H    0.006013
    51  H   -0.073661
    52  H    0.024199
    53  N   -0.160615
    54  C    0.236010
    55  C   -0.015400
    56  O   -0.299030
    57  H    0.167343
    58  H    0.030717
    59  H    0.024601
    60  N   -0.150131
    61  C    0.180678
    62  C    0.055845
    63  O   -0.291575
    64  C    0.101880
    65  C    0.042830
    66  N   -0.024804
    67  O   -0.354890
    68  H    0.139490
    69  H    0.035370
    70  H    0.065071
    71  H   -0.018997
    72  H    0.135132
    73  H    0.133996
    74  N   -0.116696
    75  C    0.177956
    76  C    0.037794
    77  O   -0.292123
    78  H    0.144799
    79  H    0.037391
    80  H    0.030306
    81  N   -0.142556
    82  C    0.137772
    83  C    0.123035
    84  O   -0.331804
    85  C    0.164284
    86  C    0.038612
    87  C   -0.003577
    88  C    0.006290
    89  C   -0.003334
    90  C   -0.060544
    91  C    0.155459
    92  O   -0.192573
    93  H    0.140103
    94  H   -0.016133
    95  H   -0.012511
    96  H   -0.052258
    97  H   -0.058233
    98  H   -0.036502
    99  H   -0.034935
   100  H   -0.042109
   101  H    0.168880
   102  N   -0.132416
   103  C    0.128785
   104  C    0.052847
   105  O   -0.293617
   106  C   -0.107163
   107  C   -0.021337
   108  C    0.077749
   109  C    0.048516
   110  H    0.132544
   111  H    0.008293
   112  H   -0.025392
   113  H    0.009655
   114  H    0.027170
   115  H    0.003589
   116  H    0.020796
   117  H   -0.006280
   118  H   -0.016010
   119  H   -0.001268
   120  H    0.042788
   121  N   -0.120025
   122  C    0.056194
   123  C    0.096735
   124  O   -0.284555
   125  C    0.261219
   126  O   -0.336230
   127  H    0.139596
   128  H    0.006984
   129  H    0.008076
   130  H   -0.012734
   131  H    0.168120
   132  N   -0.136056
   133  C    0.103376
   134  C    0.071662
   135  O   -0.264686
   136  C    0.039914
   137  H    0.114683
   138  H    0.024694
   139  H    0.037707
   140  H    0.033924
   141  H    0.004837
   142  N   -0.130820
   143  C    0.085030
   144  C    0.041099
   145  O   -0.278973
   146  C    0.036087
   147  H    0.107673
   148  H    0.027818
   149  H    0.029610
   150  H    0.008751
   151  H    0.009389
   152  N   -0.135490
   153  C    0.133483
   154  C    0.084658
   155  O   -0.275385
   156  C   -0.106697
   157  C    0.065631
   158  C    0.213243
   159  O   -0.449798
   160  O   -0.423956
   161  H    0.131859
   162  H    0.003256
   163  H    0.053968
   164  H    0.026331
   165  H    0.000630
   166  H    0.023544
   167  N   -0.160406
   168  C    0.114342
   169  H    0.024785
   170  H    0.037409
   171  H    0.007009
   172  H    0.131824
   173  Ca   1.359590
   174  O   -0.315764
   175  H    0.168826
   176  H    0.158396
 Sum of Mulliken charges =  -0.00000

 Dipole moment (field-independent basis, Debye):
    X=             -4.8145    Y=             -9.1811    Z=            -28.2110  Tot=             30.0555
 Quadrupole moment (field-independent basis, Debye-Ang):
   XX=           -742.8958   YY=           -436.2525   ZZ=           -451.3500
   XY=            -39.1813   XZ=             11.3532   YZ=            123.4559

 ESP charges:
               1
     1  C   -0.436981
     2  C    0.810951
     3  O   -0.594139
     4  H    0.136214
     5  H    0.088500
     6  H    0.107637
     7  N   -0.671375
     8  C   -0.111983
     9  C    0.791097
    10  O   -0.547995
    11  C   -0.430806
    12  C    0.909444
    13  O   -0.674243
    14  O   -0.827514
    15  H    0.365407
    16  H    0.084624
    17  H    0.151245
    18  H    0.126176
    19  N   -0.607939
    20  C    0.306637
    21  C    0.186172
    22  O   -0.516834
    23  C   -0.261058
    24  C    0.093470
    25  C   -0.042629
    26  C    0.046731
    27  N   -0.289407
    28  H    0.246318
    29  H    0.054009
    30  H    0.034808
    31  H    0.095317
    32  H    0.023918
    33  H   -0.056664
    34  H    0.017001
    35  H    0.048178
    36  H    0.074592
    37  H    0.069002
    38  H    0.328465
    39  H    0.292313
    40  H    0.321240
    41  N    0.162765
    42  C   -0.034800
    43  C    0.493253
    44  O   -0.543968
    45  C   -0.095574
    46  C    0.741299
    47  O   -0.688340
    48  O   -0.713205
    49  H   -0.006583
    50  H    0.080361
    51  H   -0.032123
    52  H    0.054738
    53  N   -0.348715
    54  C    0.021134
    55  C    0.462068
    56  O   -0.585370
    57  H    0.153180
    58  H    0.101965
    59  H    0.055549
    60  N   -0.181511
    61  C   -0.020783
    62  C    0.507187
    63  O   -0.532082
    64  C   -0.283882
    65  C    0.699666
    66  N   -0.812164
    67  O   -0.615710
    68  H    0.142834
    69  H    0.130287
    70  H    0.137249
    71  H    0.060799
    72  H    0.394214
    73  H    0.360076
    74  N   -0.215709
    75  C   -0.294321
    76  C    0.772491
    77  O   -0.581709
    78  H    0.263975
    79  H    0.127525
    80  H    0.113687
    81  N   -0.928727
    82  C    0.681507
    83  C    0.592960
    84  O   -0.629774
    85  C   -0.373776
    86  C    0.512468
    87  C   -0.628327
    88  C   -0.410935
    89  C    0.014892
    90  C   -0.099132
    91  C    0.185812
    92  O   -0.518335
    93  H    0.509693
    94  H   -0.069325
    95  H    0.026314
    96  H    0.067677
    97  H    0.299433
    98  H    0.179025
    99  H    0.107959
   100  H    0.107746
   101  H    0.401163
   102  N   -0.837219
   103  C    0.377182
   104  C    0.580402
   105  O   -0.595695
   106  C   -0.195853
   107  C    0.392852
   108  C   -0.107070
   109  C   -0.426157
   110  H    0.381103
   111  H   -0.058322
   112  H    0.053140
   113  H   -0.027589
   114  H    0.042064
   115  H    0.043599
   116  H    0.058282
   117  H   -0.052004
   118  H    0.080851
   119  H    0.086891
   120  H    0.117230
   121  N   -0.242745
   122  C   -0.022370
   123  C    0.489943
   124  O   -0.442578
   125  C    0.097077
   126  O   -0.524178
   127  H    0.084873
   128  H    0.054151
   129  H    0.049095
   130  H    0.032718
   131  H    0.338073
   132  N   -0.467001
   133  C    0.112247
   134  C    0.524158
   135  O   -0.537453
   136  C   -0.361042
   137  H    0.286818
   138  H    0.107604
   139  H    0.125337
   140  H    0.116720
   141  H    0.091808
   142  N   -0.504625
   143  C    0.238019
   144  C    0.389202
   145  O   -0.534509
   146  C   -0.279562
   147  H    0.324702
   148  H    0.065599
   149  H    0.083050
   150  H    0.057525
   151  H    0.061579
   152  N    0.027642
   153  C   -0.484210
   154  C    0.611576
   155  O   -0.543836
   156  C    0.434323
   157  C   -0.470746
   158  C    0.818957
   159  O   -0.669505
   160  O   -0.622452
   161  H    0.032958
   162  H    0.169243
   163  H   -0.009838
   164  H   -0.080121
   165  H    0.091120
   166  H    0.140169
   167  N   -0.217768
   168  C   -0.159354
   169  H    0.078362
   170  H    0.092722
   171  H    0.062643
   172  H    0.192726
   173  Ca   1.617425
   174  O   -0.878388
   175  H    0.425295
   176  H    0.395165
 Sum of ESP charges =   0.00000

 Normal termination of Gaussian 16 at Sat Sep 14 23:28:27 2019.
