 Gaussian 16, Revision A.03,
 Gaussian 16:  ES64L-G16RevA.03 25-Dec-2016

 ----------------------------------------------------------------------
 #b3lyp/svp scf=(tight,noincore) Test #IOP(5/87=12) Density=Current Pop
 =(MK,readradii) iop(6/33=2) iop(6/42=6)
 ----------------------------------------------------------------------

 ------------------
 holoCaM_loop3_88.0
 ------------------
 Symbolic Z-matrix:
 Charge =  0 Multiplicity = 1

                         Standard orientation:
 ---------------------------------------------------------------------
 Center     Atomic      Atomic             Coordinates (Angstroms)
 Number     Number       Type             X           Y           Z
 ---------------------------------------------------------------------
      1          6           0        1.562129    3.433515    6.152479
      2          6           0        1.417490    3.079984    4.681427
      3          8           0        2.406863    2.804183    4.003138
      4          1           0        2.525134    3.076938    6.518423
      5          1           0        1.505600    4.514918    6.273799
      6          1           0        0.761087    2.960320    6.720936
      7          7           0        0.218192    3.013566    4.090181
      8          6           0       -0.006547    2.671635    2.703683
      9          6           0        0.278099    3.840165    1.771098
     10          8           0       -0.053813    4.972476    2.087811
     11          6           0       -1.423164    2.098455    2.754282
     12          6           0       -1.831676    1.611326    1.374455
     13          8           0       -1.255932    1.935113    0.313145
     14          8           0       -2.829223    0.864972    1.300592
     15          1           0       -0.589570    3.297976    4.622375
     16          1           0        0.611426    1.811362    2.457430
     17          1           0       -2.174446    2.840511    3.035935
     18          1           0       -1.444661    1.273870    3.462024
     19          7           0        0.877557    3.738856    0.580054
     20          6           0        1.192121    4.880430   -0.264906
     21          6           0        0.033755    5.520295   -1.010064
     22          8           0       -0.067408    6.745305   -1.088271
     23          6           0        2.189350    4.440464   -1.331894
     24          6           0        3.600045    4.089409   -0.855659
     25          6           0        4.359996    5.246227   -0.206932
     26          6           0        4.170509    6.482138   -1.086999
     27          7           0        4.924444    7.573105   -0.463322
     28          1           0        0.950134    2.810502    0.196657
     29          1           0        1.602613    5.690576    0.345144
     30          1           0        2.271903    5.268702   -2.031970
     31          1           0        1.741732    3.682846   -1.971312
     32          1           0        4.196633    3.884035   -1.752489
     33          1           0        3.628495    3.220718   -0.211635
     34          1           0        5.401325    4.931693   -0.236992
     35          1           0        3.993280    5.431524    0.799240
     36          1           0        3.136502    6.810330   -1.082627
     37          1           0        4.434703    6.302446   -2.127198
     38          1           0        5.810464    7.161299   -0.188395
     39          1           0        5.095280    8.400276   -1.018122
     40          1           0        4.569769    7.679196    0.484702
     41          7           0       -0.908599    4.670054   -1.434871
     42          6           0       -2.203920    4.981005   -1.989084
     43          6           0       -3.430104    4.762278   -1.119584
     44          8           0       -4.518247    5.241526   -1.447404
     45          6           0       -2.403417    4.259250   -3.317304
     46          6           0       -2.290902    2.738646   -3.319068
     47          8           0       -1.824923    2.181912   -4.338730
     48          8           0       -2.509821    2.137548   -2.241220
     49          1           0       -0.865584    3.727528   -1.067317
     50          1           0       -2.276630    6.047950   -2.205514
     51          1           0       -1.722961    4.690102   -4.050480
     52          1           0       -3.385790    4.527917   -3.695804
     53          7           0       -3.332252    4.091076    0.038524
     54          6           0       -4.445557    3.975862    0.964092
     55          6           0       -5.529697    3.023248    0.491156
     56          8           0       -6.658825    3.107044    0.965233
     57          1           0       -2.458904    3.648159    0.246582
     58          1           0       -4.873704    4.985263    1.036198
     59          1           0       -4.009607    3.549027    1.869664
     60          7           0       -5.163746    2.155598   -0.457614
     61          6           0       -6.132110    1.194737   -0.948652
     62          6           0       -6.540834    0.003693   -0.086760
     63          8           0       -7.355316   -0.808933   -0.517409
     64          6           0       -5.761991    0.762775   -2.373089
     65          6           0       -4.700095   -0.303454   -2.547826
     66          7           0       -4.532449   -0.939575   -3.710300
     67          8           0       -3.962484   -0.581819   -1.598014
     68          1           0       -4.234404    2.229226   -0.850427
     69          1           0       -7.067704    1.725424   -1.081068
     70          1           0       -5.361423    1.554556   -3.005804
     71          1           0       -6.644743    0.355882   -2.883860
     72          1           0       -5.240834   -0.885551   -4.420702
     73          1           0       -3.696157   -1.453805   -3.916658
     74          7           0       -6.045958    0.009811    1.147566
     75          6           0       -6.263706   -1.042607    2.118134
     76          6           0       -5.288303   -2.218861    2.097713
     77          8           0       -5.646447   -3.170787    2.781942
     78          1           0       -5.344061    0.692547    1.375845
     79          1           0       -7.297931   -1.368599    2.253436
     80          1           0       -6.056786   -0.473953    3.016698
     81          7           0       -4.159029   -2.133438    1.398325
     82          6           0       -3.169334   -3.189161    1.337064
     83          6           0       -1.797866   -2.563588    1.542817
     84          8           0       -1.537068   -1.541996    0.922387
     85          6           0       -3.224984   -4.114002    0.120934
     86          6           0       -4.566182   -4.686837   -0.246691
     87          6           0       -5.322554   -4.016780   -1.207693
     88          6           0       -5.107842   -5.748419    0.490431
     89          6           0       -6.591875   -4.530827   -1.523573
     90          6           0       -6.422482   -6.182467    0.262566
     91          6           0       -7.144241   -5.608312   -0.797958
     92          8           0       -8.336559   -6.143580   -1.208284
     93          1           0       -4.039559   -1.249200    0.925409
     94          1           0       -3.284854   -3.855995    2.183638
     95          1           0       -2.485635   -4.891523    0.342570
     96          1           0       -2.878865   -3.504685   -0.721643
     97          1           0       -4.953473   -3.162394   -1.749914
     98          1           0       -4.526480   -6.222081    1.264616
     99          1           0       -7.039836   -4.067704   -2.389916
    100          1           0       -6.782390   -7.047219    0.801889
    101          1           0       -8.476371   -6.979373   -0.766016
    102          7           0       -0.843353   -3.283664    2.136616
    103          6           0        0.550411   -2.897321    1.991837
    104          6           0        1.306343   -4.044302    1.344380
    105          8           0        1.174672   -5.224543    1.664215
    106          6           0        1.199681   -2.479973    3.313642
    107          6           0        0.808207   -1.071218    3.764262
    108          6           0        2.718230   -2.641358    3.349204
    109          6           0        0.768291   -0.950515    5.276921
    110          1           0       -1.150681   -4.128918    2.600076
    111          1           0        0.605475   -2.080904    1.281534
    112          1           0        0.851399   -3.225878    4.016796
    113          1           0       -0.196533   -0.875382    3.402949
    114          1           0        1.439224   -0.314265    3.295498
    115          1           0        3.007654   -2.463976    4.390246
    116          1           0        3.022705   -3.660420    3.092674
    117          1           0        3.106156   -1.923607    2.630701
    118          1           0        1.790534   -0.976967    5.639855
    119          1           0        0.297749    0.003206    5.517558
    120          1           0        0.131599   -1.655625    5.818348
    121          7           0        2.249726   -3.731783    0.451933
    122          6           0        3.066566   -4.679515   -0.266868
    123          6           0        4.455374   -4.067861   -0.336080
    124          8           0        4.720369   -2.928224    0.049546
    125          6           0        2.539930   -5.037470   -1.654500
    126          8           0        2.557371   -3.879714   -2.462646
    127          1           0        2.273810   -2.743671    0.271783
    128          1           0        3.213372   -5.617918    0.276498
    129          1           0        1.491150   -5.327629   -1.589938
    130          1           0        3.185280   -5.752247   -2.162060
    131          1           0        2.385631   -4.156206   -3.363233
    132          7           0        5.398369   -4.919639   -0.722649
    133          6           0        6.830909   -4.712229   -0.725726
    134          6           0        7.287448   -3.308897   -1.091284
    135          8           0        8.150256   -2.802704   -0.377679
    136          6           0        7.424857   -5.743920   -1.677272
    137          1           0        5.125178   -5.839898   -1.056252
    138          1           0        7.222054   -4.796071    0.294948
    139          1           0        7.372726   -6.734019   -1.233665
    140          1           0        6.946094   -5.783519   -2.671766
    141          1           0        8.485853   -5.579575   -1.805250
    142          7           0        6.810756   -2.718336   -2.193918
    143          6           0        7.234516   -1.430117   -2.700097
    144          6           0        6.867691   -0.329432   -1.724992
    145          8           0        7.566661    0.680890   -1.642587
    146          6           0        6.419363   -1.196701   -3.976202
    147          1           0        6.170643   -3.261953   -2.758840
    148          1           0        8.296672   -1.314276   -2.892465
    149          1           0        6.364566   -0.139425   -4.239383
    150          1           0        6.568714   -1.859925   -4.823508
    151          1           0        5.385510   -1.447918   -3.762105
    152          7           0        5.632917   -0.398639   -1.210555
    153          6           0        5.195923    0.622920   -0.278057
    154          6           0        5.807065    0.542890    1.114890
    155          8           0        5.987299    1.528247    1.818656
    156          6           0        3.684991    0.406773   -0.181287
    157          6           0        2.873808    0.416775   -1.473836
    158          6           0        1.379130    0.355368   -1.188939
    159          8           0        0.972150   -0.745028   -0.749398
    160          8           0        0.615126    1.287054   -1.522493
    161          1           0        5.033314   -1.165444   -1.469951
    162          1           0        5.311076    1.631879   -0.658637
    163          1           0        3.327701    1.173969    0.498533
    164          1           0        3.530080   -0.613263    0.182072
    165          1           0        3.157859   -0.463086   -2.051468
    166          1           0        3.168872    1.243772   -2.117896
    167          7           0        6.259918   -0.668512    1.464073
    168          6           0        6.955940   -0.938846    2.702166
    169          1           0        7.745321   -1.668868    2.522247
    170          1           0        7.394709   -0.016062    3.081578
    171          1           0        6.253208   -1.336280    3.435082
    172          1           0        6.277432   -1.337845    0.704411
    173         20           0       -1.541393   -0.029110   -1.225276
    174          8           0       -1.531974   -0.371101   -3.837527
    175          1           0       -1.076190   -1.026558   -4.363681
    176          1           0       -1.390742    0.451731   -4.297962
 ---------------------------------------------------------------------

 SCF Done:  E(RB3LYP) =  -5333.61360259     A.U. after   15 cycles

 The electronic state is 1-A.
 Alpha  occ. eigenvalues -- -145.34087 -19.16186 -19.14444 -19.13751 -19.13550
 Alpha  occ. eigenvalues --  -19.11700 -19.10938 -19.10935 -19.09506 -19.09479
 Alpha  occ. eigenvalues --  -19.07549 -19.07046 -19.06989 -19.06970 -19.06924
 Alpha  occ. eigenvalues --  -19.06634 -19.06049 -19.05839 -19.05327 -19.05079
 Alpha  occ. eigenvalues --  -19.05047 -19.04378 -19.04000 -19.03303 -15.39861
 Alpha  occ. eigenvalues --  -14.56576 -14.39519 -14.38025 -14.36519 -14.35676
 Alpha  occ. eigenvalues --  -14.35500 -14.35170 -14.33518 -14.32681 -14.32595
 Alpha  occ. eigenvalues --  -14.32257 -14.32141 -14.31749 -14.30868 -14.30525
 Alpha  occ. eigenvalues --  -12.53462 -12.53440 -12.53420 -10.32404 -10.31905
 Alpha  occ. eigenvalues --  -10.30476 -10.29629 -10.29005 -10.28054 -10.28041
 Alpha  occ. eigenvalues --  -10.27020 -10.26561 -10.26377 -10.26205 -10.25931
 Alpha  occ. eigenvalues --  -10.25867 -10.25840 -10.25584 -10.25557 -10.25005
 Alpha  occ. eigenvalues --  -10.24942 -10.24656 -10.24168 -10.23780 -10.23582
 Alpha  occ. eigenvalues --  -10.23501 -10.23167 -10.22871 -10.22563 -10.22484
 Alpha  occ. eigenvalues --  -10.22450 -10.21945 -10.21840 -10.21644 -10.21275
 Alpha  occ. eigenvalues --  -10.20340 -10.19855 -10.19631 -10.19433 -10.19397
 Alpha  occ. eigenvalues --  -10.18817 -10.18783 -10.18768 -10.18389 -10.18357
 Alpha  occ. eigenvalues --  -10.17923 -10.17577 -10.17518 -10.17427 -10.17286
 Alpha  occ. eigenvalues --  -10.17136 -10.17115 -10.16992 -10.16907 -10.16733
 Alpha  occ. eigenvalues --  -10.16728 -10.14256  -1.76954  -1.12103  -1.06840
 Alpha  occ. eigenvalues --   -1.05098  -1.04948  -1.04871  -1.04683  -1.04552
 Alpha  occ. eigenvalues --   -1.04013  -1.03239  -1.03084  -1.02776  -1.02416
 Alpha  occ. eigenvalues --   -1.01518  -1.01123  -1.00332  -1.00227  -1.00079
 Alpha  occ. eigenvalues --   -0.99916  -0.99742  -0.99401  -0.98834  -0.98398
 Alpha  occ. eigenvalues --   -0.98015  -0.97498  -0.96546  -0.94879  -0.92979
 Alpha  occ. eigenvalues --   -0.92396  -0.92192  -0.91599  -0.90537  -0.90443
 Alpha  occ. eigenvalues --   -0.90056  -0.89973  -0.89266  -0.89034  -0.88833
 Alpha  occ. eigenvalues --   -0.88477  -0.88364  -0.87973  -0.87005  -0.86465
 Alpha  occ. eigenvalues --   -0.83182  -0.82754  -0.81318  -0.79872  -0.79426
 Alpha  occ. eigenvalues --   -0.78129  -0.77724  -0.77539  -0.76832  -0.76164
 Alpha  occ. eigenvalues --   -0.75590  -0.74121  -0.73945  -0.72691  -0.72595
 Alpha  occ. eigenvalues --   -0.72036  -0.71983  -0.71548  -0.70600  -0.69922
 Alpha  occ. eigenvalues --   -0.69605  -0.69005  -0.68917  -0.68373  -0.67515
 Alpha  occ. eigenvalues --   -0.67366  -0.66496  -0.65344  -0.64672  -0.64551
 Alpha  occ. eigenvalues --   -0.63890  -0.62374  -0.62240  -0.61676  -0.60895
 Alpha  occ. eigenvalues --   -0.60355  -0.60327  -0.59859  -0.59630  -0.59154
 Alpha  occ. eigenvalues --   -0.59064  -0.58831  -0.58508  -0.57689  -0.57584
 Alpha  occ. eigenvalues --   -0.56749  -0.56564  -0.56106  -0.55850  -0.55639
 Alpha  occ. eigenvalues --   -0.55342  -0.55241  -0.55020  -0.54724  -0.54658
 Alpha  occ. eigenvalues --   -0.54251  -0.53862  -0.53794  -0.53526  -0.53323
 Alpha  occ. eigenvalues --   -0.53112  -0.52889  -0.52073  -0.51824  -0.51346
 Alpha  occ. eigenvalues --   -0.51086  -0.50401  -0.50145  -0.49630  -0.49564
 Alpha  occ. eigenvalues --   -0.49250  -0.49196  -0.48896  -0.48665  -0.48310
 Alpha  occ. eigenvalues --   -0.48223  -0.47891  -0.47721  -0.47565  -0.47506
 Alpha  occ. eigenvalues --   -0.47378  -0.47265  -0.46995  -0.46682  -0.46396
 Alpha  occ. eigenvalues --   -0.45822  -0.45716  -0.45428  -0.45204  -0.45123
 Alpha  occ. eigenvalues --   -0.44924  -0.44733  -0.44630  -0.44234  -0.44061
 Alpha  occ. eigenvalues --   -0.43947  -0.43798  -0.43748  -0.43628  -0.43539
 Alpha  occ. eigenvalues --   -0.43227  -0.43149  -0.42982  -0.42929  -0.42780
 Alpha  occ. eigenvalues --   -0.42600  -0.42393  -0.42190  -0.42014  -0.41886
 Alpha  occ. eigenvalues --   -0.41820  -0.41692  -0.41574  -0.41452  -0.41421
 Alpha  occ. eigenvalues --   -0.41171  -0.40929  -0.40916  -0.40827  -0.40626
 Alpha  occ. eigenvalues --   -0.40543  -0.40329  -0.40170  -0.39980  -0.39781
 Alpha  occ. eigenvalues --   -0.39609  -0.39553  -0.39370  -0.39288  -0.39152
 Alpha  occ. eigenvalues --   -0.39074  -0.39053  -0.38947  -0.38809  -0.38713
 Alpha  occ. eigenvalues --   -0.38479  -0.38319  -0.38185  -0.37964  -0.37746
 Alpha  occ. eigenvalues --   -0.37491  -0.37398  -0.37224  -0.37043  -0.36916
 Alpha  occ. eigenvalues --   -0.36880  -0.36674  -0.36616  -0.36538  -0.36448
 Alpha  occ. eigenvalues --   -0.36416  -0.36356  -0.36281  -0.36144  -0.35839
 Alpha  occ. eigenvalues --   -0.35668  -0.35448  -0.35075  -0.35038  -0.34629
 Alpha  occ. eigenvalues --   -0.34550  -0.34214  -0.34105  -0.34020  -0.33688
 Alpha  occ. eigenvalues --   -0.33305  -0.33028  -0.32956  -0.32702  -0.32409
 Alpha  occ. eigenvalues --   -0.32318  -0.32299  -0.32164  -0.32053  -0.31558
 Alpha  occ. eigenvalues --   -0.31380  -0.31149  -0.31077  -0.31065  -0.30505
 Alpha  occ. eigenvalues --   -0.29482  -0.28983  -0.28471  -0.27740  -0.27325
 Alpha  occ. eigenvalues --   -0.27141  -0.27072  -0.26694  -0.26410  -0.26084
 Alpha  occ. eigenvalues --   -0.25256  -0.24995  -0.24920  -0.24805  -0.24720
 Alpha  occ. eigenvalues --   -0.24561  -0.24491  -0.24162  -0.23926  -0.23546
 Alpha  occ. eigenvalues --   -0.23336  -0.23228  -0.23041  -0.22999  -0.22921
 Alpha  occ. eigenvalues --   -0.22631  -0.22577  -0.22210  -0.21906  -0.21679
 Alpha  occ. eigenvalues --   -0.21503  -0.20846  -0.20557  -0.20401  -0.20286
 Alpha  occ. eigenvalues --   -0.19824  -0.19645  -0.19363
 Alpha virt. eigenvalues --   -0.08713  -0.02803  -0.02738  -0.01818  -0.01434
 Alpha virt. eigenvalues --   -0.00668  -0.00560   0.00131   0.00518   0.01042
 Alpha virt. eigenvalues --    0.01115   0.01473   0.01997   0.02414   0.02787

 Mulliken charges:
               1
     1  C    0.064605
     2  C    0.012798
     3  O   -0.299543
     4  H    0.032452
     5  H    0.035167
     6  H    0.011849
     7  N   -0.116077
     8  C    0.116954
     9  C    0.094421
    10  O   -0.296707
    11  C    0.071971
    12  C    0.081351
    13  O   -0.450101
    14  O   -0.379625
    15  H    0.110203
    16  H    0.001919
    17  H    0.008289
    18  H    0.024066
    19  N   -0.134248
    20  C    0.147216
    21  C    0.053387
    22  O   -0.285870
    23  C   -0.020001
    24  C    0.056754
    25  C   -0.074647
    26  C   -0.014354
    27  N    0.099711
    28  H    0.151912
    29  H   -0.032855
    30  H   -0.022149
    31  H    0.040467
    32  H    0.008040
    33  H    0.049886
    34  H    0.044758
    35  H    0.059858
    36  H    0.086340
    37  H    0.073663
    38  H    0.171344
    39  H    0.196669
    40  H    0.194270
    41  N   -0.150243
    42  C    0.142644
    43  C    0.050086
    44  O   -0.294497
    45  C    0.081650
    46  C    0.147388
    47  O   -0.396567
    48  O   -0.459692
    49  H    0.176678
    50  H    0.010323
    51  H   -0.014700
    52  H    0.011971
    53  N   -0.194927
    54  C    0.278734
    55  C   -0.015171
    56  O   -0.288046
    57  H    0.132489
    58  H    0.030698
    59  H    0.008758
    60  N   -0.168525
    61  C    0.191739
    62  C    0.055274
    63  O   -0.279965
    64  C    0.043298
    65  C    0.099627
    66  N   -0.027697
    67  O   -0.395572
    68  H    0.165025
    69  H    0.025143
    70  H    0.053521
    71  H    0.020131
    72  H    0.120684
    73  H    0.109736
    74  N   -0.155222
    75  C    0.214855
    76  C    0.027437
    77  O   -0.297113
    78  H    0.149322
    79  H    0.040683
    80  H    0.011882
    81  N   -0.128730
    82  C    0.119309
    83  C    0.120994
    84  O   -0.344644
    85  C    0.173078
    86  C    0.007784
    87  C   -0.003599
    88  C    0.010413
    89  C    0.001246
    90  C   -0.032761
    91  C    0.185472
    92  O   -0.201140
    93  H    0.159970
    94  H   -0.018463
    95  H   -0.018373
    96  H   -0.039968
    97  H   -0.051761
    98  H   -0.038903
    99  H   -0.034069
   100  H   -0.045251
   101  H    0.166914
   102  N   -0.119768
   103  C    0.176226
   104  C    0.003868
   105  O   -0.301722
   106  C   -0.113660
   107  C    0.008052
   108  C    0.086424
   109  C    0.029377
   110  H    0.131565
   111  H    0.038106
   112  H   -0.028570
   113  H    0.008343
   114  H    0.034663
   115  H    0.005743
   116  H    0.012911
   117  H    0.019982
   118  H    0.012189
   119  H   -0.005476
   120  H    0.004802
   121  N   -0.122121
   122  C    0.096740
   123  C    0.070726
   124  O   -0.272891
   125  C    0.234773
   126  O   -0.308347
   127  H    0.147044
   128  H    0.036973
   129  H    0.025206
   130  H   -0.024045
   131  H    0.161805
   132  N   -0.112207
   133  C    0.107258
   134  C    0.047583
   135  O   -0.262189
   136  C    0.010878
   137  H    0.117921
   138  H    0.027667
   139  H    0.027772
   140  H    0.019082
   141  H    0.038876
   142  N   -0.122156
   143  C    0.109280
   144  C    0.066665
   145  O   -0.267290
   146  C    0.039610
   147  H    0.109039
   148  H    0.019885
   149  H    0.041336
   150  H    0.016549
   151  H   -0.015247
   152  N   -0.185792
   153  C    0.188008
   154  C    0.056779
   155  O   -0.271321
   156  C   -0.111683
   157  C    0.135483
   158  C    0.124695
   159  O   -0.427248
   160  O   -0.396810
   161  H    0.141954
   162  H   -0.023310
   163  H    0.032717
   164  H    0.029556
   165  H   -0.021769
   166  H   -0.031390
   167  N   -0.179634
   168  C    0.137128
   169  H    0.018635
   170  H    0.029179
   171  H    0.016344
   172  H    0.148878
   173  Ca   1.271167
   174  O   -0.295713
   175  H    0.156590
   176  H    0.164823
 Sum of Mulliken charges =  -0.00000

 Dipole moment (field-independent basis, Debye):
    X=             26.7096    Y=              0.0201    Z=             -8.7376  Tot=             28.1025
 Quadrupole moment (field-independent basis, Debye-Ang):
   XX=           -616.3732   YY=           -388.1120   ZZ=           -520.2267
   XY=            113.5468   XZ=            -33.0788   YZ=             37.4842

 ESP charges:
               1
     1  C   -0.433364
     2  C    0.761994
     3  O   -0.590552
     4  H    0.125917
     5  H    0.121391
     6  H    0.095735
     7  N   -0.668932
     8  C   -0.037017
     9  C    0.926838
    10  O   -0.615507
    11  C   -0.306252
    12  C    0.792037
    13  O   -0.709031
    14  O   -0.794520
    15  H    0.346000
    16  H    0.022123
    17  H    0.120212
    18  H    0.115788
    19  N   -0.830907
    20  C    0.274803
    21  C    0.488388
    22  O   -0.569719
    23  C   -0.352435
    24  C    0.436417
    25  C   -0.475957
    26  C    0.377476
    27  N   -0.463944
    28  H    0.403802
    29  H    0.030117
    30  H    0.039040
    31  H    0.104289
    32  H   -0.033382
    33  H   -0.012083
    34  H    0.099526
    35  H    0.145343
    36  H   -0.016582
    37  H    0.020105
    38  H    0.309120
    39  H    0.358352
    40  H    0.349052
    41  N   -0.319456
    42  C    0.123364
    43  C    0.373363
    44  O   -0.529975
    45  C   -0.365512
    46  C    0.798665
    47  O   -0.723333
    48  O   -0.664212
    49  H    0.252300
    50  H    0.094642
    51  H    0.088031
    52  H    0.097657
    53  N   -0.062394
    54  C   -0.436520
    55  C    0.668919
    56  O   -0.592947
    57  H    0.087800
    58  H    0.179678
    59  H    0.142791
    60  N   -0.253771
    61  C   -0.234531
    62  C    0.481242
    63  O   -0.504915
    64  C   -0.087072
    65  C    0.734056
    66  N   -0.846034
    67  O   -0.603991
    68  H    0.247203
    69  H    0.159843
    70  H    0.061063
    71  H    0.045788
    72  H    0.373701
    73  H    0.396723
    74  N   -0.230252
    75  C   -0.242622
    76  C    0.731377
    77  O   -0.588055
    78  H    0.272638
    79  H    0.143178
    80  H    0.081414
    81  N   -0.806915
    82  C    0.707114
    83  C    0.337571
    84  O   -0.477649
    85  C    0.169911
    86  C   -0.120579
    87  C   -0.109989
    88  C   -0.191320
    89  C   -0.207333
    90  C   -0.174829
    91  C    0.321245
    92  O   -0.523017
    93  H    0.409446
    94  H   -0.114209
    95  H   -0.057311
    96  H   -0.098844
    97  H    0.106466
    98  H    0.143574
    99  H    0.142326
   100  H    0.112448
   101  H    0.383850
   102  N   -0.621091
   103  C    0.063141
   104  C    0.615649
   105  O   -0.587067
   106  C    0.131781
   107  C    0.124235
   108  C   -0.209474
   109  C   -0.383501
   110  H    0.343365
   111  H   -0.010371
   112  H    0.004237
   113  H    0.063258
   114  H    0.080388
   115  H    0.079140
   116  H    0.043714
   117  H   -0.043169
   118  H    0.083823
   119  H    0.097068
   120  H    0.084141
   121  N   -0.338052
   122  C   -0.038982
   123  C    0.619326
   124  O   -0.525367
   125  C   -0.067251
   126  O   -0.585218
   127  H    0.398539
   128  H    0.097695
   129  H    0.116542
   130  H    0.060388
   131  H    0.421923
   132  N   -0.555525
   133  C    0.266965
   134  C    0.557556
   135  O   -0.532810
   136  C   -0.427994
   137  H    0.305665
   138  H    0.042773
   139  H    0.121680
   140  H    0.110357
   141  H    0.131128
   142  N   -0.586941
   143  C    0.336540
   144  C    0.290538
   145  O   -0.501846
   146  C   -0.455645
   147  H    0.305171
   148  H    0.044613
   149  H    0.144161
   150  H    0.124118
   151  H    0.094081
   152  N   -0.031572
   153  C   -0.267472
   154  C    0.540276
   155  O   -0.546803
   156  C   -0.081116
   157  C   -0.146425
   158  C    0.760627
   159  O   -0.801428
   160  O   -0.723651
   161  H    0.207712
   162  H    0.101686
   163  H    0.095813
   164  H    0.009911
   165  H    0.027176
   166  H    0.002556
   167  N   -0.110310
   168  C   -0.165789
   169  H    0.077567
   170  H    0.088755
   171  H    0.059218
   172  H    0.154489
   173  Ca   1.588931
   174  O   -0.869831
   175  H    0.393073
   176  H    0.447729
 Sum of ESP charges =   0.00000

 Normal termination of Gaussian 16 at Sat Sep 14 23:24:28 2019.
