 Gaussian 16, Revision A.03,
 Gaussian 16:  ES64L-G16RevA.03 25-Dec-2016

 ----------------------------------------------------------------------
 #b3lyp/svp scf=(tight,noincore) Test #IOP(5/87=12) Density=Current Pop
 =(MK,readradii) iop(6/33=2) iop(6/42=6)
 ----------------------------------------------------------------------

 ------------------
 holoCaM_loop3_72.0
 ------------------
 Symbolic Z-matrix:
 Charge =  0 Multiplicity = 1

                         Standard orientation:
 ---------------------------------------------------------------------
 Center     Atomic      Atomic             Coordinates (Angstroms)
 Number     Number       Type             X           Y           Z
 ---------------------------------------------------------------------
      1          6           0        2.047437    4.448036    4.605438
      2          6           0        1.400123    3.864920    3.363198
      3          8           0        2.045186    3.558522    2.366296
      4          1           0        3.110967    4.209466    4.606764
      5          1           0        1.918885    5.530476    4.609379
      6          1           0        1.580004    4.022796    5.492907
      7          7           0        0.073841    3.731873    3.423815
      8          6           0       -0.684762    3.331148    2.251919
      9          6           0       -0.782215    4.512638    1.287563
     10          8           0       -1.556029    5.423441    1.562788
     11          6           0       -2.053399    2.763469    2.596264
     12          6           0       -2.442389    1.845759    1.444659
     13          8           0       -2.258367    2.218855    0.265195
     14          8           0       -2.863351    0.691285    1.673750
     15          1           0       -0.367665    4.084852    4.265170
     16          1           0       -0.081475    2.543627    1.812311
     17          1           0       -2.702607    3.615042    2.808522
     18          1           0       -1.978181    2.244260    3.551127
     19          7           0       -0.071809    4.381842    0.169030
     20          6           0        0.031395    5.448035   -0.818636
     21          6           0       -0.876884    5.344161   -2.040290
     22          8           0       -0.883229    6.245304   -2.867153
     23          6           0        1.482880    5.592493   -1.282235
     24          6           0        2.558940    5.741384   -0.220338
     25          6           0        2.420311    6.988110    0.660773
     26          6           0        3.481625    6.948482    1.751709
     27          7           0        3.197607    7.951963    2.794665
     28          1           0        0.325356    3.489391   -0.071574
     29          1           0       -0.227648    6.428773   -0.430629
     30          1           0        1.634154    6.487135   -1.878416
     31          1           0        1.851972    4.799437   -1.938690
     32          1           0        3.547940    5.704021   -0.676937
     33          1           0        2.486981    4.896015    0.467393
     34          1           0        1.409413    6.981014    1.058687
     35          1           0        2.570450    7.889760    0.071633
     36          1           0        4.444266    7.296427    1.375999
     37          1           0        3.457458    5.976329    2.246718
     38          1           0        3.948862    8.132980    3.445625
     39          1           0        2.904502    8.875208    2.495988
     40          1           0        2.411324    7.644427    3.343191
     41          7           0       -1.730156    4.312330   -2.102346
     42          6           0       -2.827135    4.252650   -3.043396
     43          6           0       -4.189564    4.117226   -2.389830
     44          8           0       -5.220853    4.530333   -2.924608
     45          6           0       -2.508353    3.145685   -4.034560
     46          6           0       -2.241422    1.836149   -3.298854
     47          8           0       -3.127473    1.354485   -2.550514
     48          8           0       -1.225002    1.138612   -3.505817
     49          1           0       -1.762106    3.647753   -1.346690
     50          1           0       -2.853550    5.223408   -3.559372
     51          1           0       -1.668297    3.423543   -4.672683
     52          1           0       -3.374353    3.077141   -4.702351
     53          7           0       -4.166695    3.767146   -1.100520
     54          6           0       -5.343175    3.698477   -0.270413
     55          6           0       -6.150166    2.412182   -0.369963
     56          8           0       -7.225412    2.348842    0.215557
     57          1           0       -3.294136    3.413020   -0.735230
     58          1           0       -6.047468    4.473975   -0.559332
     59          1           0       -5.004455    3.862583    0.756884
     60          7           0       -5.700867    1.340554   -1.034451
     61          6           0       -6.350627    0.058824   -1.141600
     62          6           0       -6.359150   -0.784906    0.122736
     63          8           0       -6.854551   -1.913159    0.143329
     64          6           0       -5.735091   -0.729864   -2.302283
     65          6           0       -4.399542   -1.424484   -2.063098
     66          7           0       -4.063232   -2.274534   -3.037322
     67          8           0       -3.647453   -1.248751   -1.108541
     68          1           0       -4.728745    1.341735   -1.290726
     69          1           0       -7.394003    0.258329   -1.423142
     70          1           0       -5.666216   -0.085042   -3.174328
     71          1           0       -6.422412   -1.491340   -2.663453
     72          1           0       -4.634843   -2.398204   -3.858399
     73          1           0       -3.181142   -2.753038   -2.944318
     74          7           0       -5.804173   -0.301855    1.236677
     75          6           0       -5.722409   -1.095550    2.451569
     76          6           0       -4.910000   -2.376088    2.436933
     77          8           0       -5.164162   -3.411245    3.056973
     78          1           0       -5.289389    0.564036    1.196313
     79          1           0       -6.752604   -1.322912    2.738983
     80          1           0       -5.258153   -0.477092    3.217321
     81          7           0       -3.795493   -2.269889    1.715687
     82          6           0       -2.725781   -3.239583    1.631971
     83          6           0       -1.316645   -2.659707    1.580220
     84          8           0       -1.143344   -1.567344    1.032215
     85          6           0       -2.891461   -4.164294    0.438129
     86          6           0       -4.216166   -4.903296    0.377853
     87          6           0       -5.188255   -4.670209   -0.593031
     88          6           0       -4.462198   -5.948845    1.265149
     89          6           0       -6.313398   -5.486341   -0.728979
     90          6           0       -5.622686   -6.746446    1.303864
     91          6           0       -6.504513   -6.508794    0.229386
     92          8           0       -7.564983   -7.356379    0.149366
     93          1           0       -3.599369   -1.355659    1.348644
     94          1           0       -2.762032   -3.820608    2.559385
     95          1           0       -2.127425   -4.932145    0.572865
     96          1           0       -2.599827   -3.640047   -0.476811
     97          1           0       -4.913789   -3.914468   -1.329321
     98          1           0       -3.734545   -6.169861    2.028414
     99          1           0       -7.065424   -5.246031   -1.458574
    100          1           0       -5.739272   -7.541573    2.019602
    101          1           0       -7.470271   -8.104251    0.738533
    102          7           0       -0.262988   -3.316513    2.062934
    103          6           0        1.102124   -2.821290    1.917933
    104          6           0        1.872164   -3.788405    1.030731
    105          8           0        1.762438   -5.007927    1.133328
    106          6           0        1.621061   -2.572236    3.329944
    107          6           0        0.968875   -1.340133    3.972420
    108          6           0        3.122455   -2.294028    3.295088
    109          6           0        1.075418   -0.032187    3.199099
    110          1           0       -0.453122   -4.073853    2.700809
    111          1           0        1.155435   -1.900729    1.336964
    112          1           0        1.438577   -3.451004    3.947898
    113          1           0        1.432332   -1.081994    4.926240
    114          1           0       -0.057733   -1.683727    4.106285
    115          1           0        3.304938   -1.415260    2.677134
    116          1           0        3.462250   -1.948243    4.269548
    117          1           0        3.732498   -3.140449    2.986189
    118          1           0        0.544165    0.795404    3.653042
    119          1           0        2.117688    0.217552    2.990765
    120          1           0        0.567631   -0.167716    2.243911
    121          7           0        2.694297   -3.211447    0.148848
    122          6           0        3.474814   -3.935112   -0.822749
    123          6           0        4.972117   -3.828624   -0.545363
    124          8           0        5.365128   -3.081143    0.350302
    125          6           0        3.135678   -3.323356   -2.182066
    126          8           0        3.607566   -2.004178   -2.311262
    127          1           0        2.729104   -2.208185    0.050599
    128          1           0        3.152190   -4.980817   -0.757057
    129          1           0        2.071266   -3.467534   -2.394762
    130          1           0        3.631947   -3.851973   -2.995995
    131          1           0        2.822588   -1.531999   -2.609520
    132          7           0        5.882665   -4.553895   -1.196197
    133          6           0        7.295527   -4.348061   -0.974492
    134          6           0        7.713548   -2.915771   -1.281745
    135          8           0        8.580192   -2.346232   -0.615447
    136          6           0        8.088726   -5.389782   -1.769511
    137          1           0        5.631437   -5.192907   -1.935554
    138          1           0        7.552197   -4.476003    0.074627
    139          1           0        7.722350   -6.359368   -1.431621
    140          1           0        7.912941   -5.273574   -2.836514
    141          1           0        9.163395   -5.277520   -1.679600
    142          7           0        7.076893   -2.406502   -2.331418
    143          6           0        7.254724   -1.062544   -2.845084
    144          6           0        6.771389   -0.000508   -1.864131
    145          8           0        7.335989    1.082568   -1.743407
    146          6           0        6.527249   -1.070608   -4.189745
    147          1           0        6.429192   -2.976121   -2.862943
    148          1           0        8.318317   -0.927393   -3.049542
    149          1           0        6.189987   -0.045868   -4.340947
    150          1           0        7.072353   -1.515710   -5.022119
    151          1           0        5.596179   -1.624839   -4.100653
    152          7           0        5.765847   -0.291929   -1.026183
    153          6           0        5.340181    0.550810    0.068714
    154          6           0        6.039237    0.363516    1.418617
    155          8           0        6.001947    1.252507    2.260285
    156          6           0        3.840391    0.316847    0.215997
    157          6           0        3.127140    1.033928   -0.925042
    158          6           0        1.624865    0.803935   -0.853111
    159          8           0        0.767196    1.693499   -0.641266
    160          8           0        1.162999   -0.337359   -1.041337
    161          1           0        5.183539   -1.065859   -1.301230
    162          1           0        5.405142    1.607528   -0.163077
    163          1           0        3.357499    0.779936    1.083098
    164          1           0        3.577899   -0.732277    0.365787
    165          1           0        3.431914    0.626861   -1.890811
    166          1           0        3.339249    2.106014   -0.892803
    167          7           0        6.601703   -0.816930    1.661682
    168          6           0        7.290150   -1.195399    2.887734
    169          1           0        8.353491   -0.975719    2.789392
    170          1           0        6.879832   -0.630794    3.725143
    171          1           0        7.154646   -2.262302    3.067169
    172          1           0        6.505560   -1.549414    0.969351
    173         20           0       -1.327376    0.143659   -0.984292
    174          8           0       -0.991360   -2.062311   -2.568745
    175          1           0       -0.541315   -1.714884   -3.338974
    176          1           0       -0.526788   -2.874886   -2.366769
 ---------------------------------------------------------------------

 SCF Done:  E(RB3LYP) =  -5333.64027732     A.U. after   17 cycles

 The electronic state is 1-A.
 Alpha  occ. eigenvalues -- -145.34919 -19.18490 -19.18206 -19.13277 -19.12996
 Alpha  occ. eigenvalues --  -19.12106 -19.10933 -19.10768 -19.10759 -19.10190
 Alpha  occ. eigenvalues --  -19.09251 -19.08368 -19.08202 -19.07907 -19.07454
 Alpha  occ. eigenvalues --  -19.07278 -19.06453 -19.05898 -19.05321 -19.05065
 Alpha  occ. eigenvalues --  -19.04838 -19.04620 -19.04564 -19.04538 -15.40611
 Alpha  occ. eigenvalues --  -14.57487 -14.39640 -14.37560 -14.36905 -14.36904
 Alpha  occ. eigenvalues --  -14.36735 -14.34794 -14.33999 -14.33974 -14.32528
 Alpha  occ. eigenvalues --  -14.32059 -14.31206 -14.30550 -14.30512 -14.29975
 Alpha  occ. eigenvalues --  -12.54221 -12.54212 -12.54176 -10.33707 -10.31963
 Alpha  occ. eigenvalues --  -10.30808 -10.29424 -10.29335 -10.29287 -10.28889
 Alpha  occ. eigenvalues --  -10.28173 -10.27379 -10.27371 -10.27132 -10.26685
 Alpha  occ. eigenvalues --  -10.26305 -10.26187 -10.25738 -10.25354 -10.25295
 Alpha  occ. eigenvalues --  -10.24228 -10.24059 -10.24054 -10.23955 -10.23757
 Alpha  occ. eigenvalues --  -10.23610 -10.23596 -10.23561 -10.22842 -10.22453
 Alpha  occ. eigenvalues --  -10.22245 -10.21963 -10.21934 -10.21711 -10.21267
 Alpha  occ. eigenvalues --  -10.20815 -10.20479 -10.19976 -10.19818 -10.19470
 Alpha  occ. eigenvalues --  -10.19408 -10.18977 -10.18941 -10.18882 -10.18360
 Alpha  occ. eigenvalues --  -10.18318 -10.18004 -10.17944 -10.17771 -10.17145
 Alpha  occ. eigenvalues --  -10.16682 -10.16031 -10.15998 -10.15903 -10.15824
 Alpha  occ. eigenvalues --  -10.15587 -10.15277  -1.77538  -1.12916  -1.07479
 Alpha  occ. eigenvalues --   -1.06480  -1.05625  -1.05450  -1.05273  -1.05181
 Alpha  occ. eigenvalues --   -1.04276  -1.04018  -1.03488  -1.03283  -1.03127
 Alpha  occ. eigenvalues --   -1.02589  -1.02156  -1.02108  -1.01599  -1.01597
 Alpha  occ. eigenvalues --   -1.00617  -0.99705  -0.99556  -0.99004  -0.98241
 Alpha  occ. eigenvalues --   -0.97646  -0.97410  -0.96199  -0.94054  -0.94033
 Alpha  occ. eigenvalues --   -0.93930  -0.93137  -0.92142  -0.91672  -0.91213
 Alpha  occ. eigenvalues --   -0.90965  -0.89982  -0.89879  -0.88751  -0.88553
 Alpha  occ. eigenvalues --   -0.88210  -0.88166  -0.87648  -0.86939  -0.86434
 Alpha  occ. eigenvalues --   -0.82499  -0.81805  -0.81424  -0.80756  -0.79609
 Alpha  occ. eigenvalues --   -0.79572  -0.78765  -0.77499  -0.76982  -0.76103
 Alpha  occ. eigenvalues --   -0.75792  -0.75104  -0.74048  -0.73801  -0.72024
 Alpha  occ. eigenvalues --   -0.71892  -0.71421  -0.71185  -0.71108  -0.70547
 Alpha  occ. eigenvalues --   -0.69661  -0.69345  -0.68678  -0.68074  -0.68021
 Alpha  occ. eigenvalues --   -0.67537  -0.65875  -0.65606  -0.65283  -0.64786
 Alpha  occ. eigenvalues --   -0.63623  -0.62835  -0.62617  -0.62032  -0.61659
 Alpha  occ. eigenvalues --   -0.61401  -0.60713  -0.60579  -0.60016  -0.59096
 Alpha  occ. eigenvalues --   -0.58765  -0.58750  -0.58663  -0.58386  -0.58273
 Alpha  occ. eigenvalues --   -0.57460  -0.57268  -0.56910  -0.56606  -0.56122
 Alpha  occ. eigenvalues --   -0.55818  -0.55664  -0.55548  -0.55231  -0.54963
 Alpha  occ. eigenvalues --   -0.54783  -0.54349  -0.54071  -0.53997  -0.53619
 Alpha  occ. eigenvalues --   -0.52836  -0.52693  -0.52224  -0.51756  -0.51715
 Alpha  occ. eigenvalues --   -0.51535  -0.51326  -0.51041  -0.50791  -0.50609
 Alpha  occ. eigenvalues --   -0.49534  -0.49413  -0.49309  -0.49153  -0.49013
 Alpha  occ. eigenvalues --   -0.48266  -0.48084  -0.47968  -0.47831  -0.47810
 Alpha  occ. eigenvalues --   -0.47651  -0.47497  -0.47375  -0.47268  -0.46636
 Alpha  occ. eigenvalues --   -0.46381  -0.46237  -0.45828  -0.45794  -0.45238
 Alpha  occ. eigenvalues --   -0.45038  -0.44740  -0.44606  -0.44496  -0.44374
 Alpha  occ. eigenvalues --   -0.44240  -0.44117  -0.44029  -0.43914  -0.43873
 Alpha  occ. eigenvalues --   -0.43740  -0.43635  -0.43612  -0.43355  -0.43227
 Alpha  occ. eigenvalues --   -0.43090  -0.42922  -0.42620  -0.42388  -0.42336
 Alpha  occ. eigenvalues --   -0.42137  -0.41988  -0.41755  -0.41694  -0.41369
 Alpha  occ. eigenvalues --   -0.41252  -0.41178  -0.41099  -0.40945  -0.40745
 Alpha  occ. eigenvalues --   -0.40651  -0.40541  -0.40415  -0.40239  -0.40083
 Alpha  occ. eigenvalues --   -0.40018  -0.39945  -0.39927  -0.39769  -0.39614
 Alpha  occ. eigenvalues --   -0.39461  -0.39385  -0.39261  -0.39229  -0.39127
 Alpha  occ. eigenvalues --   -0.38939  -0.38702  -0.38508  -0.38471  -0.38416
 Alpha  occ. eigenvalues --   -0.38321  -0.38063  -0.38019  -0.37856  -0.37566
 Alpha  occ. eigenvalues --   -0.37358  -0.37215  -0.36802  -0.36721  -0.36399
 Alpha  occ. eigenvalues --   -0.36365  -0.36298  -0.35991  -0.35910  -0.35853
 Alpha  occ. eigenvalues --   -0.35761  -0.35740  -0.35312  -0.35181  -0.34891
 Alpha  occ. eigenvalues --   -0.34745  -0.34670  -0.34549  -0.34346  -0.34220
 Alpha  occ. eigenvalues --   -0.33828  -0.33744  -0.33336  -0.32994  -0.32916
 Alpha  occ. eigenvalues --   -0.32600  -0.32460  -0.32221  -0.32098  -0.31691
 Alpha  occ. eigenvalues --   -0.31666  -0.31471  -0.30909  -0.30420  -0.29969
 Alpha  occ. eigenvalues --   -0.29520  -0.29153  -0.28372  -0.28244  -0.28171
 Alpha  occ. eigenvalues --   -0.27666  -0.27537  -0.27167  -0.26944  -0.26788
 Alpha  occ. eigenvalues --   -0.26144  -0.26112  -0.25968  -0.25892  -0.25660
 Alpha  occ. eigenvalues --   -0.25442  -0.24779  -0.24591  -0.24389  -0.24089
 Alpha  occ. eigenvalues --   -0.24025  -0.23502  -0.23317  -0.23286  -0.22857
 Alpha  occ. eigenvalues --   -0.22756  -0.22555  -0.22376  -0.22323  -0.22026
 Alpha  occ. eigenvalues --   -0.21750  -0.21633  -0.20348  -0.20287  -0.20257
 Alpha  occ. eigenvalues --   -0.19623  -0.19127  -0.18915
 Alpha virt. eigenvalues --   -0.10248  -0.04739  -0.03617  -0.03075  -0.01552
 Alpha virt. eigenvalues --   -0.00595  -0.00130   0.00042   0.00495   0.00723
 Alpha virt. eigenvalues --    0.01002   0.01522   0.01708   0.01846   0.02255

 Mulliken charges:
               1
     1  C    0.036003
     2  C    0.028252
     3  O   -0.268907
     4  H    0.052907
     5  H   -0.023577
     6  H    0.040514
     7  N   -0.129644
     8  C    0.048938
     9  C    0.062349
    10  O   -0.289359
    11  C    0.148657
    12  C    0.112153
    13  O   -0.461989
    14  O   -0.345645
    15  H    0.112795
    16  H    0.019078
    17  H    0.016808
    18  H   -0.018902
    19  N   -0.131692
    20  C    0.134219
    21  C    0.070780
    22  O   -0.282130
    23  C    0.049979
    24  C    0.001488
    25  C   -0.075976
    26  C    0.066719
    27  N    0.067448
    28  H    0.157834
    29  H    0.009566
    30  H   -0.002550
    31  H    0.013000
    32  H    0.007380
    33  H    0.045959
    34  H    0.036028
    35  H    0.014328
    36  H    0.062477
    37  H    0.086063
    38  H    0.181543
    39  H    0.179204
    40  H    0.176412
    41  N   -0.156001
    42  C    0.037277
    43  C    0.092326
    44  O   -0.287881
    45  C    0.181663
    46  C    0.040595
    47  O   -0.420051
    48  O   -0.402160
    49  H    0.155526
    50  H    0.029558
    51  H   -0.008325
    52  H    0.013531
    53  N   -0.180055
    54  C    0.244052
    55  C   -0.010062
    56  O   -0.299884
    57  H    0.132776
    58  H    0.030632
    59  H    0.022386
    60  N   -0.154670
    61  C    0.180316
    62  C    0.057232
    63  O   -0.288969
    64  C    0.024697
    65  C    0.130243
    66  N   -0.051046
    67  O   -0.337214
    68  H    0.147088
    69  H    0.023457
    70  H    0.044556
    71  H    0.014843
    72  H    0.119550
    73  H    0.117946
    74  N   -0.132996
    75  C    0.233042
    76  C    0.036361
    77  O   -0.288007
    78  H    0.133920
    79  H    0.022264
    80  H    0.015587
    81  N   -0.141571
    82  C    0.128318
    83  C    0.107573
    84  O   -0.359008
    85  C    0.169853
    86  C    0.032913
    87  C    0.027517
    88  C   -0.010802
    89  C    0.012751
    90  C   -0.016915
    91  C    0.144635
    92  O   -0.205697
    93  H    0.155762
    94  H   -0.013864
    95  H   -0.023195
    96  H   -0.045243
    97  H   -0.078039
    98  H   -0.055474
    99  H   -0.032341
   100  H   -0.051321
   101  H    0.165288
   102  N   -0.111514
   103  C    0.134806
   104  C    0.070522
   105  O   -0.277144
   106  C   -0.087495
   107  C    0.056579
   108  C    0.066099
   109  C   -0.049202
   110  H    0.132623
   111  H    0.011332
   112  H   -0.012401
   113  H   -0.004835
   114  H   -0.006320
   115  H   -0.000434
   116  H   -0.006603
   117  H    0.024481
   118  H    0.003590
   119  H    0.027892
   120  H    0.046433
   121  N   -0.146404
   122  C    0.113057
   123  C    0.093088
   124  O   -0.276180
   125  C    0.212238
   126  O   -0.304194
   127  H    0.148794
   128  H    0.034220
   129  H   -0.001657
   130  H   -0.020531
   131  H    0.192274
   132  N   -0.123019
   133  C    0.080014
   134  C    0.056412
   135  O   -0.256537
   136  C    0.051876
   137  H    0.113597
   138  H    0.019925
   139  H    0.033975
   140  H   -0.004392
   141  H    0.042863
   142  N   -0.139733
   143  C    0.096657
   144  C    0.065223
   145  O   -0.266518
   146  C    0.032468
   147  H    0.105350
   148  H    0.024924
   149  H    0.030264
   150  H    0.032502
   151  H   -0.012766
   152  N   -0.161004
   153  C    0.186264
   154  C    0.062709
   155  O   -0.294997
   156  C   -0.102096
   157  C    0.139191
   158  C    0.145445
   159  O   -0.406187
   160  O   -0.466007
   161  H    0.138905
   162  H   -0.008156
   163  H    0.037784
   164  H   -0.005924
   165  H   -0.016277
   166  H    0.001452
   167  N   -0.164191
   168  C    0.138796
   169  H    0.024811
   170  H    0.020367
   171  H    0.011741
   172  H    0.147790
   173  Ca   1.230909
   174  O   -0.256197
   175  H    0.187080
   176  H    0.177841
 Sum of Mulliken charges =  -0.00000

 Dipole moment (field-independent basis, Debye):
    X=             24.6350    Y=              9.0070    Z=              6.7455  Tot=             27.0834
 Quadrupole moment (field-independent basis, Debye-Ang):
   XX=           -704.2738   YY=           -356.9849   ZZ=           -500.9631
   XY=             70.0046   XZ=              7.4787   YZ=            157.0312

 ESP charges:
               1
     1  C   -0.526373
     2  C    0.813064
     3  O   -0.613527
     4  H    0.160219
     5  H    0.097073
     6  H    0.140548
     7  N   -0.705173
     8  C    0.462392
     9  C    0.319284
    10  O   -0.548151
    11  C   -0.339250
    12  C    0.692766
    13  O   -0.397936
    14  O   -0.697972
    15  H    0.340570
    16  H   -0.100533
    17  H    0.088534
    18  H    0.090925
    19  N   -0.061607
    20  C   -0.304190
    21  C    0.687375
    22  O   -0.571460
    23  C   -0.060636
    24  C    0.124164
    25  C   -0.112273
    26  C   -0.001858
    27  N   -0.179185
    28  H    0.256672
    29  H    0.133659
    30  H    0.033894
    31  H    0.052931
    32  H    0.000286
    33  H   -0.005230
    34  H    0.060161
    35  H    0.046424
    36  H    0.099830
    37  H    0.053425
    38  H    0.282183
    39  H    0.273439
    40  H    0.259211
    41  N   -0.437367
    42  C    0.080833
    43  C    0.435152
    44  O   -0.542506
    45  C   -0.236132
    46  C    0.684721
    47  O   -0.563913
    48  O   -0.726705
    49  H    0.151787
    50  H    0.095833
    51  H    0.077451
    52  H    0.077639
    53  N   -0.107526
    54  C   -0.370603
    55  C    0.553949
    56  O   -0.584478
    57  H    0.087833
    58  H    0.178117
    59  H    0.139734
    60  N    0.083257
    61  C   -0.485158
    62  C    0.446713
    63  O   -0.434928
    64  C   -0.015463
    65  C    0.445555
    66  N   -0.686857
    67  O   -0.300226
    68  H   -0.121697
    69  H    0.215788
    70  H    0.092543
    71  H    0.070871
    72  H    0.342164
    73  H    0.335812
    74  N   -0.090391
    75  C   -0.443553
    76  C    0.606782
    77  O   -0.524317
    78  H    0.236323
    79  H    0.152999
    80  H    0.160857
    81  N   -0.329174
    82  C    0.326756
    83  C    0.523043
    84  O   -0.534124
    85  C   -0.135379
    86  C   -0.029492
    87  C    0.055594
    88  C   -0.204031
    89  C   -0.430392
    90  C   -0.251543
    91  C    0.448062
    92  O   -0.549160
    93  H    0.122571
    94  H   -0.042653
    95  H    0.015750
    96  H    0.054658
    97  H    0.031225
    98  H    0.145667
    99  H    0.205732
   100  H    0.137330
   101  H    0.378651
   102  N   -0.595645
   103  C    0.035866
   104  C    0.474787
   105  O   -0.547338
   106  C    0.249420
   107  C   -0.285651
   108  C   -0.411125
   109  C    0.206940
   110  H    0.338832
   111  H    0.191253
   112  H    0.010746
   113  H    0.057158
   114  H    0.040680
   115  H    0.129754
   116  H    0.097688
   117  H    0.093897
   118  H   -0.031817
   119  H   -0.037729
   120  H   -0.014326
   121  N    0.024984
   122  C   -0.077329
   123  C    0.481494
   124  O   -0.419520
   125  C    0.096098
   126  O   -0.476053
   127  H   -0.169264
   128  H    0.089970
   129  H    0.042083
   130  H    0.015804
   131  H    0.385803
   132  N   -0.457557
   133  C    0.200819
   134  C    0.538052
   135  O   -0.543386
   136  C   -0.383968
   137  H    0.284241
   138  H    0.057630
   139  H    0.112502
   140  H    0.084484
   141  H    0.134962
   142  N   -0.499109
   143  C    0.349803
   144  C    0.150846
   145  O   -0.493288
   146  C   -0.457737
   147  H    0.281029
   148  H    0.051537
   149  H    0.131525
   150  H    0.127014
   151  H    0.104145
   152  N    0.403355
   153  C   -0.634543
   154  C    0.666610
   155  O   -0.593796
   156  C    0.372251
   157  C   -0.240735
   158  C    0.801421
   159  O   -0.774524
   160  O   -0.707564
   161  H   -0.042184
   162  H    0.184890
   163  H    0.030539
   164  H   -0.160921
   165  H    0.027164
   166  H    0.070334
   167  N   -0.193249
   168  C   -0.195346
   169  H    0.090870
   170  H    0.084551
   171  H    0.085180
   172  H    0.153300
   173  Ca   1.417155
   174  O   -0.819585
   175  H    0.434175
   176  H    0.405985
 Sum of ESP charges =   0.00000

 Normal termination of Gaussian 16 at Sat Sep 14 22:39:07 2019.
