 Gaussian 16, Revision A.03,
 Gaussian 16:  ES64L-G16RevA.03 25-Dec-2016

 ----------------------------------------------------------------------
 #b3lyp/svp scf=(tight,noincore) Test #IOP(5/87=12) Density=Current Pop
 =(MK,readradii) iop(6/33=2) iop(6/42=6)
 ----------------------------------------------------------------------

 -------------------
 holoCaM_loop3_103.0
 -------------------
 Symbolic Z-matrix:
 Charge =  0 Multiplicity = 1

                         Standard orientation:
 ---------------------------------------------------------------------
 Center     Atomic      Atomic             Coordinates (Angstroms)
 Number     Number       Type             X           Y           Z
 ---------------------------------------------------------------------
      1          6           0        3.046854    4.363896    5.399214
      2          6           0        2.623038    3.843230    4.027321
      3          8           0        3.430522    3.384926    3.222010
      4          1           0        3.892247    3.779587    5.763250
      5          1           0        3.337624    5.411720    5.316934
      6          1           0        2.214803    4.271184    6.096898
      7          7           0        1.337568    3.969192    3.696113
      8          6           0        0.659588    3.629760    2.459332
      9          6           0        0.255066    4.849737    1.650990
     10          8           0       -0.577706    5.603263    2.163718
     11          6           0       -0.463779    2.618553    2.669115
     12          6           0       -1.195613    2.142131    1.420780
     13          8           0       -1.976798    1.173491    1.469629
     14          8           0       -0.829907    2.649779    0.344233
     15          1           0        0.756206    4.319242    4.453994
     16          1           0        1.374820    3.134421    1.804746
     17          1           0       -1.209200    3.070779    3.335102
     18          1           0       -0.027715    1.796053    3.230847
     19          7           0        0.857079    4.992900    0.470954
     20          6           0        0.753254    6.066034   -0.499924
     21          6           0       -0.596918    6.177514   -1.188769
     22          8           0       -0.813066    7.130743   -1.928117
     23          6           0        1.790841    5.934814   -1.616793
     24          6           0        3.239904    6.072757   -1.143838
     25          6           0        4.038888    6.230700   -2.430570
     26          6           0        5.506588    6.434976   -2.043362
     27          7           0        6.087665    5.201670   -1.484521
     28          1           0        1.534855    4.318209    0.144133
     29          1           0        0.997685    6.984840    0.016746
     30          1           0        1.590089    6.766986   -2.299500
     31          1           0        1.757084    5.062714   -2.249802
     32          1           0        3.471429    5.180773   -0.553193
     33          1           0        3.278072    6.926663   -0.471464
     34          1           0        3.779514    7.181668   -2.906999
     35          1           0        4.069301    5.380893   -3.116355
     36          1           0        5.566753    7.292498   -1.369242
     37          1           0        6.049071    6.672321   -2.954723
     38          1           0        5.781551    4.957844   -0.559457
     39          1           0        5.936440    4.371551   -2.041776
     40          1           0        7.091644    5.307321   -1.522796
     41          7           0       -1.567562    5.343644   -0.807441
     42          6           0       -2.948732    5.380533   -1.237683
     43          6           0       -3.952608    4.815961   -0.250571
     44          8           0       -5.160431    4.861736   -0.477659
     45          6           0       -3.136553    4.759751   -2.626407
     46          6           0       -3.016354    3.251290   -2.793430
     47          8           0       -2.694067    2.474913   -1.867380
     48          8           0       -3.001559    2.779514   -3.950543
     49          1           0       -1.309920    4.457940   -0.387027
     50          1           0       -3.156785    6.441596   -1.328567
     51          1           0       -2.474243    5.388439   -3.222979
     52          1           0       -4.100562    5.103858   -2.991889
     53          7           0       -3.573921    4.143054    0.838921
     54          6           0       -4.403293    3.503141    1.845327
     55          6           0       -5.409494    2.531226    1.242135
     56          8           0       -6.566844    2.567898    1.658063
     57          1           0       -2.563412    4.137260    0.949095
     58          1           0       -4.910547    4.180682    2.537954
     59          1           0       -3.688718    2.997027    2.481432
     60          7           0       -5.100607    1.848877    0.137649
     61          6           0       -6.042375    1.121377   -0.695128
     62          6           0       -6.496526   -0.183595   -0.061019
     63          8           0       -7.046159   -0.991442   -0.799589
     64          6           0       -5.629700    1.087728   -2.159221
     65          6           0       -4.610705    0.012306   -2.518966
     66          7           0       -4.737458   -0.692720   -3.643542
     67          8           0       -3.780260   -0.328729   -1.679826
     68          1           0       -4.125957    1.908991   -0.124158
     69          1           0       -6.888372    1.807597   -0.621029
     70          1           0       -5.198853    2.061759   -2.387332
     71          1           0       -6.524800    0.989000   -2.762504
     72          1           0       -5.093457   -0.186667   -4.444338
     73          1           0       -3.905949   -1.233268   -3.836678
     74          7           0       -6.301186   -0.501264    1.228449
     75          6           0       -6.666302   -1.686309    1.981682
     76          6           0       -5.615718   -2.789535    1.968822
     77          8           0       -5.716111   -3.804878    2.643803
     78          1           0       -5.866140    0.259754    1.732123
     79          1           0       -7.594778   -2.049444    1.544456
     80          1           0       -6.753635   -1.444896    3.040451
     81          7           0       -4.561150   -2.552512    1.192995
     82          6           0       -3.438367   -3.431556    0.894600
     83          6           0       -2.093120   -2.733481    1.000440
     84          8           0       -1.906375   -1.584338    0.621500
     85          6           0       -3.667361   -3.992587   -0.499999
     86          6           0       -4.975846   -4.732220   -0.639327
     87          6           0       -6.079813   -4.254215   -1.351484
     88          6           0       -5.208835   -5.875667    0.138648
     89          6           0       -7.319200   -4.876203   -1.459423
     90          6           0       -6.451719   -6.515525    0.111754
     91          6           0       -7.529715   -5.990208   -0.624632
     92          8           0       -8.766660   -6.577907   -0.605221
     93          1           0       -4.505316   -1.623776    0.800526
     94          1           0       -3.514436   -4.219566    1.651604
     95          1           0       -2.827799   -4.574492   -0.880817
     96          1           0       -3.728789   -3.218694   -1.270982
     97          1           0       -5.830586   -3.504270   -2.092137
     98          1           0       -4.426934   -6.286591    0.760397
     99          1           0       -8.082170   -4.480747   -2.115847
    100          1           0       -6.542923   -7.412941    0.713191
    101          1           0       -8.904511   -7.320281   -0.023432
    102          7           0       -1.017647   -3.468788    1.286940
    103          6           0        0.369800   -3.056223    1.223065
    104          6           0        1.115318   -4.029108    0.316423
    105          8           0        1.009283   -5.239619    0.492829
    106          6           0        0.813009   -2.856163    2.670698
    107          6           0        0.437956   -1.448322    3.106840
    108          6           0        2.303903   -3.158309    2.783136
    109          6           0        0.818084   -1.138310    4.548851
    110          1           0       -1.179633   -4.452754    1.470167
    111          1           0        0.510314   -2.084214    0.762356
    112          1           0        0.309054   -3.565460    3.329125
    113          1           0       -0.625915   -1.222727    2.984837
    114          1           0        0.902083   -0.716550    2.445481
    115          1           0        2.655770   -3.031875    3.815757
    116          1           0        2.638559   -4.109787    2.369379
    117          1           0        2.847296   -2.382556    2.234838
    118          1           0        1.822370   -0.722554    4.666570
    119          1           0        0.130484   -0.444718    5.017609
    120          1           0        0.689834   -2.033989    5.155242
    121          7           0        1.966502   -3.432266   -0.531967
    122          6           0        2.898182   -4.118935   -1.398314
    123          6           0        4.235906   -4.353431   -0.698881
    124          8           0        4.494790   -3.667751    0.290169
    125          6           0        3.125543   -3.292279   -2.652327
    126          8           0        3.767486   -2.089659   -2.290365
    127          1           0        2.047494   -2.426754   -0.541195
    128          1           0        2.500775   -5.045293   -1.804797
    129          1           0        2.225527   -3.094451   -3.234852
    130          1           0        3.804637   -3.761265   -3.364354
    131          1           0        3.897786   -1.584555   -3.087667
    132          7           0        5.167602   -5.161458   -1.199617
    133          6           0        6.500180   -5.234068   -0.655960
    134          6           0        7.140904   -3.852904   -0.648287
    135          8           0        7.730500   -3.439263    0.345634
    136          6           0        7.194143   -6.329564   -1.461071
    137          1           0        4.932483   -5.760125   -1.980909
    138          1           0        6.379890   -5.650180    0.346477
    139          1           0        7.129837   -6.041597   -2.507130
    140          1           0        8.245679   -6.354076   -1.199020
    141          1           0        6.657423   -7.258060   -1.253398
    142          7           0        7.146527   -3.145527   -1.782697
    143          6           0        7.744889   -1.829991   -1.907305
    144          6           0        7.071874   -0.775406   -1.052320
    145          8           0        7.825470    0.082963   -0.582537
    146          6           0        7.693935   -1.394658   -3.369423
    147          1           0        6.595938   -3.491499   -2.549023
    148          1           0        8.807205   -1.821751   -1.677052
    149          1           0        8.018364   -2.177889   -4.059927
    150          1           0        6.682345   -1.129465   -3.659351
    151          1           0        8.357952   -0.526781   -3.451714
    152          7           0        5.829522   -0.909547   -0.586416
    153          6           0        5.164395   -0.125305    0.442501
    154          6           0        5.611551   -0.604417    1.814581
    155          8           0        6.076647    0.180067    2.635660
    156          6           0        3.642910   -0.169247    0.343738
    157          6           0        3.207601    0.718372   -0.820538
    158          6           0        1.699150    0.694522   -1.010551
    159          8           0        1.155157    0.986486   -2.092461
    160          8           0        0.979315    0.256196   -0.083293
    161          1           0        5.277915   -1.603968   -1.076731
    162          1           0        5.475328    0.917362    0.323061
    163          1           0        3.260918    0.203098    1.292812
    164          1           0        3.323108   -1.202566    0.211913
    165          1           0        3.765999    0.434676   -1.712844
    166          1           0        3.423548    1.771784   -0.624602
    167          7           0        5.604685   -1.917327    2.041783
    168          6           0        6.346020   -2.553462    3.125413
    169          1           0        7.080875   -3.240830    2.707076
    170          1           0        6.855926   -1.791080    3.714052
    171          1           0        5.655447   -3.105254    3.764249
    172          1           0        5.188887   -2.505595    1.338894
    173         20           0       -1.297977    0.359173   -1.101497
    174          8           0       -1.056834   -2.018422   -2.138509
    175          1           0       -1.550913   -1.937089   -2.955009
    176          1           0       -0.681972   -2.898475   -2.175728
 ---------------------------------------------------------------------

 SCF Done:  E(RB3LYP) =  -5333.53112377     A.U. after   18 cycles

 The electronic state is 1-A.
 Alpha  occ. eigenvalues -- -145.35004 -19.20356 -19.19724 -19.14771 -19.14052
 Alpha  occ. eigenvalues --  -19.12122 -19.11797 -19.10960 -19.09764 -19.09004
 Alpha  occ. eigenvalues --  -19.08056 -19.07292 -19.06963 -19.06391 -19.06240
 Alpha  occ. eigenvalues --  -19.06016 -19.06015 -19.05239 -19.04616 -19.04084
 Alpha  occ. eigenvalues --  -19.03872 -19.03715 -19.01619 -18.99352 -15.40735
 Alpha  occ. eigenvalues --  -14.58180 -14.41046 -14.38889 -14.38723 -14.35772
 Alpha  occ. eigenvalues --  -14.35509 -14.35037 -14.35003 -14.33986 -14.32559
 Alpha  occ. eigenvalues --  -14.32316 -14.31221 -14.30495 -14.30345 -14.30204
 Alpha  occ. eigenvalues --  -12.54356 -12.54314 -12.54292 -10.34916 -10.33520
 Alpha  occ. eigenvalues --  -10.30938 -10.30423 -10.30285 -10.29250 -10.28917
 Alpha  occ. eigenvalues --  -10.28534 -10.28223 -10.28183 -10.27190 -10.26882
 Alpha  occ. eigenvalues --  -10.26783 -10.25734 -10.25654 -10.25537 -10.25361
 Alpha  occ. eigenvalues --  -10.25190 -10.25012 -10.24090 -10.23541 -10.23527
 Alpha  occ. eigenvalues --  -10.23405 -10.23396 -10.23300 -10.23095 -10.22907
 Alpha  occ. eigenvalues --  -10.22663 -10.22415 -10.21822 -10.21502 -10.20779
 Alpha  occ. eigenvalues --  -10.20753 -10.20687 -10.20497 -10.18746 -10.18646
 Alpha  occ. eigenvalues --  -10.18613 -10.18609 -10.18587 -10.18315 -10.18233
 Alpha  occ. eigenvalues --  -10.17941 -10.17786 -10.17012 -10.16833 -10.16748
 Alpha  occ. eigenvalues --  -10.16558 -10.16511 -10.15776 -10.15761 -10.15246
 Alpha  occ. eigenvalues --  -10.15231 -10.13316  -1.77607  -1.13558  -1.09446
 Alpha  occ. eigenvalues --   -1.08197  -1.06363  -1.05330  -1.05201  -1.05153
 Alpha  occ. eigenvalues --   -1.04788  -1.04559  -1.03660  -1.03211  -1.02391
 Alpha  occ. eigenvalues --   -1.02186  -1.01240  -1.01187  -1.00361  -1.00106
 Alpha  occ. eigenvalues --   -0.99789  -0.99352  -0.99085  -0.98456  -0.98200
 Alpha  occ. eigenvalues --   -0.97951  -0.97135  -0.95751  -0.95686  -0.95017
 Alpha  occ. eigenvalues --   -0.92319  -0.92130  -0.91619  -0.90994  -0.90493
 Alpha  occ. eigenvalues --   -0.90273  -0.90128  -0.89677  -0.89021  -0.88545
 Alpha  occ. eigenvalues --   -0.88493  -0.87507  -0.87037  -0.85982  -0.84441
 Alpha  occ. eigenvalues --   -0.83850  -0.82890  -0.82617  -0.81515  -0.80289
 Alpha  occ. eigenvalues --   -0.79649  -0.78801  -0.77481  -0.77387  -0.75659
 Alpha  occ. eigenvalues --   -0.75542  -0.73579  -0.73509  -0.72700  -0.72334
 Alpha  occ. eigenvalues --   -0.72003  -0.71981  -0.71627  -0.71129  -0.71080
 Alpha  occ. eigenvalues --   -0.70336  -0.69784  -0.69040  -0.68584  -0.68490
 Alpha  occ. eigenvalues --   -0.67310  -0.66272  -0.65606  -0.65310  -0.65183
 Alpha  occ. eigenvalues --   -0.64124  -0.63454  -0.63195  -0.62828  -0.62610
 Alpha  occ. eigenvalues --   -0.62119  -0.61521  -0.61383  -0.60300  -0.59968
 Alpha  occ. eigenvalues --   -0.59835  -0.59275  -0.59021  -0.58601  -0.58373
 Alpha  occ. eigenvalues --   -0.57703  -0.57513  -0.56656  -0.56599  -0.56112
 Alpha  occ. eigenvalues --   -0.55868  -0.55610  -0.55538  -0.55437  -0.55226
 Alpha  occ. eigenvalues --   -0.55032  -0.54860  -0.54227  -0.53811  -0.53792
 Alpha  occ. eigenvalues --   -0.53263  -0.53043  -0.52988  -0.52840  -0.52704
 Alpha  occ. eigenvalues --   -0.51928  -0.51734  -0.51418  -0.51250  -0.50276
 Alpha  occ. eigenvalues --   -0.49518  -0.49255  -0.49093  -0.48587  -0.48435
 Alpha  occ. eigenvalues --   -0.48321  -0.48011  -0.47797  -0.47628  -0.47568
 Alpha  occ. eigenvalues --   -0.47522  -0.47377  -0.47085  -0.46777  -0.46200
 Alpha  occ. eigenvalues --   -0.46159  -0.45925  -0.45875  -0.45773  -0.45564
 Alpha  occ. eigenvalues --   -0.45348  -0.45056  -0.45040  -0.44885  -0.44826
 Alpha  occ. eigenvalues --   -0.44657  -0.44413  -0.44409  -0.44306  -0.43848
 Alpha  occ. eigenvalues --   -0.43749  -0.43701  -0.43385  -0.43301  -0.43072
 Alpha  occ. eigenvalues --   -0.42646  -0.42485  -0.42427  -0.42335  -0.42272
 Alpha  occ. eigenvalues --   -0.41931  -0.41797  -0.41696  -0.41559  -0.41226
 Alpha  occ. eigenvalues --   -0.41155  -0.41119  -0.41022  -0.40852  -0.40696
 Alpha  occ. eigenvalues --   -0.40563  -0.40367  -0.40256  -0.40167  -0.40096
 Alpha  occ. eigenvalues --   -0.39982  -0.39784  -0.39606  -0.39351  -0.39155
 Alpha  occ. eigenvalues --   -0.38989  -0.38895  -0.38683  -0.38586  -0.38494
 Alpha  occ. eigenvalues --   -0.38309  -0.38134  -0.38106  -0.38040  -0.37969
 Alpha  occ. eigenvalues --   -0.37805  -0.37674  -0.37446  -0.37148  -0.36927
 Alpha  occ. eigenvalues --   -0.36821  -0.36713  -0.36620  -0.36464  -0.36285
 Alpha  occ. eigenvalues --   -0.36116  -0.35979  -0.35798  -0.35510  -0.35373
 Alpha  occ. eigenvalues --   -0.35118  -0.35020  -0.34761  -0.34740  -0.34642
 Alpha  occ. eigenvalues --   -0.34397  -0.34104  -0.33934  -0.33761  -0.33516
 Alpha  occ. eigenvalues --   -0.33353  -0.33218  -0.33134  -0.32989  -0.32695
 Alpha  occ. eigenvalues --   -0.32639  -0.32369  -0.32119  -0.31892  -0.31642
 Alpha  occ. eigenvalues --   -0.31162  -0.30804  -0.30688  -0.30614  -0.30185
 Alpha  occ. eigenvalues --   -0.29685  -0.29550  -0.29338  -0.29055  -0.27595
 Alpha  occ. eigenvalues --   -0.27383  -0.26718  -0.26629  -0.26396  -0.26260
 Alpha  occ. eigenvalues --   -0.25665  -0.25488  -0.25314  -0.25096  -0.24697
 Alpha  occ. eigenvalues --   -0.24046  -0.23792  -0.23484  -0.23474  -0.23346
 Alpha  occ. eigenvalues --   -0.22882  -0.22759  -0.22429  -0.22117  -0.21857
 Alpha  occ. eigenvalues --   -0.21670  -0.21547  -0.21386  -0.21199  -0.20758
 Alpha  occ. eigenvalues --   -0.20357  -0.20200  -0.19941  -0.19750  -0.19546
 Alpha  occ. eigenvalues --   -0.19448  -0.18072  -0.14936
 Alpha virt. eigenvalues --   -0.09789  -0.04613  -0.04203  -0.03752  -0.03525
 Alpha virt. eigenvalues --   -0.02632  -0.01742  -0.01343  -0.01031  -0.00309
 Alpha virt. eigenvalues --    0.00675   0.00744   0.01004   0.01114   0.01409

 Mulliken charges:
               1
     1  C    0.049522
     2  C   -0.001141
     3  O   -0.302772
     4  H    0.041380
     5  H    0.035263
     6  H    0.008415
     7  N   -0.123250
     8  C    0.148958
     9  C    0.059961
    10  O   -0.286003
    11  C    0.076902
    12  C    0.115834
    13  O   -0.386930
    14  O   -0.420470
    15  H    0.114085
    16  H   -0.024469
    17  H   -0.005455
    18  H    0.018751
    19  N   -0.115123
    20  C    0.166538
    21  C    0.084987
    22  O   -0.299849
    23  C   -0.048145
    24  C   -0.007231
    25  C   -0.015876
    26  C    0.043033
    27  N    0.077527
    28  H    0.132544
    29  H    0.005445
    30  H    0.030262
    31  H    0.017140
    32  H   -0.008836
    33  H    0.016898
    34  H    0.058773
    35  H    0.032133
    36  H    0.079834
    37  H    0.057862
    38  H    0.206098
    39  H    0.186305
    40  H    0.193324
    41  N   -0.155023
    42  C    0.150867
    43  C    0.046244
    44  O   -0.295004
    45  C    0.052611
    46  C    0.122569
    47  O   -0.457465
    48  O   -0.398073
    49  H    0.175773
    50  H    0.000509
    51  H    0.006840
    52  H    0.004697
    53  N   -0.159527
    54  C    0.278953
    55  C   -0.007895
    56  O   -0.301168
    57  H    0.121866
    58  H    0.012288
    59  H    0.005494
    60  N   -0.183055
    61  C    0.157932
    62  C    0.038460
    63  O   -0.290776
    64  C    0.124803
    65  C    0.080441
    66  N   -0.013489
    67  O   -0.364057
    68  H    0.152216
    69  H    0.034765
    70  H    0.073175
    71  H    0.004075
    72  H    0.139586
    73  H    0.093499
    74  N   -0.160604
    75  C    0.246469
    76  C    0.011921
    77  O   -0.287751
    78  H    0.130863
    79  H    0.049262
    80  H    0.033761
    81  N   -0.142730
    82  C    0.120437
    83  C    0.129085
    84  O   -0.323448
    85  C    0.189367
    86  C   -0.073187
    87  C    0.040317
    88  C    0.007161
    89  C   -0.020859
    90  C   -0.032775
    91  C    0.179827
    92  O   -0.215234
    93  H    0.140070
    94  H    0.009147
    95  H   -0.036788
    96  H   -0.038433
    97  H   -0.030253
    98  H   -0.044710
    99  H   -0.019366
   100  H   -0.048692
   101  H    0.170464
   102  N   -0.130656
   103  C    0.142052
   104  C    0.043613
   105  O   -0.269028
   106  C   -0.069218
   107  C   -0.014433
   108  C    0.065371
   109  C    0.037376
   110  H    0.123194
   111  H    0.011611
   112  H   -0.023174
   113  H    0.027211
   114  H    0.022997
   115  H    0.008369
   116  H    0.017802
   117  H   -0.015365
   118  H    0.021600
   119  H   -0.002184
   120  H   -0.010516
   121  N   -0.131429
   122  C    0.109407
   123  C    0.115168
   124  O   -0.274293
   125  C    0.198500
   126  O   -0.296838
   127  H    0.165080
   128  H    0.018469
   129  H    0.018182
   130  H   -0.018785
   131  H    0.189897
   132  N   -0.133207
   133  C    0.090317
   134  C    0.075069
   135  O   -0.234213
   136  C    0.044725
   137  H    0.114772
   138  H    0.029229
   139  H   -0.006759
   140  H    0.046599
   141  H    0.043632
   142  N   -0.130343
   143  C    0.106861
   144  C    0.042329
   145  O   -0.297259
   146  C    0.027722
   147  H    0.094157
   148  H    0.028314
   149  H    0.017914
   150  H   -0.022550
   151  H    0.036275
   152  N   -0.137337
   153  C    0.123417
   154  C    0.059512
   155  O   -0.270144
   156  C    0.016176
   157  C    0.109173
   158  C    0.113977
   159  O   -0.405347
   160  O   -0.438336
   161  H    0.120256
   162  H   -0.043495
   163  H    0.056671
   164  H   -0.013896
   165  H   -0.050128
   166  H   -0.034077
   167  N   -0.164422
   168  C    0.131810
   169  H    0.021548
   170  H    0.031193
   171  H    0.001053
   172  H    0.126924
   173  Ca   1.265173
   174  O   -0.273575
   175  H    0.171534
   176  H    0.181097
 Sum of Mulliken charges =  -0.00000

 Dipole moment (field-independent basis, Debye):
    X=             32.7250    Y=             -3.1415    Z=            -16.2761  Tot=             36.6838
 Quadrupole moment (field-independent basis, Debye-Ang):
   XX=           -565.2952   YY=           -468.4232   ZZ=           -528.7034
   XY=            122.9138   XZ=            -98.9563   YZ=             27.4452

 ESP charges:
               1
     1  C   -0.455975
     2  C    0.771856
     3  O   -0.624553
     4  H    0.137513
     5  H    0.121164
     6  H    0.104344
     7  N   -0.685976
     8  C    0.296722
     9  C    0.531002
    10  O   -0.536906
    11  C   -0.233470
    12  C    0.766949
    13  O   -0.737480
    14  O   -0.734969
    15  H    0.318832
    16  H    0.033884
    17  H    0.061005
    18  H    0.069207
    19  N   -0.482535
    20  C   -0.105500
    21  C    0.574275
    22  O   -0.565115
    23  C   -0.037631
    24  C    0.098879
    25  C   -0.230496
    26  C    0.089397
    27  N   -0.425823
    28  H    0.292478
    29  H    0.126202
    30  H    0.031577
    31  H    0.059109
    32  H   -0.035921
    33  H    0.036106
    34  H    0.126448
    35  H    0.088904
    36  H    0.073022
    37  H    0.064934
    38  H    0.359157
    39  H    0.361508
    40  H    0.336163
    41  N   -0.395891
    42  C    0.084668
    43  C    0.287725
    44  O   -0.490714
    45  C   -0.351038
    46  C    0.840339
    47  O   -0.765547
    48  O   -0.734219
    49  H    0.358138
    50  H    0.119081
    51  H    0.116823
    52  H    0.088270
    53  N   -0.048110
    54  C   -0.011042
    55  C    0.477217
    56  O   -0.594036
    57  H    0.026158
    58  H    0.064252
    59  H    0.055302
    60  N    0.042555
    61  C   -0.067704
    62  C    0.381789
    63  O   -0.491081
    64  C   -0.137464
    65  C    0.459034
    66  N   -0.661625
    67  O   -0.398980
    68  H   -0.129424
    69  H    0.127474
    70  H    0.119764
    71  H    0.081748
    72  H    0.361517
    73  H    0.308201
    74  N   -0.152007
    75  C   -0.358137
    76  C    0.639794
    77  O   -0.570244
    78  H    0.212495
    79  H    0.172313
    80  H    0.145832
    81  N   -0.253500
    82  C   -0.137326
    83  C    0.630324
    84  O   -0.521698
    85  C    0.297142
    86  C   -0.433933
    87  C    0.218215
    88  C    0.135457
    89  C   -0.481525
    90  C   -0.492716
    91  C    0.587028
    92  O   -0.601256
    93  H    0.141584
    94  H    0.102212
    95  H   -0.051114
    96  H    0.013438
    97  H    0.033981
    98  H    0.074775
    99  H    0.207127
   100  H    0.165794
   101  H    0.416890
   102  N   -0.738012
   103  C    0.344365
   104  C    0.508033
   105  O   -0.544750
   106  C   -0.058995
   107  C    0.215258
   108  C   -0.282242
   109  C   -0.300408
   110  H    0.330255
   111  H   -0.026507
   112  H    0.045958
   113  H    0.009663
   114  H    0.043777
   115  H    0.086874
   116  H    0.103819
   117  H   -0.035807
   118  H    0.074994
   119  H    0.062331
   120  H    0.056313
   121  N   -0.256507
   122  C   -0.170559
   123  C    0.546970
   124  O   -0.419581
   125  C    0.109367
   126  O   -0.431127
   127  H    0.294782
   128  H    0.111080
   129  H    0.051488
   130  H    0.013253
   131  H    0.398000
   132  N   -0.437588
   133  C    0.180721
   134  C    0.434716
   135  O   -0.473929
   136  C   -0.378704
   137  H    0.280079
   138  H    0.076190
   139  H    0.074481
   140  H    0.137008
   141  H    0.132193
   142  N   -0.463314
   143  C    0.299731
   144  C    0.250419
   145  O   -0.537042
   146  C   -0.376341
   147  H    0.280119
   148  H    0.075697
   149  H    0.094200
   150  H    0.075871
   151  H    0.113864
   152  N    0.096376
   153  C   -0.031252
   154  C    0.543808
   155  O   -0.576994
   156  C    0.139535
   157  C   -0.400653
   158  C    0.837052
   159  O   -0.752001
   160  O   -0.764060
   161  H   -0.074257
   162  H    0.011119
   163  H    0.075453
   164  H   -0.170751
   165  H    0.030853
   166  H    0.119723
   167  N   -0.195492
   168  C   -0.100399
   169  H    0.039768
   170  H    0.093749
   171  H    0.029438
   172  H    0.208838
   173  Ca   1.601053
   174  O   -0.891459
   175  H    0.415039
   176  H    0.432651
 Sum of ESP charges =   0.00000

 Normal termination of Gaussian 16 at Sat Sep 14 22:37:39 2019.
