 Gaussian 16, Revision A.03,
 Gaussian 16:  ES64L-G16RevA.03 25-Dec-2016

 ----------------------------------------------------------------------
 #b3lyp/svp scf=(tight,noincore) Test #IOP(5/87=12) Density=Current Pop
 =(MK,readradii) iop(6/33=2) iop(6/42=6)
 ----------------------------------------------------------------------

 ------------------
 holoCaM_loop3_87.0
 ------------------
 Symbolic Z-matrix:
 Charge =  0 Multiplicity = 1

                         Standard orientation:
 ---------------------------------------------------------------------
 Center     Atomic      Atomic             Coordinates (Angstroms)
 Number     Number       Type             X           Y           Z
 ---------------------------------------------------------------------
      1          6           0        2.350364    1.440557    6.432323
      2          6           0        2.002716    1.532451    4.949422
      3          8           0        2.876265    1.498690    4.089088
      4          1           0        2.478202    2.444294    6.837754
      5          1           0        1.544530    0.934687    6.964051
      6          1           0        3.276242    0.879389    6.554653
      7          7           0        0.715206    1.620260    4.617147
      8          6           0        0.119341    1.703035    3.305433
      9          6           0        0.262097    3.161933    2.886818
     10          8           0       -0.258165    4.111225    3.474586
     11          6           0       -1.328662    1.225332    3.283380
     12          6           0       -1.872769    1.112583    1.856377
     13          8           0       -1.098579    1.267765    0.887746
     14          8           0       -3.067740    0.845156    1.632933
     15          1           0        0.043045    1.541382    5.368597
     16          1           0        0.688120    1.106118    2.582467
     17          1           0       -1.944566    1.862333    3.901596
     18          1           0       -1.359619    0.215831    3.690011
     19          7           0        0.768777    3.348929    1.666937
     20          6           0        0.920735    4.659526    1.063329
     21          6           0       -0.352515    5.142547    0.388995
     22          8           0       -0.752070    6.258105    0.735962
     23          6           0        2.113007    4.662925    0.113921
     24          6           0        2.286028    6.045321   -0.521331
     25          6           0        3.542326    6.282785   -1.358425
     26          6           0        3.747804    7.761833   -1.629527
     27          7           0        4.787181    7.889120   -2.655584
     28          1           0        1.153544    2.592362    1.126047
     29          1           0        1.186072    5.343357    1.862436
     30          1           0        2.034545    3.870571   -0.633219
     31          1           0        3.021643    4.559568    0.692798
     32          1           0        2.367170    6.657669    0.384840
     33          1           0        1.422781    6.233838   -1.154867
     34          1           0        3.518230    5.722735   -2.291251
     35          1           0        4.432104    6.029295   -0.769325
     36          1           0        4.083221    8.219517   -0.696457
     37          1           0        2.811064    8.218972   -1.945824
     38          1           0        5.399181    8.685864   -2.532477
     39          1           0        5.380480    7.068574   -2.665606
     40          1           0        4.285392    7.979650   -3.533144
     41          7           0       -0.983861    4.446166   -0.565288
     42          6           0       -2.082772    5.042135   -1.293927
     43          6           0       -3.399721    4.735166   -0.591705
     44          8           0       -4.430552    5.287946   -0.978000
     45          6           0       -2.041706    4.618406   -2.765242
     46          6           0       -1.932766    3.111662   -2.986048
     47          8           0       -2.422326    2.310513   -2.165444
     48          8           0       -1.491571    2.834962   -4.122878
     49          1           0       -0.776622    3.472019   -0.716251
     50          1           0       -1.993028    6.126784   -1.329753
     51          1           0       -1.139054    5.006200   -3.250149
     52          1           0       -2.936523    4.966182   -3.270171
     53          7           0       -3.447071    3.987156    0.514251
     54          6           0       -4.710304    3.805412    1.198220
     55          6           0       -5.863201    3.147912    0.449540
     56          8           0       -7.026724    3.342818    0.784092
     57          1           0       -2.615878    3.466713    0.743067
     58          1           0       -5.074999    4.747726    1.598771
     59          1           0       -4.525303    3.212581    2.096734
     60          7           0       -5.436110    2.195045   -0.382167
     61          6           0       -6.387097    1.264047   -0.950205
     62          6           0       -6.645628    0.062794   -0.052513
     63          8           0       -7.143696   -0.941255   -0.544867
     64          6           0       -5.904656    0.874788   -2.343413
     65          6           0       -4.713671   -0.077897   -2.350217
     66          7           0       -4.521190   -0.751507   -3.485030
     67          8           0       -4.106829   -0.344821   -1.316295
     68          1           0       -4.437762    2.094261   -0.480376
     69          1           0       -7.385808    1.689498   -1.063634
     70          1           0       -5.584097    1.751626   -2.912005
     71          1           0       -6.746678    0.409139   -2.860685
     72          1           0       -4.965527   -0.399188   -4.314992
     73          1           0       -3.820235   -1.468711   -3.647140
     74          7           0       -5.987047    0.000413    1.107048
     75          6           0       -6.201697   -1.137789    1.974758
     76          6           0       -5.329485   -2.364875    1.771518
     77          8           0       -5.709661   -3.484111    2.123339
     78          1           0       -5.478518    0.832591    1.393367
     79          1           0       -7.223923   -1.492920    1.926434
     80          1           0       -6.040121   -0.850027    3.016480
     81          7           0       -4.138782   -2.369340    1.163483
     82          6           0       -3.188749   -3.459068    1.096172
     83          6           0       -1.802250   -2.817807    1.078649
     84          8           0       -1.637958   -1.685211    0.632404
     85          6           0       -3.416757   -4.452192   -0.038560
     86          6           0       -4.834862   -4.533392   -0.550503
     87          6           0       -5.166749   -3.624598   -1.559881
     88          6           0       -5.620764   -5.634149   -0.186646
     89          6           0       -6.328649   -3.880594   -2.297888
     90          6           0       -6.778905   -5.857221   -0.923292
     91          6           0       -7.140814   -4.974336   -1.957718
     92          8           0       -8.379179   -5.064871   -2.519728
     93          1           0       -3.809374   -1.464958    0.859208
     94          1           0       -3.301207   -4.060728    2.001024
     95          1           0       -3.053331   -5.416119    0.307368
     96          1           0       -2.813686   -4.112779   -0.876894
     97          1           0       -4.423085   -2.890434   -1.829263
     98          1           0       -5.440445   -6.308780    0.646395
     99          1           0       -6.737158   -3.266820   -3.085925
    100          1           0       -7.413807   -6.675668   -0.605259
    101          1           0       -8.824821   -5.861669   -2.219367
    102          7           0       -0.855560   -3.583120    1.621947
    103          6           0        0.566317   -3.275718    1.647867
    104          6           0        1.365535   -4.245728    0.791111
    105          8           0        1.136693   -5.451530    0.835517
    106          6           0        1.108803   -3.259738    3.069117
    107          6           0        0.391816   -2.309039    4.018959
    108          6           0        2.606024   -2.975113    3.144071
    109          6           0        0.358672   -2.796172    5.460834
    110          1           0       -1.177086   -4.301556    2.255406
    111          1           0        0.664337   -2.239910    1.301322
    112          1           0        0.886584   -4.256023    3.463750
    113          1           0       -0.656609   -2.226636    3.745074
    114          1           0        0.850359   -1.316942    4.028101
    115          1           0        2.889881   -2.023028    2.693339
    116          1           0        2.903345   -2.982732    4.196897
    117          1           0        3.201991   -3.678504    2.570517
    118          1           0        1.356354   -2.900639    5.894213
    119          1           0       -0.219675   -2.022715    5.980718
    120          1           0       -0.169520   -3.752943    5.450721
    121          7           0        2.187931   -3.621270   -0.054003
    122          6           0        3.066068   -4.196294   -1.058604
    123          6           0        4.506219   -3.711991   -0.954120
    124          8           0        4.889885   -2.992310   -0.026510
    125          6           0        2.526237   -3.843631   -2.441178
    126          8           0        2.785455   -2.491334   -2.733408
    127          1           0        2.285487   -2.632614    0.079948
    128          1           0        3.053176   -5.281610   -0.998419
    129          1           0        1.439986   -3.988062   -2.486993
    130          1           0        3.020549   -4.458045   -3.196527
    131          1           0        2.128343   -1.948809   -2.287459
    132          7           0        5.422980   -4.427578   -1.604108
    133          6           0        6.857575   -4.429812   -1.396905
    134          6           0        7.425284   -3.015836   -1.388089
    135          8           0        8.159789   -2.682753   -0.453125
    136          6           0        7.449392   -5.330678   -2.471844
    137          1           0        5.190726   -5.100468   -2.318445
    138          1           0        7.058239   -4.976899   -0.472659
    139          1           0        7.215735   -5.060999   -3.500764
    140          1           0        8.539309   -5.331623   -2.519584
    141          1           0        7.246006   -6.369620   -2.199382
    142          7           0        7.067517   -2.231662   -2.397234
    143          6           0        7.610941   -0.889989   -2.555996
    144          6           0        7.136348    0.086016   -1.491677
    145          8           0        7.845752    0.965924   -1.004432
    146          6           0        7.095595   -0.360156   -3.883699
    147          1           0        6.539670   -2.622595   -3.164729
    148          1           0        8.696584   -0.911580   -2.533341
    149          1           0        7.492125   -0.926343   -4.727438
    150          1           0        6.005498   -0.419382   -3.849356
    151          1           0        7.364537    0.682983   -4.071398
    152          7           0        5.925997   -0.137509   -0.971592
    153          6           0        5.316830    0.635334    0.088894
    154          6           0        5.928066    0.315136    1.444129
    155          8           0        6.225606    1.198519    2.249738
    156          6           0        3.792694    0.547317    0.034456
    157          6           0        3.107307    0.732873   -1.312212
    158          6           0        1.599714    0.501990   -1.262650
    159          8           0        1.220545   -0.686254   -1.227904
    160          8           0        0.764315    1.432061   -1.323280
    161          1           0        5.411639   -0.953255   -1.271913
    162          1           0        5.509529    1.696826   -0.038388
    163          1           0        3.368031    1.274741    0.729161
    164          1           0        3.460473   -0.444753    0.336992
    165          1           0        3.568202    0.031630   -2.005561
    166          1           0        3.320414    1.759329   -1.603371
    167          7           0        6.210430   -0.979688    1.642625
    168          6           0        6.942847   -1.531720    2.761074
    169          1           0        7.735506   -0.842394    3.051443
    170          1           0        6.265422   -1.680515    3.601934
    171          1           0        7.381463   -2.487410    2.472601
    172          1           0        5.902201   -1.543847    0.858968
    173         20           0       -1.537582    0.223426   -1.290518
    174          8           0       -1.222598    0.215367   -4.094982
    175          1           0       -1.274878    1.164851   -4.216010
    176          1           0       -0.576066   -0.081366   -4.726604
 ---------------------------------------------------------------------

 SCF Done:  E(RB3LYP) =  -5333.60503078     A.U. after   20 cycles

 The electronic state is 1-A.
 Alpha  occ. eigenvalues -- -145.36179 -19.13624 -19.13029 -19.12744 -19.12012
 Alpha  occ. eigenvalues --  -19.11983 -19.11362 -19.10799 -19.09836 -19.08442
 Alpha  occ. eigenvalues --  -19.08139 -19.07521 -19.07500 -19.07033 -19.06560
 Alpha  occ. eigenvalues --  -19.06415 -19.05976 -19.05697 -19.05565 -19.05160
 Alpha  occ. eigenvalues --  -19.04952 -19.04851 -19.04791 -19.03817 -15.41952
 Alpha  occ. eigenvalues --  -14.59320 -14.38611 -14.37843 -14.36664 -14.36622
 Alpha  occ. eigenvalues --  -14.35976 -14.34286 -14.33212 -14.33160 -14.32491
 Alpha  occ. eigenvalues --  -14.31813 -14.31610 -14.31506 -14.30938 -14.30612
 Alpha  occ. eigenvalues --  -12.55553 -12.55530 -12.55512 -10.35069 -10.31695
 Alpha  occ. eigenvalues --  -10.30311 -10.29772 -10.29702 -10.28426 -10.27721
 Alpha  occ. eigenvalues --  -10.27424 -10.26711 -10.25887 -10.25842 -10.25812
 Alpha  occ. eigenvalues --  -10.25376 -10.25007 -10.25006 -10.24897 -10.24587
 Alpha  occ. eigenvalues --  -10.24417 -10.24280 -10.24221 -10.24106 -10.23968
 Alpha  occ. eigenvalues --  -10.23745 -10.23195 -10.22646 -10.22243 -10.22118
 Alpha  occ. eigenvalues --  -10.21835 -10.21723 -10.21055 -10.21047 -10.20957
 Alpha  occ. eigenvalues --  -10.20679 -10.20406 -10.20402 -10.19951 -10.19094
 Alpha  occ. eigenvalues --  -10.18822 -10.18569 -10.18459 -10.17912 -10.17504
 Alpha  occ. eigenvalues --  -10.17488 -10.17457 -10.17348 -10.17221 -10.16887
 Alpha  occ. eigenvalues --  -10.16856 -10.16573 -10.16453 -10.16302 -10.16166
 Alpha  occ. eigenvalues --  -10.16101 -10.15946  -1.78937  -1.14649  -1.06614
 Alpha  occ. eigenvalues --   -1.06597  -1.06345  -1.06310  -1.04457  -1.04408
 Alpha  occ. eigenvalues --   -1.03649  -1.02614  -1.02424  -1.02383  -1.01480
 Alpha  occ. eigenvalues --   -1.01392  -1.01132  -1.00633  -1.00048  -0.99808
 Alpha  occ. eigenvalues --   -0.99596  -0.99108  -0.98847  -0.98492  -0.97975
 Alpha  occ. eigenvalues --   -0.97802  -0.97534  -0.95676  -0.94324  -0.93595
 Alpha  occ. eigenvalues --   -0.92935  -0.92164  -0.91740  -0.91686  -0.90945
 Alpha  occ. eigenvalues --   -0.90130  -0.89836  -0.89714  -0.89563  -0.89079
 Alpha  occ. eigenvalues --   -0.88768  -0.88068  -0.87592  -0.86934  -0.86881
 Alpha  occ. eigenvalues --   -0.82328  -0.82071  -0.81518  -0.81394  -0.79445
 Alpha  occ. eigenvalues --   -0.77828  -0.77378  -0.76974  -0.76816  -0.76581
 Alpha  occ. eigenvalues --   -0.75665  -0.74842  -0.74063  -0.73986  -0.72667
 Alpha  occ. eigenvalues --   -0.71971  -0.71648  -0.71611  -0.70756  -0.70686
 Alpha  occ. eigenvalues --   -0.69556  -0.69062  -0.68594  -0.67769  -0.67241
 Alpha  occ. eigenvalues --   -0.66418  -0.65828  -0.65630  -0.64252  -0.64038
 Alpha  occ. eigenvalues --   -0.63564  -0.63371  -0.62667  -0.61991  -0.61454
 Alpha  occ. eigenvalues --   -0.60875  -0.60199  -0.60123  -0.59915  -0.59555
 Alpha  occ. eigenvalues --   -0.59138  -0.58769  -0.58336  -0.57603  -0.57215
 Alpha  occ. eigenvalues --   -0.57134  -0.56768  -0.56622  -0.56454  -0.55625
 Alpha  occ. eigenvalues --   -0.55460  -0.55267  -0.54556  -0.54190  -0.54067
 Alpha  occ. eigenvalues --   -0.53594  -0.53457  -0.53053  -0.52656  -0.52517
 Alpha  occ. eigenvalues --   -0.52418  -0.52078  -0.51894  -0.51322  -0.51185
 Alpha  occ. eigenvalues --   -0.50819  -0.50545  -0.50107  -0.49950  -0.49694
 Alpha  occ. eigenvalues --   -0.49350  -0.48839  -0.48681  -0.48527  -0.48296
 Alpha  occ. eigenvalues --   -0.48190  -0.48098  -0.47916  -0.47626  -0.47594
 Alpha  occ. eigenvalues --   -0.47429  -0.47283  -0.47125  -0.46809  -0.46421
 Alpha  occ. eigenvalues --   -0.46335  -0.45568  -0.45449  -0.45083  -0.44807
 Alpha  occ. eigenvalues --   -0.44592  -0.44527  -0.44183  -0.44102  -0.44088
 Alpha  occ. eigenvalues --   -0.43966  -0.43855  -0.43661  -0.43460  -0.43302
 Alpha  occ. eigenvalues --   -0.43112  -0.43014  -0.42880  -0.42704  -0.42427
 Alpha  occ. eigenvalues --   -0.42418  -0.42255  -0.41885  -0.41826  -0.41601
 Alpha  occ. eigenvalues --   -0.41536  -0.41344  -0.41257  -0.41133  -0.41054
 Alpha  occ. eigenvalues --   -0.40964  -0.40869  -0.40617  -0.40463  -0.40394
 Alpha  occ. eigenvalues --   -0.40324  -0.40233  -0.40139  -0.39975  -0.39746
 Alpha  occ. eigenvalues --   -0.39560  -0.39344  -0.39293  -0.39108  -0.38988
 Alpha  occ. eigenvalues --   -0.38874  -0.38658  -0.38494  -0.38306  -0.38274
 Alpha  occ. eigenvalues --   -0.38101  -0.37978  -0.37905  -0.37854  -0.37771
 Alpha  occ. eigenvalues --   -0.37695  -0.37428  -0.37385  -0.37287  -0.37193
 Alpha  occ. eigenvalues --   -0.37167  -0.37066  -0.36723  -0.36404  -0.36268
 Alpha  occ. eigenvalues --   -0.35989  -0.35856  -0.35798  -0.35724  -0.35381
 Alpha  occ. eigenvalues --   -0.35179  -0.35079  -0.34835  -0.34484  -0.34435
 Alpha  occ. eigenvalues --   -0.34251  -0.34185  -0.33906  -0.33713  -0.33406
 Alpha  occ. eigenvalues --   -0.33154  -0.33090  -0.32895  -0.32779  -0.32595
 Alpha  occ. eigenvalues --   -0.32489  -0.31893  -0.31834  -0.31695  -0.31330
 Alpha  occ. eigenvalues --   -0.31296  -0.30157  -0.30106  -0.29960  -0.29449
 Alpha  occ. eigenvalues --   -0.29184  -0.28852  -0.28556  -0.28283  -0.27870
 Alpha  occ. eigenvalues --   -0.27479  -0.26326  -0.26222  -0.25853  -0.25722
 Alpha  occ. eigenvalues --   -0.25680  -0.25346  -0.25156  -0.25127  -0.24961
 Alpha  occ. eigenvalues --   -0.24674  -0.24400  -0.24077  -0.23838  -0.23730
 Alpha  occ. eigenvalues --   -0.23537  -0.23532  -0.23353  -0.23100  -0.22485
 Alpha  occ. eigenvalues --   -0.22367  -0.22021  -0.21719  -0.21602  -0.21303
 Alpha  occ. eigenvalues --   -0.21252  -0.20764  -0.20533  -0.20452  -0.20446
 Alpha  occ. eigenvalues --   -0.20332  -0.19418  -0.18831
 Alpha virt. eigenvalues --   -0.11158  -0.05828  -0.04995  -0.02264  -0.01583
 Alpha virt. eigenvalues --   -0.00506   0.00132   0.00339   0.00640   0.01007
 Alpha virt. eigenvalues --    0.01399   0.01805   0.02035   0.02249   0.02515

 Mulliken charges:
               1
     1  C    0.056501
     2  C    0.012095
     3  O   -0.280603
     4  H    0.042637
     5  H   -0.002032
     6  H    0.034857
     7  N   -0.117263
     8  C    0.085901
     9  C    0.087256
    10  O   -0.286600
    11  C    0.086262
    12  C    0.132069
    13  O   -0.481493
    14  O   -0.374371
    15  H    0.109208
    16  H   -0.000279
    17  H    0.012042
    18  H    0.006115
    19  N   -0.115900
    20  C    0.173266
    21  C    0.052448
    22  O   -0.281994
    23  C   -0.002436
    24  C   -0.021149
    25  C   -0.043483
    26  C    0.011509
    27  N    0.084618
    28  H    0.140009
    29  H   -0.005876
    30  H    0.031275
    31  H    0.013104
    32  H    0.020873
    33  H    0.041703
    34  H    0.028045
    35  H    0.029221
    36  H    0.081049
    37  H    0.084617
    38  H    0.192236
    39  H    0.194129
    40  H    0.203607
    41  N   -0.184598
    42  C    0.155220
    43  C    0.060873
    44  O   -0.298801
    45  C    0.098121
    46  C    0.133337
    47  O   -0.485682
    48  O   -0.387713
    49  H    0.159106
    50  H    0.010389
    51  H   -0.017147
    52  H    0.033619
    53  N   -0.155092
    54  C    0.224973
    55  C    0.029684
    56  O   -0.277002
    57  H    0.142088
    58  H    0.011929
    59  H    0.018451
    60  N   -0.180766
    61  C    0.166059
    62  C    0.054602
    63  O   -0.285423
    64  C    0.054056
    65  C    0.091512
    66  N   -0.029453
    67  O   -0.355393
    68  H    0.149725
    69  H    0.028627
    70  H    0.050175
    71  H    0.034383
    72  H    0.128402
    73  H    0.129532
    74  N   -0.136678
    75  C    0.263289
    76  C    0.027343
    77  O   -0.317056
    78  H    0.149288
    79  H    0.024917
    80  H    0.018461
    81  N   -0.140536
    82  C    0.066698
    83  C    0.116492
    84  O   -0.328822
    85  C    0.190174
    86  C   -0.009262
    87  C    0.072572
    88  C    0.025252
    89  C    0.002342
    90  C   -0.074855
    91  C    0.161362
    92  O   -0.199630
    93  H    0.155763
    94  H   -0.008113
    95  H   -0.013104
    96  H   -0.037161
    97  H   -0.081524
    98  H   -0.031562
    99  H   -0.042319
   100  H   -0.051625
   101  H    0.168031
   102  N   -0.111909
   103  C    0.109317
   104  C    0.093237
   105  O   -0.273072
   106  C   -0.110689
   107  C   -0.020287
   108  C    0.067980
   109  C    0.022312
   110  H    0.134385
   111  H    0.026242
   112  H   -0.020521
   113  H   -0.000760
   114  H    0.024393
   115  H    0.025186
   116  H    0.009400
   117  H    0.010767
   118  H    0.015639
   119  H    0.008905
   120  H    0.004532
   121  N   -0.132727
   122  C    0.057573
   123  C    0.141539
   124  O   -0.286372
   125  C    0.256755
   126  O   -0.358645
   127  H    0.145582
   128  H    0.025476
   129  H    0.015798
   130  H   -0.018951
   131  H    0.172228
   132  N   -0.124610
   133  C    0.090441
   134  C    0.080283
   135  O   -0.248515
   136  C   -0.001504
   137  H    0.110182
   138  H    0.020849
   139  H    0.011699
   140  H    0.031454
   141  H    0.036822
   142  N   -0.135485
   143  C    0.117223
   144  C    0.053473
   145  O   -0.263174
   146  C    0.016913
   147  H    0.115784
   148  H    0.017738
   149  H    0.017335
   150  H    0.022142
   151  H    0.024038
   152  N   -0.161856
   153  C    0.145806
   154  C    0.069908
   155  O   -0.274098
   156  C   -0.027628
   157  C    0.112202
   158  C    0.164587
   159  O   -0.441231
   160  O   -0.408312
   161  H    0.133187
   162  H   -0.022842
   163  H    0.022412
   164  H   -0.006043
   165  H   -0.020234
   166  H   -0.038703
   167  N   -0.173556
   168  C    0.155420
   169  H    0.025455
   170  H    0.011978
   171  H    0.014269
   172  H    0.129020
   173  Ca   1.267229
   174  O   -0.324858
   175  H    0.149286
   176  H    0.161491
 Sum of Mulliken charges =  -0.00000

 Dipole moment (field-independent basis, Debye):
    X=             25.1278    Y=             10.1231    Z=            -18.9014  Tot=             33.0325
 Quadrupole moment (field-independent basis, Debye-Ang):
   XX=           -619.3906   YY=           -364.7305   ZZ=           -500.0411
   XY=            144.8704   XZ=            -86.5633   YZ=            -71.5891

 ESP charges:
               1
     1  C   -0.450435
     2  C    0.821409
     3  O   -0.602713
     4  H    0.128627
     5  H    0.086833
     6  H    0.129068
     7  N   -0.767106
     8  C    0.088469
     9  C    0.722598
    10  O   -0.564775
    11  C   -0.410595
    12  C    0.817285
    13  O   -0.741939
    14  O   -0.710705
    15  H    0.374750
    16  H    0.104798
    17  H    0.130439
    18  H    0.111558
    19  N   -0.639475
    20  C    0.320400
    21  C    0.284146
    22  O   -0.547897
    23  C   -0.188650
    24  C   -0.283999
    25  C    0.215244
    26  C    0.047811
    27  N   -0.328148
    28  H    0.292904
    29  H    0.062264
    30  H    0.094978
    31  H    0.098766
    32  H    0.082173
    33  H    0.112970
    34  H   -0.018754
    35  H   -0.003736
    36  H    0.077497
    37  H    0.049348
    38  H    0.325675
    39  H    0.288171
    40  H    0.330441
    41  N   -0.073263
    42  C   -0.060835
    43  C    0.509324
    44  O   -0.548996
    45  C   -0.308399
    46  C    0.873575
    47  O   -0.773242
    48  O   -0.694068
    49  H    0.086937
    50  H    0.122869
    51  H    0.056173
    52  H    0.114042
    53  N   -0.222057
    54  C   -0.246641
    55  C    0.599285
    56  O   -0.568657
    57  H    0.270107
    58  H    0.117962
    59  H    0.111675
    60  N   -0.325294
    61  C   -0.005822
    62  C    0.199669
    63  O   -0.392372
    64  C   -0.251409
    65  C    0.710024
    66  N   -0.796165
    67  O   -0.471265
    68  H    0.192395
    69  H    0.144736
    70  H    0.106997
    71  H    0.087190
    72  H    0.354649
    73  H    0.393708
    74  N    0.063720
    75  C   -0.369840
    76  C    0.728549
    77  O   -0.572049
    78  H    0.160533
    79  H    0.147249
    80  H    0.116920
    81  N   -0.743983
    82  C    0.544651
    83  C    0.461687
    84  O   -0.505805
    85  C   -0.430997
    86  C    0.044351
    87  C    0.173850
    88  C   -0.039016
    89  C   -0.516475
    90  C   -0.426130
    91  C    0.477779
    92  O   -0.540774
    93  H    0.327388
    94  H   -0.025725
    95  H    0.099793
    96  H    0.091818
    97  H   -0.020537
    98  H    0.141018
    99  H    0.211197
   100  H    0.158931
   101  H    0.390368
   102  N   -0.582047
   103  C    0.047415
   104  C    0.662493
   105  O   -0.567312
   106  C   -0.118534
   107  C    0.447338
   108  C   -0.194173
   109  C   -0.419604
   110  H    0.326200
   111  H    0.033755
   112  H    0.043814
   113  H   -0.063587
   114  H   -0.034609
   115  H    0.016131
   116  H    0.077304
   117  H    0.035317
   118  H    0.096720
   119  H    0.078363
   120  H    0.080407
   121  N   -0.453353
   122  C    0.002395
   123  C    0.510545
   124  O   -0.422478
   125  C    0.093287
   126  O   -0.594092
   127  H    0.393278
   128  H    0.064266
   129  H    0.053428
   130  H    0.037309
   131  H    0.411356
   132  N   -0.410481
   133  C    0.113961
   134  C    0.437058
   135  O   -0.501414
   136  C   -0.362799
   137  H    0.261722
   138  H    0.096982
   139  H    0.086656
   140  H    0.124447
   141  H    0.116898
   142  N   -0.350020
   143  C    0.133580
   144  C    0.315197
   145  O   -0.501921
   146  C   -0.340553
   147  H    0.273208
   148  H    0.086913
   149  H    0.092295
   150  H    0.077067
   151  H    0.116990
   152  N    0.012310
   153  C   -0.212581
   154  C    0.529548
   155  O   -0.548087
   156  C    0.127729
   157  C   -0.268934
   158  C    0.848241
   159  O   -0.779525
   160  O   -0.746981
   161  H    0.097594
   162  H    0.076530
   163  H    0.032428
   164  H   -0.059968
   165  H    0.033992
   166  H    0.025932
   167  N   -0.103469
   168  C   -0.141462
   169  H    0.087648
   170  H    0.050324
   171  H    0.072179
   172  H    0.094323
   173  Ca   1.503997
   174  O   -0.882906
   175  H    0.406068
   176  H    0.416951
 Sum of ESP charges =  -0.00000

 Normal termination of Gaussian 16 at Sat Sep 14 23:27:12 2019.
