 Gaussian 16, Revision A.03,
 Gaussian 16:  ES64L-G16RevA.03 25-Dec-2016

 ----------------------------------------------------------------------
 #b3lyp/svp scf=(tight,noincore) Test #IOP(5/87=12) Density=Current Pop
 =(MK,readradii) iop(6/33=2) iop(6/42=6)
 ----------------------------------------------------------------------

 ------------------
 holoCaM_loop3_89.0
 ------------------
 Symbolic Z-matrix:
 Charge =  0 Multiplicity = 1

                         Standard orientation:
 ---------------------------------------------------------------------
 Center     Atomic      Atomic             Coordinates (Angstroms)
 Number     Number       Type             X           Y           Z
 ---------------------------------------------------------------------
      1          6           0        4.540570    2.848665    4.861772
      2          6           0        3.823431    2.726103    3.524352
      3          8           0        4.413558    2.602624    2.461807
      4          1           0        4.022463    3.576308    5.486312
      5          1           0        4.545898    1.879874    5.361223
      6          1           0        5.566442    3.178017    4.696110
      7          7           0        2.489697    2.761319    3.565742
      8          6           0        1.569944    2.785568    2.448081
      9          6           0        1.719883    4.017624    1.561201
     10          8           0        2.020470    5.070707    2.100426
     11          6           0        0.129414    2.677320    2.915045
     12          6           0       -0.893051    2.601054    1.781666
     13          8           0       -1.354131    1.512311    1.399509
     14          8           0       -1.300782    3.676165    1.279977
     15          1           0        2.007341    2.659906    4.446054
     16          1           0        1.724154    1.869092    1.874241
     17          1           0       -0.060983    3.645764    3.380304
     18          1           0       -0.084023    1.911081    3.661987
     19          7           0        1.390329    3.979896    0.265991
     20          6           0        1.713740    5.029488   -0.676698
     21          6           0        0.566578    5.564054   -1.523136
     22          8           0        0.885429    6.409385   -2.364059
     23          6           0        2.817974    4.497502   -1.582986
     24          6           0        4.182936    4.439160   -0.898022
     25          6           0        4.716370    5.847351   -0.632987
     26          6           0        6.170453    5.602223   -0.239345
     27          7           0        7.017079    6.786986    0.005937
     28          1           0        1.233755    3.067715   -0.130381
     29          1           0        2.015438    5.924981   -0.129460
     30          1           0        3.010481    5.133043   -2.438923
     31          1           0        2.636443    3.495619   -1.967925
     32          1           0        4.854945    3.988932   -1.634024
     33          1           0        4.073800    3.976727    0.081133
     34          1           0        4.068681    6.306145    0.118349
     35          1           0        4.586544    6.388269   -1.570459
     36          1           0        6.547178    5.020267   -1.079051
     37          1           0        6.203264    4.983213    0.660849
     38          1           0        7.981347    6.516919    0.114344
     39          1           0        7.060805    7.405606   -0.800225
     40          1           0        6.655800    7.348542    0.754290
     41          7           0       -0.705646    5.362831   -1.173341
     42          6           0       -1.845208    5.497399   -2.062718
     43          6           0       -3.216408    5.556561   -1.407957
     44          8           0       -4.099998    6.086477   -2.082907
     45          6           0       -1.854482    4.300947   -3.003417
     46          6           0       -1.753007    2.926159   -2.337713
     47          8           0       -2.539102    2.540949   -1.443192
     48          8           0       -0.879554    2.203198   -2.849579
     49          1           0       -0.866917    4.902828   -0.288927
     50          1           0       -1.691062    6.385368   -2.666249
     51          1           0       -1.139258    4.334082   -3.823635
     52          1           0       -2.798216    4.267179   -3.561561
     53          7           0       -3.398162    4.951854   -0.234162
     54          6           0       -4.709727    4.972278    0.386788
     55          6           0       -5.753639    3.964228   -0.074714
     56          8           0       -6.939068    4.188868    0.114743
     57          1           0       -2.575791    4.590299    0.228639
     58          1           0       -5.181282    5.940608    0.202470
     59          1           0       -4.548187    4.834432    1.459636
     60          7           0       -5.328149    2.811897   -0.594897
     61          6           0       -6.192549    1.726797   -1.024167
     62          6           0       -6.585000    0.708411    0.030144
     63          8           0       -7.252694   -0.283899   -0.273838
     64          6           0       -5.524377    1.146014   -2.268047
     65          6           0       -4.625873   -0.049599   -2.007856
     66          7           0       -4.722677   -1.056446   -2.876527
     67          8           0       -4.008849   -0.151546   -0.953585
     68          1           0       -4.356778    2.604375   -0.767448
     69          1           0       -7.091085    2.280831   -1.297626
     70          1           0       -4.998571    1.911682   -2.844918
     71          1           0       -6.333082    0.788697   -2.918295
     72          1           0       -5.338539   -1.027241   -3.676815
     73          1           0       -4.324904   -1.960961   -2.649971
     74          7           0       -6.099932    0.967333    1.248614
     75          6           0       -6.276760    0.159370    2.430320
     76          6           0       -5.504916   -1.153706    2.507045
     77          8           0       -5.689265   -1.834890    3.512482
     78          1           0       -5.510682    1.782847    1.306244
     79          1           0       -7.302445   -0.163173    2.593836
     80          1           0       -5.914294    0.768065    3.256581
     81          7           0       -4.610076   -1.495088    1.572048
     82          6           0       -3.836163   -2.711156    1.434799
     83          6           0       -2.342359   -2.387138    1.447527
     84          8           0       -2.041789   -1.244487    1.115100
     85          6           0       -4.282846   -3.446323    0.167161
     86          6           0       -5.724539   -3.881867    0.075399
     87          6           0       -6.316264   -4.007266   -1.185449
     88          6           0       -6.475825   -4.317196    1.177469
     89          6           0       -7.638211   -4.426098   -1.339513
     90          6           0       -7.779891   -4.800244    1.030918
     91          6           0       -8.428466   -4.781508   -0.220281
     92          8           0       -9.593818   -5.445401   -0.485803
     93          1           0       -4.452778   -0.843019    0.821406
     94          1           0       -4.046950   -3.383195    2.261861
     95          1           0       -3.638132   -4.305222   -0.003825
     96          1           0       -4.125414   -2.783057   -0.687762
     97          1           0       -5.770933   -3.618186   -2.032875
     98          1           0       -6.040166   -4.234864    2.162113
     99          1           0       -8.104600   -4.281114   -2.304583
    100          1           0       -8.308505   -5.247021    1.864499
    101          1           0       -9.639317   -6.230012    0.063758
    102          7           0       -1.520046   -3.366023    1.824867
    103          6           0       -0.098407   -3.266312    1.529573
    104          6           0        0.276200   -4.097250    0.323666
    105          8           0       -0.223668   -5.209599    0.231403
    106          6           0        0.572684   -3.684012    2.830981
    107          6           0        0.349298   -2.680402    3.954932
    108          6           0        2.052019   -4.041765    2.641033
    109          6           0        1.187795   -1.408025    3.890283
    110          1           0       -1.940410   -4.277320    1.944164
    111          1           0        0.152673   -2.226600    1.313569
    112          1           0        0.098538   -4.613423    3.163067
    113          1           0        0.649497   -3.150161    4.895467
    114          1           0       -0.698131   -2.378302    4.038769
    115          1           0        2.615821   -4.141289    3.563162
    116          1           0        2.127254   -4.980256    2.106921
    117          1           0        2.391691   -3.234529    1.984000
    118          1           0        0.922923   -0.674193    4.643831
    119          1           0        2.248998   -1.593473    4.052012
    120          1           0        1.130928   -0.974755    2.897235
    121          7           0        1.046692   -3.479020   -0.578461
    122          6           0        1.797838   -3.987409   -1.720485
    123          6           0        3.274283   -4.219313   -1.506635
    124          8           0        3.843998   -3.692136   -0.552691
    125          6           0        1.619139   -3.178255   -3.004166
    126          8           0        0.286095   -3.444220   -3.382526
    127          1           0        1.293978   -2.550333   -0.256916
    128          1           0        1.468477   -5.017403   -1.913966
    129          1           0        2.288394   -3.558561   -3.774857
    130          1           0        1.728560   -2.116264   -2.812326
    131          1           0        0.289522   -3.325716   -4.334495
    132          7           0        4.030749   -4.896465   -2.386762
    133          6           0        5.405912   -5.279232   -2.143210
    134          6           0        6.392443   -4.172738   -1.821765
    135          8           0        7.034768   -4.235337   -0.770908
    136          6           0        5.799941   -5.856376   -3.502124
    137          1           0        3.597921   -5.254813   -3.221714
    138          1           0        5.425979   -6.032612   -1.362943
    139          1           0        6.805907   -6.252033   -3.448382
    140          1           0        5.150791   -6.722670   -3.651587
    141          1           0        5.668870   -5.169065   -4.343327
    142          7           0        6.352456   -3.077264   -2.585465
    143          6           0        7.124584   -1.903297   -2.255132
    144          6           0        6.826564   -1.254593   -0.912386
    145          8           0        7.771439   -0.936404   -0.201916
    146          6           0        6.819093   -0.956109   -3.414835
    147          1           0        5.902809   -3.014225   -3.492187
    148          1           0        8.195540   -2.065346   -2.395823
    149          1           0        5.733779   -0.840779   -3.479598
    150          1           0        7.207954    0.023950   -3.150883
    151          1           0        7.237255   -1.286914   -4.362732
    152          7           0        5.559614   -1.243166   -0.474544
    153          6           0        5.193401   -0.810364    0.862195
    154          6           0        5.691758   -1.728193    1.973514
    155          8           0        6.041479   -1.186742    3.014055
    156          6           0        3.678777   -0.696249    0.970320
    157          6           0        3.204819    0.356966   -0.040126
    158          6           0        1.694939    0.371348   -0.196823
    159          8           0        1.047343    1.421415   -0.421496
    160          8           0        1.042236   -0.692676   -0.191076
    161          1           0        4.868109   -1.774967   -0.978437
    162          1           0        5.565998    0.212483    0.971535
    163          1           0        3.545885   -0.280411    1.966070
    164          1           0        3.215179   -1.667525    0.839550
    165          1           0        3.540803    0.155198   -1.047154
    166          1           0        3.523740    1.330924    0.338154
    167          7           0        5.737634   -3.039921    1.753141
    168          6           0        6.495381   -3.909255    2.621632
    169          1           0        7.339973   -4.324686    2.071787
    170          1           0        6.862843   -3.340718    3.476097
    171          1           0        5.856898   -4.719733    2.971840
    172          1           0        5.238653   -3.425788    0.960219
    173         20           0       -1.172408    0.341542   -0.934409
    174          8           0       -1.542100   -2.230186   -1.591708
    175          1           0       -2.203563   -2.755248   -2.029631
    176          1           0       -0.707800   -2.569235   -1.923357
 ---------------------------------------------------------------------

 SCF Done:  E(RB3LYP) =  -5333.57626751     A.U. after   20 cycles

 The electronic state is 1-A.
 Alpha  occ. eigenvalues -- -145.35213 -19.19501 -19.16988 -19.14455 -19.14263
 Alpha  occ. eigenvalues --  -19.12047 -19.12025 -19.10510 -19.09332 -19.09259
 Alpha  occ. eigenvalues --  -19.08826 -19.08445 -19.08093 -19.06932 -19.05796
 Alpha  occ. eigenvalues --  -19.05773 -19.05480 -19.05468 -19.05247 -19.04925
 Alpha  occ. eigenvalues --  -19.04676 -19.04064 -19.01355 -19.01130 -15.40983
 Alpha  occ. eigenvalues --  -14.57171 -14.40559 -14.38579 -14.37739 -14.36606
 Alpha  occ. eigenvalues --  -14.35288 -14.34410 -14.33367 -14.32782 -14.31747
 Alpha  occ. eigenvalues --  -14.31452 -14.30650 -14.30251 -14.29927 -14.29530
 Alpha  occ. eigenvalues --  -12.54588 -12.54565 -12.54537 -10.33004 -10.32629
 Alpha  occ. eigenvalues --  -10.30896 -10.30740 -10.29442 -10.28952 -10.27779
 Alpha  occ. eigenvalues --  -10.27697 -10.27678 -10.27619 -10.27125 -10.27105
 Alpha  occ. eigenvalues --  -10.25587 -10.24843 -10.24621 -10.24558 -10.24436
 Alpha  occ. eigenvalues --  -10.24337 -10.23995 -10.23982 -10.23569 -10.23431
 Alpha  occ. eigenvalues --  -10.23303 -10.22817 -10.21915 -10.21828 -10.21587
 Alpha  occ. eigenvalues --  -10.21469 -10.20802 -10.20599 -10.20516 -10.20444
 Alpha  occ. eigenvalues --  -10.20330 -10.20280 -10.19404 -10.19039 -10.18862
 Alpha  occ. eigenvalues --  -10.18456 -10.18281 -10.18238 -10.18118 -10.18026
 Alpha  occ. eigenvalues --  -10.17827 -10.17813 -10.17786 -10.17611 -10.17494
 Alpha  occ. eigenvalues --  -10.17425 -10.17327 -10.16530 -10.16404 -10.15261
 Alpha  occ. eigenvalues --  -10.14828 -10.13907  -1.77955  -1.12220  -1.08461
 Alpha  occ. eigenvalues --   -1.07860  -1.06368  -1.05548  -1.05370  -1.04976
 Alpha  occ. eigenvalues --   -1.04889  -1.03668  -1.03450  -1.03083  -1.03075
 Alpha  occ. eigenvalues --   -1.02060  -1.01920  -1.01471  -0.99731  -0.99565
 Alpha  occ. eigenvalues --   -0.99372  -0.98983  -0.98709  -0.98401  -0.98319
 Alpha  occ. eigenvalues --   -0.97249  -0.96896  -0.96189  -0.95226  -0.94044
 Alpha  occ. eigenvalues --   -0.93066  -0.92531  -0.92447  -0.91347  -0.90147
 Alpha  occ. eigenvalues --   -0.90141  -0.89759  -0.88840  -0.88648  -0.88175
 Alpha  occ. eigenvalues --   -0.88004  -0.87725  -0.86571  -0.86161  -0.85806
 Alpha  occ. eigenvalues --   -0.83714  -0.83420  -0.81116  -0.80082  -0.79010
 Alpha  occ. eigenvalues --   -0.78925  -0.78021  -0.77214  -0.76641  -0.76062
 Alpha  occ. eigenvalues --   -0.73689  -0.73349  -0.72939  -0.72658  -0.72101
 Alpha  occ. eigenvalues --   -0.71917  -0.71543  -0.70921  -0.70680  -0.70418
 Alpha  occ. eigenvalues --   -0.69668  -0.69622  -0.68825  -0.68449  -0.67392
 Alpha  occ. eigenvalues --   -0.66453  -0.66356  -0.65705  -0.65282  -0.63935
 Alpha  occ. eigenvalues --   -0.63130  -0.62649  -0.62559  -0.61980  -0.60931
 Alpha  occ. eigenvalues --   -0.60778  -0.60670  -0.60516  -0.60432  -0.59848
 Alpha  occ. eigenvalues --   -0.58940  -0.58791  -0.58575  -0.57642  -0.57500
 Alpha  occ. eigenvalues --   -0.57438  -0.56915  -0.56379  -0.56200  -0.55862
 Alpha  occ. eigenvalues --   -0.55527  -0.55448  -0.55346  -0.55152  -0.54798
 Alpha  occ. eigenvalues --   -0.54382  -0.54282  -0.54208  -0.53456  -0.53329
 Alpha  occ. eigenvalues --   -0.53317  -0.52991  -0.52491  -0.52207  -0.51809
 Alpha  occ. eigenvalues --   -0.51424  -0.50876  -0.49899  -0.49884  -0.49477
 Alpha  occ. eigenvalues --   -0.49117  -0.48923  -0.48826  -0.48390  -0.48224
 Alpha  occ. eigenvalues --   -0.48082  -0.47800  -0.47567  -0.47498  -0.47424
 Alpha  occ. eigenvalues --   -0.47025  -0.46819  -0.46540  -0.46201  -0.46023
 Alpha  occ. eigenvalues --   -0.45754  -0.45584  -0.45375  -0.45168  -0.44946
 Alpha  occ. eigenvalues --   -0.44871  -0.44750  -0.44627  -0.44212  -0.44095
 Alpha  occ. eigenvalues --   -0.43986  -0.43873  -0.43727  -0.43656  -0.43490
 Alpha  occ. eigenvalues --   -0.43461  -0.43304  -0.43232  -0.42904  -0.42633
 Alpha  occ. eigenvalues --   -0.42537  -0.42464  -0.42374  -0.42063  -0.41991
 Alpha  occ. eigenvalues --   -0.41854  -0.41779  -0.41433  -0.41322  -0.41239
 Alpha  occ. eigenvalues --   -0.41170  -0.40942  -0.40630  -0.40518  -0.40408
 Alpha  occ. eigenvalues --   -0.40389  -0.40319  -0.40146  -0.39944  -0.39748
 Alpha  occ. eigenvalues --   -0.39672  -0.39623  -0.39517  -0.39285  -0.39178
 Alpha  occ. eigenvalues --   -0.39053  -0.38917  -0.38777  -0.38555  -0.38510
 Alpha  occ. eigenvalues --   -0.38167  -0.37980  -0.37770  -0.37671  -0.37572
 Alpha  occ. eigenvalues --   -0.37451  -0.37266  -0.37123  -0.36891  -0.36845
 Alpha  occ. eigenvalues --   -0.36703  -0.36567  -0.36422  -0.36156  -0.36140
 Alpha  occ. eigenvalues --   -0.35934  -0.35811  -0.35710  -0.35541  -0.35466
 Alpha  occ. eigenvalues --   -0.35229  -0.35126  -0.34972  -0.34585  -0.34304
 Alpha  occ. eigenvalues --   -0.34152  -0.34052  -0.33891  -0.33767  -0.33602
 Alpha  occ. eigenvalues --   -0.33240  -0.32971  -0.32811  -0.32626  -0.32283
 Alpha  occ. eigenvalues --   -0.32154  -0.32100  -0.31907  -0.31644  -0.31185
 Alpha  occ. eigenvalues --   -0.31053  -0.30754  -0.30486  -0.30464  -0.30265
 Alpha  occ. eigenvalues --   -0.30171  -0.30050  -0.29430  -0.28196  -0.27681
 Alpha  occ. eigenvalues --   -0.27537  -0.27339  -0.27060  -0.26587  -0.26189
 Alpha  occ. eigenvalues --   -0.25670  -0.25306  -0.24858  -0.24546  -0.24418
 Alpha  occ. eigenvalues --   -0.24367  -0.24277  -0.24160  -0.24137  -0.23688
 Alpha  occ. eigenvalues --   -0.23425  -0.22863  -0.22448  -0.22354  -0.22147
 Alpha  occ. eigenvalues --   -0.21895  -0.21781  -0.21208  -0.21195  -0.21106
 Alpha  occ. eigenvalues --   -0.20996  -0.20727  -0.20613  -0.19647  -0.19311
 Alpha  occ. eigenvalues --   -0.19140  -0.18778  -0.16438
 Alpha virt. eigenvalues --   -0.09386  -0.03726  -0.03190  -0.02447  -0.02379
 Alpha virt. eigenvalues --   -0.01714  -0.01033  -0.00584   0.00022   0.00439
 Alpha virt. eigenvalues --    0.00592   0.00919   0.01387   0.01406   0.01861

 Mulliken charges:
               1
     1  C    0.046305
     2  C    0.045432
     3  O   -0.299632
     4  H    0.019551
     5  H    0.051539
     6  H    0.013525
     7  N   -0.093273
     8  C    0.069999
     9  C    0.053569
    10  O   -0.314648
    11  C    0.112520
    12  C    0.101511
    13  O   -0.407273
    14  O   -0.393054
    15  H    0.109907
    16  H   -0.000711
    17  H   -0.012549
    18  H    0.001494
    19  N   -0.120467
    20  C    0.096468
    21  C    0.072812
    22  O   -0.317660
    23  C    0.083417
    24  C   -0.056232
    25  C   -0.039454
    26  C    0.002172
    27  N    0.100372
    28  H    0.150473
    29  H    0.023844
    30  H   -0.011526
    31  H    0.010707
    32  H   -0.007932
    33  H    0.071812
    34  H    0.056408
    35  H    0.013892
    36  H    0.055428
    37  H    0.092001
    38  H    0.188698
    39  H    0.180453
    40  H    0.196971
    41  N   -0.127858
    42  C    0.147866
    43  C    0.039228
    44  O   -0.300536
    45  C    0.112535
    46  C    0.080829
    47  O   -0.410453
    48  O   -0.421763
    49  H    0.151628
    50  H    0.001957
    51  H   -0.007585
    52  H   -0.002427
    53  N   -0.132247
    54  C    0.232670
    55  C    0.013311
    56  O   -0.282038
    57  H    0.134507
    58  H    0.022074
    59  H    0.022412
    60  N   -0.193211
    61  C    0.134046
    62  C    0.064198
    63  O   -0.284933
    64  C    0.055038
    65  C    0.077278
    66  N   -0.033732
    67  O   -0.322038
    68  H    0.153684
    69  H    0.028642
    70  H    0.061987
    71  H    0.004886
    72  H    0.134863
    73  H    0.114623
    74  N   -0.139914
    75  C    0.225392
    76  C    0.021636
    77  O   -0.313358
    78  H    0.140109
    79  H    0.040378
    80  H    0.032908
    81  N   -0.114988
    82  C    0.082009
    83  C    0.131345
    84  O   -0.295650
    85  C    0.147820
    86  C    0.013164
    87  C    0.012432
    88  C    0.006004
    89  C   -0.012729
    90  C   -0.052944
    91  C    0.180975
    92  O   -0.229172
    93  H    0.157138
    94  H    0.004365
    95  H    0.005151
    96  H   -0.070629
    97  H   -0.102191
    98  H   -0.013596
    99  H   -0.024116
   100  H   -0.033771
   101  H    0.175613
   102  N   -0.111248
   103  C    0.136962
   104  C    0.027829
   105  O   -0.271123
   106  C   -0.121777
   107  C    0.049639
   108  C    0.103366
   109  C   -0.016539
   110  H    0.127956
   111  H    0.043513
   112  H   -0.022217
   113  H   -0.012094
   114  H    0.010745
   115  H    0.017298
   116  H   -0.001551
   117  H   -0.004741
   118  H    0.001641
   119  H    0.007169
   120  H    0.028110
   121  N   -0.143160
   122  C    0.139726
   123  C    0.070843
   124  O   -0.275690
   125  C    0.206478
   126  O   -0.300415
   127  H    0.145858
   128  H    0.022739
   129  H   -0.012508
   130  H    0.026365
   131  H    0.171779
   132  N   -0.129621
   133  C    0.106502
   134  C    0.096145
   135  O   -0.236975
   136  C   -0.006304
   137  H    0.113398
   138  H    0.023472
   139  H    0.039230
   140  H    0.021665
   141  H    0.018787
   142  N   -0.134315
   143  C    0.097052
   144  C    0.074199
   145  O   -0.253184
   146  C    0.003800
   147  H    0.106208
   148  H    0.012702
   149  H   -0.002549
   150  H    0.022725
   151  H    0.025972
   152  N   -0.153189
   153  C    0.118687
   154  C    0.074816
   155  O   -0.280237
   156  C   -0.040881
   157  C    0.069084
   158  C    0.170465
   159  O   -0.423236
   160  O   -0.448160
   161  H    0.116109
   162  H    0.003249
   163  H    0.033258
   164  H    0.042517
   165  H   -0.014328
   166  H    0.034047
   167  N   -0.160134
   168  C    0.131659
   169  H    0.025905
   170  H    0.034031
   171  H    0.000285
   172  H    0.129593
   173  Ca   1.256922
   174  O   -0.292982
   175  H    0.163141
   176  H    0.175825
 Sum of Mulliken charges =  -0.00000

 Dipole moment (field-independent basis, Debye):
    X=             30.4000    Y=             -2.1864    Z=            -13.5204  Tot=             33.3428
 Quadrupole moment (field-independent basis, Debye-Ang):
   XX=           -528.0854   YY=           -464.5641   ZZ=           -515.5862
   XY=            200.7572   XZ=            -43.7634   YZ=             69.8044

 ESP charges:
               1
     1  C   -0.478314
     2  C    0.862355
     3  O   -0.644305
     4  H    0.112006
     5  H    0.139512
     6  H    0.126009
     7  N   -0.866854
     8  C    0.566680
     9  C    0.524464
    10  O   -0.609651
    11  C   -0.654278
    12  C    1.086381
    13  O   -0.829859
    14  O   -0.840002
    15  H    0.380079
    16  H   -0.003844
    17  H    0.107369
    18  H    0.152580
    19  N   -0.114400
    20  C   -0.112119
    21  C    0.546596
    22  O   -0.578300
    23  C   -0.003511
    24  C   -0.065157
    25  C    0.030872
    26  C    0.098072
    27  N   -0.445296
    28  H    0.265974
    29  H    0.101735
    30  H    0.031394
    31  H    0.021221
    32  H    0.033479
    33  H   -0.006280
    34  H    0.017532
    35  H    0.008211
    36  H    0.055353
    37  H    0.083646
    38  H    0.348194
    39  H    0.324618
    40  H    0.353990
    41  N   -0.252518
    42  C   -0.161537
    43  C    0.535227
    44  O   -0.552632
    45  C   -0.056978
    46  C    0.634464
    47  O   -0.630534
    48  O   -0.731429
    49  H    0.062257
    50  H    0.123685
    51  H    0.053734
    52  H    0.039900
    53  N   -0.322255
    54  C   -0.337594
    55  C    0.594688
    56  O   -0.588274
    57  H    0.423973
    58  H    0.152368
    59  H    0.134944
    60  N   -0.107566
    61  C   -0.161559
    62  C    0.428870
    63  O   -0.476641
    64  C   -0.263321
    65  C    0.706301
    66  N   -0.829123
    67  O   -0.561670
    68  H    0.108122
    69  H    0.149325
    70  H    0.129697
    71  H    0.090004
    72  H    0.383204
    73  H    0.367809
    74  N   -0.212647
    75  C   -0.349980
    76  C    0.731795
    77  O   -0.612597
    78  H    0.246524
    79  H    0.155276
    80  H    0.152641
    81  N   -0.605210
    82  C    0.381769
    83  C    0.681600
    84  O   -0.580541
    85  C   -0.399687
    86  C    0.122274
    87  C   -0.146778
    88  C   -0.118616
    89  C   -0.350254
    90  C   -0.369978
    91  C    0.503582
    92  O   -0.575685
    93  H    0.346713
    94  H   -0.024724
    95  H    0.083925
    96  H    0.188910
    97  H    0.097572
    98  H    0.166305
    99  H    0.177926
   100  H    0.152758
   101  H    0.393170
   102  N   -0.835800
   103  C    0.486082
   104  C    0.342222
   105  O   -0.551550
   106  C    0.176109
   107  C   -0.157036
   108  C   -0.229349
   109  C    0.160361
   110  H    0.365073
   111  H    0.076833
   112  H   -0.033502
   113  H    0.020820
   114  H    0.039323
   115  H    0.105776
   116  H    0.072870
   117  H   -0.194980
   118  H   -0.018729
   119  H   -0.024259
   120  H   -0.104367
   121  N   -0.159473
   122  C    0.148219
   123  C    0.456445
   124  O   -0.424242
   125  C    0.016847
   126  O   -0.623806
   127  H    0.180908
   128  H    0.050937
   129  H    0.051041
   130  H    0.057747
   131  H    0.428156
   132  N   -0.566124
   133  C    0.274242
   134  C    0.465371
   135  O   -0.531926
   136  C   -0.435934
   137  H    0.319414
   138  H    0.069763
   139  H    0.134028
   140  H    0.111270
   141  H    0.116052
   142  N   -0.429447
   143  C    0.264852
   144  C    0.356072
   145  O   -0.511710
   146  C   -0.351633
   147  H    0.251239
   148  H    0.048306
   149  H    0.058120
   150  H    0.101110
   151  H    0.107542
   152  N   -0.193342
   153  C   -0.131563
   154  C    0.545671
   155  O   -0.577916
   156  C   -0.000272
   157  C   -0.377227
   158  C    0.851654
   159  O   -0.757518
   160  O   -0.702210
   161  H    0.152108
   162  H    0.123490
   163  H    0.075251
   164  H    0.073138
   165  H    0.071536
   166  H    0.084400
   167  N   -0.041422
   168  C   -0.290213
   169  H    0.112250
   170  H    0.122447
   171  H    0.067997
   172  H    0.180226
   173  Ca   1.486297
   174  O   -0.902759
   175  H    0.366624
   176  H    0.484933
 Sum of ESP charges =   0.00000

 Normal termination of Gaussian 16 at Sat Sep 14 23:27:38 2019.
