 Gaussian 16, Revision A.03,
 Gaussian 16:  ES64L-G16RevA.03 25-Dec-2016

 ----------------------------------------------------------------------
 #b3lyp/svp scf=(tight,noincore) Test #IOP(5/87=12) Density=Current Pop
 =(MK,readradii) iop(6/33=2) iop(6/42=6)
 ----------------------------------------------------------------------

 -------------------
 holoCaM_loop3_101.0
 -------------------
 Symbolic Z-matrix:
 Charge =  0 Multiplicity = 1

                         Standard orientation:
 ---------------------------------------------------------------------
 Center     Atomic      Atomic             Coordinates (Angstroms)
 Number     Number       Type             X           Y           Z
 ---------------------------------------------------------------------
      1          6           0        0.190322    3.942184    6.192903
      2          6           0        0.096296    3.606388    4.716319
      3          8           0        1.087702    3.851084    4.019585
      4          1           0        0.437531    3.041259    6.754797
      5          1           0        0.967911    4.690865    6.347044
      6          1           0       -0.766601    4.334190    6.538879
      7          7           0       -1.022970    3.098891    4.183506
      8          6           0       -1.096798    2.875703    2.758993
      9          6           0       -1.059085    4.159168    1.952585
     10          8           0       -1.660181    5.182210    2.275956
     11          6           0       -2.311476    1.993869    2.511956
     12          6           0       -2.281721    1.428679    1.089748
     13          8           0       -3.212119    0.738322    0.642907
     14          8           0       -1.292618    1.718840    0.387765
     15          1           0       -1.840555    2.947517    4.755032
     16          1           0       -0.257148    2.274083    2.399632
     17          1           0       -3.218613    2.592965    2.536147
     18          1           0       -2.324531    1.108276    3.153170
     19          7           0       -0.372039    4.130011    0.808112
     20          6           0       -0.037544    5.315390    0.050690
     21          6           0       -1.145751    5.510250   -0.975959
     22          8           0       -1.492806    6.678967   -1.083449
     23          6           0        1.403189    5.222948   -0.448452
     24          6           0        2.452589    5.644430    0.570181
     25          6           0        3.858995    5.679030   -0.013707
     26          6           0        4.016496    6.800219   -1.039927
     27          7           0        5.428329    6.921889   -1.443565
     28          1           0        0.103337    3.253306    0.645302
     29          1           0       -0.118163    6.138241    0.774096
     30          1           0        1.708444    5.696574   -1.376028
     31          1           0        1.641290    4.193358   -0.745526
     32          1           0        2.456996    4.962337    1.423251
     33          1           0        2.183712    6.626326    0.943924
     34          1           0        4.149358    4.690549   -0.377704
     35          1           0        4.509149    5.796081    0.848326
     36          1           0        3.692885    7.701921   -0.517614
     37          1           0        3.413130    6.690073   -1.938881
     38          1           0        5.425339    7.559264   -2.227366
     39          1           0        5.970246    7.308752   -0.673654
     40          1           0        5.895645    6.096322   -1.769532
     41          7           0       -1.694205    4.527547   -1.703071
     42          6           0       -2.935997    4.706807   -2.425234
     43          6           0       -4.228869    4.414988   -1.680571
     44          8           0       -5.233725    4.362042   -2.384248
     45          6           0       -2.968969    3.825009   -3.666541
     46          6           0       -2.818509    2.363960   -3.261574
     47          8           0       -2.753468    1.536473   -4.189763
     48          8           0       -2.795867    1.900245   -2.106215
     49          1           0       -1.563661    3.563589   -1.441644
     50          1           0       -3.012306    5.759147   -2.725994
     51          1           0       -2.172718    4.193404   -4.311188
     52          1           0       -3.887847    4.034730   -4.228396
     53          7           0       -4.299134    4.229815   -0.357932
     54          6           0       -5.532210    3.908994    0.337912
     55          6           0       -6.141305    2.532529    0.094095
     56          8           0       -7.296149    2.342671    0.480215
     57          1           0       -3.492566    4.336868    0.234593
     58          1           0       -6.211953    4.659289   -0.047324
     59          1           0       -5.359261    3.938505    1.413048
     60          7           0       -5.547029    1.603098   -0.653765
     61          6           0       -6.233496    0.392549   -1.045857
     62          6           0       -6.152950   -0.776862   -0.084509
     63          8           0       -6.823226   -1.790602   -0.245939
     64          6           0       -5.705428    0.053919   -2.438830
     65          6           0       -4.620661   -1.018414   -2.353505
     66          7           0       -4.789682   -2.017841   -3.220441
     67          8           0       -3.733017   -1.041578   -1.514666
     68          1           0       -4.627358    1.761820   -1.034964
     69          1           0       -7.284872    0.634693   -1.211614
     70          1           0       -5.242587    0.908896   -2.932888
     71          1           0       -6.495632   -0.375489   -3.049230
     72          1           0       -5.594665   -2.085060   -3.830592
     73          1           0       -4.195901   -2.831900   -3.140238
     74          7           0       -5.533000   -0.525410    1.078562
     75          6           0       -5.620405   -1.268668    2.318452
     76          6           0       -4.822060   -2.555505    2.233628
     77          8           0       -5.274420   -3.585654    2.729878
     78          1           0       -4.759664    0.127356    1.097247
     79          1           0       -6.600430   -1.706367    2.500579
     80          1           0       -5.248598   -0.677581    3.160162
     81          7           0       -3.706696   -2.518592    1.492614
     82          6           0       -2.651370   -3.485889    1.262344
     83          6           0       -1.301490   -2.800387    1.140229
     84          8           0       -1.316247   -1.652661    0.686130
     85          6           0       -2.900968   -4.363287    0.039857
     86          6           0       -4.164211   -5.187587   -0.030457
     87          6           0       -5.444570   -4.702888   -0.338108
     88          6           0       -3.951451   -6.565531    0.057316
     89          6           0       -6.444595   -5.636397   -0.631557
     90          6           0       -5.000920   -7.503699   -0.007149
     91          6           0       -6.255727   -7.009605   -0.416086
     92          8           0       -7.333058   -7.848761   -0.372755
     93          1           0       -3.548968   -1.646260    1.016003
     94          1           0       -2.555287   -4.227152    2.058018
     95          1           0       -2.034637   -5.006213   -0.098412
     96          1           0       -2.909641   -3.745944   -0.857814
     97          1           0       -5.571031   -3.632849   -0.444519
     98          1           0       -2.932325   -6.910829    0.162915
     99          1           0       -7.434032   -5.291428   -0.905437
    100          1           0       -4.729682   -8.539684    0.121172
    101          1           0       -7.172808   -8.722946   -0.013560
    102          7           0       -0.210755   -3.351791    1.677212
    103          6           0        1.142788   -2.856653    1.562058
    104          6           0        2.027196   -3.814808    0.781058
    105          8           0        2.046911   -5.010245    1.048344
    106          6           0        1.695769   -2.634611    2.976028
    107          6           0        0.738635   -2.024983    3.989709
    108          6           0        2.998209   -1.833476    2.923757
    109          6           0        0.121429   -0.637821    3.835318
    110          1           0       -0.365802   -4.199207    2.216049
    111          1           0        1.145902   -1.902799    1.040182
    112          1           0        1.912781   -3.605935    3.421490
    113          1           0        1.263116   -2.139247    4.941740
    114          1           0       -0.058649   -2.773193    4.031164
    115          1           0        3.200010   -1.640425    3.973951
    116          1           0        3.668778   -2.499015    2.370679
    117          1           0        2.881534   -0.933333    2.332125
    118          1           0       -0.592185   -0.535507    3.015142
    119          1           0       -0.458703   -0.398713    4.732020
    120          1           0        0.915259    0.070596    3.641205
    121          7           0        2.706072   -3.236427   -0.222238
    122          6           0        3.719220   -3.930913   -0.985796
    123          6           0        5.110941   -3.687328   -0.400833
    124          8           0        5.243654   -2.869978    0.505216
    125          6           0        3.601495   -3.500686   -2.446667
    126          8           0        4.081518   -2.186349   -2.627209
    127          1           0        2.539971   -2.250842   -0.318838
    128          1           0        3.597612   -5.011809   -1.017019
    129          1           0        2.560084   -3.515629   -2.767043
    130          1           0        4.244395   -4.171485   -3.014124
    131          1           0        3.414042   -1.738606   -3.161815
    132          7           0        6.108891   -4.424870   -0.882939
    133          6           0        7.457501   -4.179649   -0.417303
    134          6           0        7.875529   -2.743529   -0.696968
    135          8           0        8.552763   -2.136654    0.128474
    136          6           0        8.346797   -5.268612   -0.999896
    137          1           0        5.908170   -5.156532   -1.550383
    138          1           0        7.479250   -4.254887    0.674149
    139          1           0        9.357262   -5.061127   -0.655644
    140          1           0        8.090268   -6.193051   -0.474058
    141          1           0        8.181390   -5.431175   -2.068687
    142          7           0        7.474837   -2.272026   -1.885762
    143          6           0        7.678018   -0.895945   -2.286408
    144          6           0        7.096937    0.172235   -1.371292
    145          8           0        7.789795    1.164471   -1.120265
    146          6           0        7.268614   -0.791539   -3.755316
    147          1           0        7.071683   -2.876914   -2.585603
    148          1           0        8.758189   -0.749940   -2.352841
    149          1           0        7.889078   -1.492243   -4.324295
    150          1           0        6.198553   -0.921252   -3.895117
    151          1           0        7.508198    0.227301   -4.046630
    152          7           0        5.900039   -0.040984   -0.826157
    153          6           0        5.298906    0.863178    0.124963
    154          6           0        5.942701    0.837972    1.510276
    155          8           0        6.109854    1.837440    2.206928
    156          6           0        3.824850    0.462574    0.159246
    157          6           0        3.147574    1.144771   -1.026462
    158          6           0        1.661000    0.834827   -1.077759
    159          8           0        0.883944    1.571395   -1.729719
    160          8           0        1.319057   -0.323230   -0.747183
    161          1           0        5.409759   -0.886615   -1.096402
    162          1           0        5.451457    1.860334   -0.296947
    163          1           0        3.425480    0.947611    1.049326
    164          1           0        3.751124   -0.626338    0.170952
    165          1           0        3.587775    0.839525   -1.977434
    166          1           0        3.186701    2.228858   -0.893325
    167          7           0        6.475172   -0.337413    1.840649
    168          6           0        6.857180   -0.639999    3.205278
    169          1           0        6.324384   -1.529446    3.541947
    170          1           0        7.931164   -0.820755    3.250825
    171          1           0        6.602406    0.201477    3.850145
    172          1           0        6.299189   -1.084636    1.179977
    173         20           0       -1.200743   -0.070447   -1.380724
    174          8           0       -0.773400   -0.155680   -4.085752
    175          1           0       -1.549351    0.394225   -4.240363
    176          1           0       -0.334116   -0.208410   -4.925662
 ---------------------------------------------------------------------

 SCF Done:  E(RB3LYP) =  -5333.58269162     A.U. after   19 cycles

 The electronic state is 1-A.
 Alpha  occ. eigenvalues -- -145.35992 -19.18768 -19.14278 -19.13417 -19.11818
 Alpha  occ. eigenvalues --  -19.11727 -19.11199 -19.10975 -19.10081 -19.09762
 Alpha  occ. eigenvalues --  -19.08091 -19.07510 -19.07268 -19.06973 -19.06832
 Alpha  occ. eigenvalues --  -19.06167 -19.05822 -19.05375 -19.05372 -19.05343
 Alpha  occ. eigenvalues --  -19.05154 -19.05141 -19.03742 -19.03309 -15.41715
 Alpha  occ. eigenvalues --  -14.58348 -14.40022 -14.37783 -14.37395 -14.36906
 Alpha  occ. eigenvalues --  -14.35754 -14.34914 -14.34133 -14.32504 -14.31911
 Alpha  occ. eigenvalues --  -14.31853 -14.31777 -14.31742 -14.29584 -14.29331
 Alpha  occ. eigenvalues --  -12.55319 -12.55305 -12.55276 -10.34593 -10.32282
 Alpha  occ. eigenvalues --  -10.30195 -10.30142 -10.29179 -10.28564 -10.28441
 Alpha  occ. eigenvalues --  -10.28311 -10.26706 -10.26657 -10.26280 -10.26105
 Alpha  occ. eigenvalues --  -10.25954 -10.25745 -10.25364 -10.25155 -10.24661
 Alpha  occ. eigenvalues --  -10.24495 -10.24244 -10.24215 -10.24136 -10.23820
 Alpha  occ. eigenvalues --  -10.22991 -10.22989 -10.22886 -10.22753 -10.22592
 Alpha  occ. eigenvalues --  -10.22443 -10.21809 -10.21794 -10.21377 -10.20943
 Alpha  occ. eigenvalues --  -10.20450 -10.19710 -10.19540 -10.19302 -10.19197
 Alpha  occ. eigenvalues --  -10.19039 -10.18892 -10.18655 -10.18646 -10.18027
 Alpha  occ. eigenvalues --  -10.17947 -10.17540 -10.17299 -10.17258 -10.16722
 Alpha  occ. eigenvalues --  -10.16647 -10.16467 -10.16435 -10.16302 -10.15927
 Alpha  occ. eigenvalues --  -10.15847 -10.15214  -1.78575  -1.13582  -1.07750
 Alpha  occ. eigenvalues --   -1.06650  -1.06235  -1.06166  -1.06006  -1.04640
 Alpha  occ. eigenvalues --   -1.04355  -1.03602  -1.02945  -1.02468  -1.02027
 Alpha  occ. eigenvalues --   -1.01985  -1.01184  -1.00611  -1.00451  -1.00031
 Alpha  occ. eigenvalues --   -1.00025  -0.99342  -0.98953  -0.98782  -0.97993
 Alpha  occ. eigenvalues --   -0.97707  -0.97179  -0.97060  -0.94636  -0.94062
 Alpha  occ. eigenvalues --   -0.93903  -0.92858  -0.91756  -0.90994  -0.90390
 Alpha  occ. eigenvalues --   -0.89890  -0.89779  -0.89262  -0.89200  -0.88849
 Alpha  occ. eigenvalues --   -0.88433  -0.88009  -0.87890  -0.87415  -0.86024
 Alpha  occ. eigenvalues --   -0.82806  -0.82290  -0.81465  -0.80554  -0.80207
 Alpha  occ. eigenvalues --   -0.79112  -0.78160  -0.77340  -0.77052  -0.75340
 Alpha  occ. eigenvalues --   -0.75229  -0.74228  -0.74020  -0.72883  -0.72541
 Alpha  occ. eigenvalues --   -0.71871  -0.71641  -0.71402  -0.71321  -0.70385
 Alpha  occ. eigenvalues --   -0.69972  -0.69508  -0.68868  -0.68276  -0.67780
 Alpha  occ. eigenvalues --   -0.67718  -0.65952  -0.64867  -0.64542  -0.63924
 Alpha  occ. eigenvalues --   -0.63742  -0.63181  -0.62464  -0.62443  -0.62065
 Alpha  occ. eigenvalues --   -0.61846  -0.61323  -0.60866  -0.59862  -0.59620
 Alpha  occ. eigenvalues --   -0.59205  -0.58765  -0.58568  -0.58401  -0.57083
 Alpha  occ. eigenvalues --   -0.56573  -0.56452  -0.56298  -0.56127  -0.55899
 Alpha  occ. eigenvalues --   -0.55527  -0.55220  -0.55078  -0.54886  -0.54783
 Alpha  occ. eigenvalues --   -0.54300  -0.54113  -0.53390  -0.52992  -0.52824
 Alpha  occ. eigenvalues --   -0.52398  -0.52372  -0.52320  -0.51861  -0.51758
 Alpha  occ. eigenvalues --   -0.51544  -0.51172  -0.50630  -0.50318  -0.49933
 Alpha  occ. eigenvalues --   -0.49767  -0.49353  -0.49094  -0.48751  -0.48331
 Alpha  occ. eigenvalues --   -0.48166  -0.47902  -0.47813  -0.47654  -0.47409
 Alpha  occ. eigenvalues --   -0.47191  -0.47049  -0.46786  -0.46609  -0.46336
 Alpha  occ. eigenvalues --   -0.46299  -0.45956  -0.45749  -0.45734  -0.45264
 Alpha  occ. eigenvalues --   -0.44966  -0.44641  -0.44582  -0.44449  -0.44222
 Alpha  occ. eigenvalues --   -0.44097  -0.44004  -0.43935  -0.43793  -0.43592
 Alpha  occ. eigenvalues --   -0.43338  -0.43103  -0.42781  -0.42604  -0.42422
 Alpha  occ. eigenvalues --   -0.42377  -0.42261  -0.42187  -0.42029  -0.41950
 Alpha  occ. eigenvalues --   -0.41849  -0.41779  -0.41492  -0.41421  -0.41352
 Alpha  occ. eigenvalues --   -0.41200  -0.41072  -0.40848  -0.40722  -0.40522
 Alpha  occ. eigenvalues --   -0.40336  -0.40269  -0.40201  -0.40126  -0.39967
 Alpha  occ. eigenvalues --   -0.39824  -0.39727  -0.39661  -0.39388  -0.39069
 Alpha  occ. eigenvalues --   -0.39051  -0.38802  -0.38705  -0.38668  -0.38610
 Alpha  occ. eigenvalues --   -0.38523  -0.38310  -0.38230  -0.38089  -0.37958
 Alpha  occ. eigenvalues --   -0.37911  -0.37609  -0.37384  -0.37280  -0.37176
 Alpha  occ. eigenvalues --   -0.36933  -0.36781  -0.36719  -0.36645  -0.36587
 Alpha  occ. eigenvalues --   -0.36476  -0.36336  -0.36164  -0.36101  -0.35878
 Alpha  occ. eigenvalues --   -0.35554  -0.35128  -0.35089  -0.34977  -0.34749
 Alpha  occ. eigenvalues --   -0.34624  -0.34438  -0.34063  -0.33887  -0.33579
 Alpha  occ. eigenvalues --   -0.33313  -0.33133  -0.32750  -0.32731  -0.32399
 Alpha  occ. eigenvalues --   -0.32302  -0.32173  -0.32022  -0.31632  -0.31606
 Alpha  occ. eigenvalues --   -0.31213  -0.30849  -0.30812  -0.30357  -0.29779
 Alpha  occ. eigenvalues --   -0.29562  -0.28798  -0.28712  -0.27847  -0.27796
 Alpha  occ. eigenvalues --   -0.27633  -0.27444  -0.26853  -0.26050  -0.25892
 Alpha  occ. eigenvalues --   -0.25818  -0.25541  -0.25281  -0.25213  -0.24937
 Alpha  occ. eigenvalues --   -0.24770  -0.23913  -0.23774  -0.23660  -0.23522
 Alpha  occ. eigenvalues --   -0.23371  -0.23204  -0.23150  -0.23041  -0.22826
 Alpha  occ. eigenvalues --   -0.22708  -0.22576  -0.22514  -0.22363  -0.22250
 Alpha  occ. eigenvalues --   -0.21198  -0.20856  -0.20454  -0.19773  -0.19545
 Alpha  occ. eigenvalues --   -0.19442  -0.19233  -0.18983
 Alpha virt. eigenvalues --   -0.10291  -0.04611  -0.03921  -0.03007  -0.01777
 Alpha virt. eigenvalues --   -0.00865  -0.00589  -0.00457  -0.00099   0.00844
 Alpha virt. eigenvalues --    0.00869   0.01031   0.01889   0.02069   0.02505

 Mulliken charges:
               1
     1  C    0.069508
     2  C    0.034138
     3  O   -0.314648
     4  H    0.032163
     5  H    0.029863
     6  H    0.011463
     7  N   -0.106670
     8  C    0.132265
     9  C    0.044222
    10  O   -0.300458
    11  C    0.041591
    12  C    0.134282
    13  O   -0.364892
    14  O   -0.457440
    15  H    0.117388
    16  H   -0.004240
    17  H    0.009384
    18  H    0.022131
    19  N   -0.133240
    20  C    0.191161
    21  C    0.051869
    22  O   -0.287089
    23  C    0.028512
    24  C    0.007801
    25  C   -0.029853
    26  C    0.003938
    27  N    0.087051
    28  H    0.144958
    29  H    0.011666
    30  H   -0.042698
    31  H    0.010209
    32  H    0.054454
    33  H    0.003777
    34  H    0.035493
    35  H    0.031148
    36  H    0.077175
    37  H    0.087149
    38  H    0.186755
    39  H    0.199804
    40  H    0.194434
    41  N   -0.139008
    42  C    0.096536
    43  C    0.046699
    44  O   -0.293491
    45  C    0.092789
    46  C    0.143046
    47  O   -0.411405
    48  O   -0.432469
    49  H    0.146213
    50  H    0.016979
    51  H   -0.007728
    52  H    0.040675
    53  N   -0.148273
    54  C    0.223328
    55  C    0.022857
    56  O   -0.315875
    57  H    0.134172
    58  H    0.035150
    59  H    0.026524
    60  N   -0.149524
    61  C    0.136543
    62  C    0.090774
    63  O   -0.290941
    64  C    0.074749
    65  C    0.064199
    66  N   -0.040833
    67  O   -0.334170
    68  H    0.180864
    69  H    0.031497
    70  H    0.070040
    71  H   -0.013008
    72  H    0.130410
    73  H    0.123092
    74  N   -0.171044
    75  C    0.240208
    76  C   -0.009247
    77  O   -0.278624
    78  H    0.145828
    79  H    0.025723
    80  H    0.020457
    81  N   -0.144828
    82  C    0.147074
    83  C    0.114150
    84  O   -0.364313
    85  C    0.135319
    86  C   -0.006131
    87  C    0.038364
    88  C   -0.046372
    89  C   -0.017895
    90  C   -0.042377
    91  C    0.184440
    92  O   -0.215597
    93  H    0.148779
    94  H   -0.017797
    95  H   -0.029333
    96  H   -0.036261
    97  H   -0.016577
    98  H   -0.050492
    99  H   -0.016107
   100  H   -0.048538
   101  H    0.171063
   102  N   -0.105392
   103  C    0.142341
   104  C    0.064300
   105  O   -0.274999
   106  C   -0.135951
   107  C    0.031086
   108  C    0.060890
   109  C    0.001601
   110  H    0.137144
   111  H    0.027126
   112  H   -0.014704
   113  H   -0.006454
   114  H   -0.035784
   115  H    0.008541
   116  H    0.031516
   117  H    0.010035
   118  H    0.039193
   119  H    0.006378
   120  H    0.023249
   121  N   -0.140274
   122  C    0.102398
   123  C    0.090470
   124  O   -0.263687
   125  C    0.221690
   126  O   -0.314245
   127  H    0.138453
   128  H    0.025225
   129  H    0.032414
   130  H   -0.019985
   131  H    0.193349
   132  N   -0.129963
   133  C    0.082103
   134  C    0.059455
   135  O   -0.242906
   136  C    0.054507
   137  H    0.119154
   138  H    0.024787
   139  H    0.041549
   140  H    0.028766
   141  H    0.011267
   142  N   -0.136018
   143  C    0.098095
   144  C    0.067637
   145  O   -0.282614
   146  C    0.019987
   147  H    0.106313
   148  H    0.010510
   149  H    0.023846
   150  H    0.007493
   151  H    0.019194
   152  N   -0.170760
   153  C    0.121231
   154  C    0.069861
   155  O   -0.287181
   156  C   -0.003138
   157  C    0.080918
   158  C    0.146735
   159  O   -0.392589
   160  O   -0.447262
   161  H    0.139174
   162  H   -0.034153
   163  H    0.033883
   164  H    0.008468
   165  H   -0.006362
   166  H   -0.022387
   167  N   -0.158898
   168  C    0.129445
   169  H    0.013709
   170  H    0.022952
   171  H    0.032823
   172  H    0.142247
   173  Ca   1.283386
   174  O   -0.338988
   175  H    0.162010
   176  H    0.160979
 Sum of Mulliken charges =  -0.00000

 Dipole moment (field-independent basis, Debye):
    X=             32.6096    Y=              4.4096    Z=            -12.1328  Tot=             35.0718
 Quadrupole moment (field-independent basis, Debye-Ang):
   XX=           -621.3076   YY=           -413.7164   ZZ=           -520.3094
   XY=            104.9702   XZ=            -72.6422   YZ=              1.6030

 ESP charges:
               1
     1  C   -0.408518
     2  C    0.820644
     3  O   -0.630907
     4  H    0.104538
     5  H    0.124038
     6  H    0.089751
     7  N   -0.793244
     8  C    0.214384
     9  C    0.681503
    10  O   -0.580445
    11  C   -0.309967
    12  C    0.663652
    13  O   -0.564134
    14  O   -0.772019
    15  H    0.384273
    16  H    0.027829
    17  H    0.086313
    18  H    0.099938
    19  N   -0.402512
    20  C   -0.182424
    21  C    0.646406
    22  O   -0.593974
    23  C    0.134280
    24  C   -0.234123
    25  C    0.084004
    26  C    0.045062
    27  N   -0.490543
    28  H    0.245477
    29  H    0.136761
    30  H   -0.034212
    31  H    0.011897
    32  H    0.130074
    33  H    0.066072
    34  H   -0.004052
    35  H    0.026773
    36  H    0.082647
    37  H    0.114054
    38  H    0.350439
    39  H    0.360386
    40  H    0.372803
    41  N   -0.565688
    42  C    0.224115
    43  C    0.320411
    44  O   -0.509918
    45  C   -0.371539
    46  C    0.728523
    47  O   -0.707438
    48  O   -0.595877
    49  H    0.315306
    50  H    0.079144
    51  H    0.095231
    52  H    0.129967
    53  N   -0.152549
    54  C   -0.442389
    55  C    0.554246
    56  O   -0.576040
    57  H    0.223478
    58  H    0.199815
    59  H    0.167008
    60  N   -0.203012
    61  C   -0.288557
    62  C    0.450622
    63  O   -0.484833
    64  C   -0.138866
    65  C    0.659567
    66  N   -0.818623
    67  O   -0.586372
    68  H    0.353030
    69  H    0.198351
    70  H    0.094281
    71  H    0.065463
    72  H    0.386982
    73  H    0.363806
    74  N   -0.030272
    75  C   -0.386558
    76  C    0.632725
    77  O   -0.534994
    78  H    0.092079
    79  H    0.154069
    80  H    0.136586
    81  N   -0.598916
    82  C    0.225927
    83  C    0.581705
    84  O   -0.631360
    85  C    0.032576
    86  C   -0.090252
    87  C    0.194444
    88  C   -0.185483
    89  C   -0.365630
    90  C   -0.241594
    91  C    0.347193
    92  O   -0.549139
    93  H    0.357823
    94  H    0.028342
    95  H   -0.006122
    96  H   -0.034395
    97  H    0.007740
    98  H    0.127043
    99  H    0.183749
   100  H    0.117107
   101  H    0.409474
   102  N   -0.606222
   103  C    0.121395
   104  C    0.620923
   105  O   -0.568460
   106  C    0.343099
   107  C    0.044808
   108  C   -0.344968
   109  C   -0.306097
   110  H    0.310260
   111  H    0.026601
   112  H   -0.066140
   113  H   -0.000574
   114  H   -0.037937
   115  H    0.088276
   116  H    0.052592
   117  H    0.042912
   118  H    0.130741
   119  H    0.077281
   120  H    0.092232
   121  N   -0.666886
   122  C    0.378680
   123  C    0.406844
   124  O   -0.370009
   125  C   -0.132471
   126  O   -0.467411
   127  H    0.414086
   128  H    0.013009
   129  H    0.104241
   130  H    0.049057
   131  H    0.421679
   132  N   -0.552197
   133  C    0.284990
   134  C    0.463731
   135  O   -0.506439
   136  C   -0.449252
   137  H    0.327170
   138  H    0.055599
   139  H    0.141025
   140  H    0.129837
   141  H    0.111875
   142  N   -0.460936
   143  C    0.256782
   144  C    0.277404
   145  O   -0.517184
   146  C   -0.280345
   147  H    0.296059
   148  H    0.049810
   149  H    0.077608
   150  H    0.037985
   151  H    0.090848
   152  N    0.083742
   153  C   -0.282161
   154  C    0.475355
   155  O   -0.549351
   156  C    0.325386
   157  C   -0.472443
   158  C    0.903555
   159  O   -0.737293
   160  O   -0.814383
   161  H   -0.003451
   162  H    0.104861
   163  H    0.034622
   164  H   -0.146982
   165  H    0.094238
   166  H    0.109055
   167  N   -0.069404
   168  C   -0.176945
   169  H    0.058244
   170  H    0.078589
   171  H    0.096280
   172  H    0.108432
   173  Ca   1.590960
   174  O   -0.883858
   175  H    0.392011
   176  H    0.430591
 Sum of ESP charges =   0.00000

 Normal termination of Gaussian 16 at Sat Sep 14 22:38:06 2019.
