 Gaussian 16, Revision A.03,
 Gaussian 16:  ES64L-G16RevA.03 25-Dec-2016

 ----------------------------------------------------------------------
 #b3lyp/svp scf=(tight,noincore) Test #IOP(5/87=12) Density=Current Pop
 =(MK,readradii) iop(6/33=2) iop(6/42=6)
 ----------------------------------------------------------------------

 ------------------
 holoCaM_loop3_97.0
 ------------------
 Symbolic Z-matrix:
 Charge =  0 Multiplicity = 1

                         Standard orientation:
 ---------------------------------------------------------------------
 Center     Atomic      Atomic             Coordinates (Angstroms)
 Number     Number       Type             X           Y           Z
 ---------------------------------------------------------------------
      1          6           0        1.434933    5.148774    4.289602
      2          6           0        0.900170    4.400593    3.081979
      3          8           0        1.717457    4.069348    2.219355
      4          1           0        1.885774    4.440535    4.985232
      5          1           0        2.186723    5.869515    3.967453
      6          1           0        0.617532    5.673135    4.784797
      7          7           0       -0.414674    4.174799    3.061910
      8          6           0       -1.019513    3.314417    2.057266
      9          6           0       -1.354457    4.131168    0.815601
     10          8           0       -2.448060    4.685939    0.758505
     11          6           0       -2.242999    2.635745    2.666764
     12          6           0       -2.932510    1.704353    1.690197
     13          8           0       -4.075062    1.333110    2.064032
     14          8           0       -2.379261    1.309762    0.636862
     15          1           0       -0.983039    4.360027    3.878520
     16          1           0       -0.251225    2.601000    1.768527
     17          1           0       -3.000154    3.365289    2.951511
     18          1           0       -2.018813    2.102999    3.594623
     19          7           0       -0.390984    4.231846   -0.098720
     20          6           0       -0.336937    5.253736   -1.130136
     21          6           0       -1.479992    5.151850   -2.124492
     22          8           0       -1.744685    6.107179   -2.860824
     23          6           0        1.036560    5.426623   -1.761497
     24          6           0        2.205202    5.582791   -0.777075
     25          6           0        2.092177    6.793493    0.141852
     26          6           0        3.214120    6.891894    1.163450
     27          7           0        3.094810    8.159492    1.893900
     28          1           0        0.405446    3.629007    0.037607
     29          1           0       -0.679257    6.142326   -0.598982
     30          1           0        1.061308    6.285065   -2.432737
     31          1           0        1.322716    4.579422   -2.382275
     32          1           0        3.162282    5.638168   -1.291013
     33          1           0        2.311586    4.731146   -0.113462
     34          1           0        1.186769    6.724652    0.745505
     35          1           0        2.108401    7.743201   -0.384827
     36          1           0        4.187384    7.028582    0.672457
     37          1           0        3.308358    6.059636    1.871522
     38          1           0        2.196557    8.221218    2.343602
     39          1           0        3.770309    8.308758    2.627399
     40          1           0        3.145483    8.964624    1.279982
     41          7           0       -2.063605    3.962557   -2.244395
     42          6           0       -3.178231    3.693020   -3.135383
     43          6           0       -4.536580    3.408010   -2.513968
     44          8           0       -5.583682    3.477955   -3.147676
     45          6           0       -2.709383    2.597014   -4.101587
     46          6           0       -2.234557    1.346061   -3.372370
     47          8           0       -2.996986    0.783877   -2.559505
     48          8           0       -1.067894    0.889478   -3.466341
     49          1           0       -1.638376    3.255572   -1.660226
     50          1           0       -3.354992    4.526246   -3.819188
     51          1           0       -1.906495    2.993189   -4.720793
     52          1           0       -3.483333    2.267028   -4.787672
     53          7           0       -4.525699    3.233555   -1.184327
     54          6           0       -5.759870    3.104201   -0.439417
     55          6           0       -6.347176    1.727019   -0.226478
     56          8           0       -7.372343    1.645855    0.444301
     57          1           0       -3.629493    3.297484   -0.731196
     58          1           0       -6.482849    3.748733   -0.953985
     59          1           0       -5.602767    3.491489    0.561496
     60          7           0       -5.732176    0.645845   -0.725115
     61          6           0       -6.335870   -0.661172   -0.875642
     62          6           0       -6.407702   -1.500481    0.392940
     63          8           0       -7.141288   -2.485070    0.381219
     64          6           0       -5.803544   -1.395169   -2.106081
     65          6           0       -4.365784   -1.859165   -1.924822
     66          7           0       -3.771366   -2.505131   -2.927017
     67          8           0       -3.686522   -1.717368   -0.910379
     68          1           0       -4.818911    0.715383   -1.153731
     69          1           0       -7.377397   -0.562757   -1.178354
     70          1           0       -5.870072   -0.665601   -2.901257
     71          1           0       -6.422006   -2.260162   -2.365680
     72          1           0       -4.253034   -2.723035   -3.798059
     73          1           0       -2.831296   -2.855570   -2.823279
     74          7           0       -5.705731   -1.068656    1.440061
     75          6           0       -5.884876   -1.746191    2.712246
     76          6           0       -4.721703   -2.542137    3.291640
     77          8           0       -4.769238   -2.968914    4.440944
     78          1           0       -5.083938   -0.280765    1.347319
     79          1           0       -6.778416   -2.369796    2.710840
     80          1           0       -6.106718   -0.910238    3.366746
     81          7           0       -3.678927   -2.694028    2.479883
     82          6           0       -2.460592   -3.451343    2.717861
     83          6           0       -1.225378   -2.820881    2.096602
     84          8           0       -1.279085   -2.038622    1.149244
     85          6           0       -2.551954   -4.882417    2.192333
     86          6           0       -3.260149   -5.042207    0.874180
     87          6           0       -2.503441   -5.024087   -0.299048
     88          6           0       -4.660617   -5.088355    0.840102
     89          6           0       -3.136128   -5.107493   -1.548908
     90          6           0       -5.270264   -5.297000   -0.400583
     91          6           0       -4.507295   -5.421094   -1.579811
     92          8           0       -5.143363   -5.741665   -2.745166
     93          1           0       -3.695797   -2.149656    1.626084
     94          1           0       -2.301088   -3.543760    3.791415
     95          1           0       -3.147249   -5.446066    2.914291
     96          1           0       -1.585825   -5.385920    2.201244
     97          1           0       -1.426827   -4.893921   -0.277618
     98          1           0       -5.158505   -5.114283    1.801785
     99          1           0       -2.488836   -5.136616   -2.416528
    100          1           0       -6.341630   -5.390231   -0.508662
    101          1           0       -6.091864   -5.837209   -2.670219
    102          7           0       -0.040012   -3.126045    2.616490
    103          6           0        1.208864   -2.508477    2.231761
    104          6           0        1.922742   -3.479238    1.302622
    105          8           0        1.896747   -4.687314    1.509691
    106          6           0        2.072864   -2.194397    3.455468
    107          6           0        1.434353   -1.067905    4.272057
    108          6           0        3.547544   -1.877655    3.236621
    109          6           0        1.081833    0.231260    3.577721
    110          1           0       -0.027758   -3.785503    3.393256
    111          1           0        1.089899   -1.587542    1.662703
    112          1           0        2.084277   -3.075538    4.085755
    113          1           0        2.062282   -0.876604    5.142924
    114          1           0        0.475954   -1.445291    4.633652
    115          1           0        4.008752   -2.797753    2.859651
    116          1           0        3.661696   -0.997782    2.600703
    117          1           0        4.074481   -1.595289    4.143652
    118          1           0        0.261227    0.137368    2.863656
    119          1           0        0.753293    0.942292    4.331773
    120          1           0        2.002395    0.495651    3.054880
    121          7           0        2.636600   -2.938632    0.317202
    122          6           0        3.571873   -3.738206   -0.455162
    123          6           0        5.042068   -3.373132   -0.340927
    124          8           0        5.348872   -2.416509    0.371634
    125          6           0        3.107375   -3.564729   -1.901553
    126          8           0        3.394099   -2.270830   -2.387467
    127          1           0        2.630706   -1.936487    0.191223
    128          1           0        3.408325   -4.796429   -0.276793
    129          1           0        2.030344   -3.723717   -1.890285
    130          1           0        3.589296   -4.301619   -2.532699
    131          1           0        2.670914   -1.642555   -2.316941
    132          7           0        5.966331   -4.045824   -1.032175
    133          6           0        7.392961   -3.787374   -1.119518
    134          6           0        7.666324   -2.430728   -1.739910
    135          8           0        8.704738   -1.820437   -1.488437
    136          6           0        8.047675   -4.911278   -1.930560
    137          1           0        5.630625   -4.771084   -1.642093
    138          1           0        7.927589   -3.797549   -0.170535
    139          1           0        7.854078   -4.716967   -2.988134
    140          1           0        9.131783   -4.901772   -1.874709
    141          1           0        7.725550   -5.809946   -1.399494
    142          7           0        6.768390   -1.799240   -2.494522
    143          6           0        6.762237   -0.409451   -2.908827
    144          6           0        6.562117    0.550095   -1.744471
    145          8           0        7.199285    1.590606   -1.675513
    146          6           0        5.750693   -0.174638   -4.029827
    147          1           0        6.031225   -2.418211   -2.792619
    148          1           0        7.723772   -0.224553   -3.388058
    149          1           0        5.869124    0.784281   -4.534850
    150          1           0        6.008936   -0.911308   -4.782907
    151          1           0        4.713231   -0.321108   -3.707307
    152          7           0        5.716852    0.181791   -0.780117
    153          6           0        5.212794    1.049840    0.269128
    154          6           0        6.021699    0.846357    1.552782
    155          8           0        6.133955    1.792945    2.333531
    156          6           0        3.751593    0.649323    0.487704
    157          6           0        2.903396    1.375665   -0.546602
    158          6           0        1.561904    0.673204   -0.662988
    159          8           0        0.512840    1.312894   -0.403059
    160          8           0        1.438444   -0.549157   -0.885683
    161          1           0        5.249684   -0.709533   -0.874438
    162          1           0        5.349042    2.075535   -0.066710
    163          1           0        3.374464    0.986599    1.449950
    164          1           0        3.743265   -0.433037    0.350123
    165          1           0        3.331999    1.340440   -1.547781
    166          1           0        2.639382    2.399380   -0.253166
    167          7           0        6.605659   -0.342293    1.735823
    168          6           0        7.475453   -0.657150    2.839510
    169          1           0        6.896998   -0.676578    3.763078
    170          1           0        7.930477   -1.634086    2.676599
    171          1           0        8.255421    0.100493    2.915409
    172          1           0        6.442316   -1.096991    1.086864
    173         20           0       -1.293562   -0.393983   -0.964202
    174          8           0       -0.819846   -2.784699   -2.187711
    175          1           0       -0.437857   -2.577236   -3.039793
    176          1           0       -0.837791   -3.733059   -2.161427
 ---------------------------------------------------------------------

 SCF Done:  E(RB3LYP) =  -5333.64103415     A.U. after   18 cycles

 The electronic state is 1-A.
 Alpha  occ. eigenvalues -- -145.35813 -19.20277 -19.15905 -19.15432 -19.13969
 Alpha  occ. eigenvalues --  -19.12838 -19.12073 -19.10385 -19.09497 -19.09396
 Alpha  occ. eigenvalues --  -19.09341 -19.09326 -19.08043 -19.07799 -19.07348
 Alpha  occ. eigenvalues --  -19.06980 -19.06220 -19.04802 -19.04759 -19.04562
 Alpha  occ. eigenvalues --  -19.04496 -19.04171 -19.03396 -19.02256 -15.41534
 Alpha  occ. eigenvalues --  -14.57999 -14.40050 -14.38179 -14.37122 -14.36104
 Alpha  occ. eigenvalues --  -14.35994 -14.35165 -14.33944 -14.33795 -14.33314
 Alpha  occ. eigenvalues --  -14.32727 -14.32450 -14.29884 -14.29759 -14.29546
 Alpha  occ. eigenvalues --  -12.55140 -12.55125 -12.55104 -10.33677 -10.32688
 Alpha  occ. eigenvalues --  -10.31467 -10.30251 -10.28737 -10.28637 -10.28119
 Alpha  occ. eigenvalues --  -10.27639 -10.27263 -10.26861 -10.26824 -10.26708
 Alpha  occ. eigenvalues --  -10.26606 -10.26390 -10.25613 -10.25562 -10.25173
 Alpha  occ. eigenvalues --  -10.24774 -10.23987 -10.23828 -10.23557 -10.23456
 Alpha  occ. eigenvalues --  -10.23451 -10.23429 -10.23399 -10.23215 -10.23098
 Alpha  occ. eigenvalues --  -10.23088 -10.22528 -10.22348 -10.22011 -10.21815
 Alpha  occ. eigenvalues --  -10.21750 -10.20524 -10.20092 -10.20063 -10.19531
 Alpha  occ. eigenvalues --  -10.19401 -10.19135 -10.18905 -10.18794 -10.18663
 Alpha  occ. eigenvalues --  -10.18626 -10.18329 -10.18267 -10.18151 -10.18041
 Alpha  occ. eigenvalues --  -10.17990 -10.17989 -10.17936 -10.17766 -10.17031
 Alpha  occ. eigenvalues --  -10.16491 -10.15553  -1.78373  -1.13496  -1.07280
 Alpha  occ. eigenvalues --   -1.06888  -1.06113  -1.05991  -1.05573  -1.05274
 Alpha  occ. eigenvalues --   -1.05028  -1.04398  -1.03852  -1.03446  -1.03308
 Alpha  occ. eigenvalues --   -1.03117  -1.02535  -1.02341  -1.01423  -1.00258
 Alpha  occ. eigenvalues --   -0.99562  -0.99536  -0.99278  -0.97871  -0.97653
 Alpha  occ. eigenvalues --   -0.97514  -0.96711  -0.96292  -0.94704  -0.93764
 Alpha  occ. eigenvalues --   -0.93166  -0.92833  -0.92633  -0.92458  -0.91227
 Alpha  occ. eigenvalues --   -0.90118  -0.90017  -0.88938  -0.88612  -0.88267
 Alpha  occ. eigenvalues --   -0.88143  -0.87918  -0.87414  -0.86496  -0.85781
 Alpha  occ. eigenvalues --   -0.84279  -0.82835  -0.81922  -0.81552  -0.79680
 Alpha  occ. eigenvalues --   -0.79191  -0.78638  -0.78350  -0.77378  -0.76585
 Alpha  occ. eigenvalues --   -0.75429  -0.74733  -0.74644  -0.74367  -0.73845
 Alpha  occ. eigenvalues --   -0.72897  -0.72502  -0.72341  -0.72176  -0.71093
 Alpha  occ. eigenvalues --   -0.69242  -0.69100  -0.69043  -0.68244  -0.68117
 Alpha  occ. eigenvalues --   -0.67297  -0.65653  -0.65442  -0.65120  -0.64484
 Alpha  occ. eigenvalues --   -0.64115  -0.63317  -0.63146  -0.62578  -0.62036
 Alpha  occ. eigenvalues --   -0.61404  -0.61402  -0.60863  -0.59968  -0.59862
 Alpha  occ. eigenvalues --   -0.59838  -0.59604  -0.59309  -0.59062  -0.58389
 Alpha  occ. eigenvalues --   -0.58173  -0.57867  -0.57224  -0.56665  -0.56603
 Alpha  occ. eigenvalues --   -0.55572  -0.55528  -0.55291  -0.55239  -0.55144
 Alpha  occ. eigenvalues --   -0.54403  -0.54147  -0.54003  -0.53675  -0.53412
 Alpha  occ. eigenvalues --   -0.53128  -0.52887  -0.52820  -0.52110  -0.51618
 Alpha  occ. eigenvalues --   -0.51538  -0.51357  -0.50443  -0.50408  -0.50182
 Alpha  occ. eigenvalues --   -0.49932  -0.49473  -0.49446  -0.49291  -0.48992
 Alpha  occ. eigenvalues --   -0.48755  -0.48571  -0.48311  -0.48220  -0.47764
 Alpha  occ. eigenvalues --   -0.47679  -0.47523  -0.47257  -0.47128  -0.46761
 Alpha  occ. eigenvalues --   -0.46532  -0.46382  -0.46261  -0.46004  -0.45908
 Alpha  occ. eigenvalues --   -0.45836  -0.45729  -0.45391  -0.45236  -0.44929
 Alpha  occ. eigenvalues --   -0.44705  -0.44567  -0.44470  -0.44410  -0.44007
 Alpha  occ. eigenvalues --   -0.43996  -0.43882  -0.43790  -0.43601  -0.43459
 Alpha  occ. eigenvalues --   -0.43205  -0.43098  -0.42830  -0.42428  -0.42265
 Alpha  occ. eigenvalues --   -0.42056  -0.41804  -0.41708  -0.41600  -0.41528
 Alpha  occ. eigenvalues --   -0.41465  -0.41291  -0.41174  -0.41061  -0.40822
 Alpha  occ. eigenvalues --   -0.40757  -0.40685  -0.40582  -0.40530  -0.40512
 Alpha  occ. eigenvalues --   -0.40481  -0.40143  -0.40043  -0.39949  -0.39712
 Alpha  occ. eigenvalues --   -0.39598  -0.39500  -0.39348  -0.39298  -0.39082
 Alpha  occ. eigenvalues --   -0.39031  -0.38667  -0.38616  -0.38501  -0.38291
 Alpha  occ. eigenvalues --   -0.38252  -0.37998  -0.37962  -0.37698  -0.37512
 Alpha  occ. eigenvalues --   -0.37366  -0.37266  -0.37239  -0.37004  -0.36840
 Alpha  occ. eigenvalues --   -0.36798  -0.36615  -0.36512  -0.36309  -0.36243
 Alpha  occ. eigenvalues --   -0.35945  -0.35887  -0.35710  -0.35262  -0.35158
 Alpha  occ. eigenvalues --   -0.35034  -0.34598  -0.34403  -0.34317  -0.34188
 Alpha  occ. eigenvalues --   -0.33859  -0.33724  -0.33668  -0.33594  -0.33403
 Alpha  occ. eigenvalues --   -0.32898  -0.32654  -0.32359  -0.32132  -0.31759
 Alpha  occ. eigenvalues --   -0.31574  -0.31375  -0.31315  -0.31093  -0.30055
 Alpha  occ. eigenvalues --   -0.29796  -0.29684  -0.28649  -0.28339  -0.27927
 Alpha  occ. eigenvalues --   -0.27355  -0.27270  -0.27199  -0.26983  -0.26857
 Alpha  occ. eigenvalues --   -0.26235  -0.26127  -0.25873  -0.25514  -0.25223
 Alpha  occ. eigenvalues --   -0.25089  -0.25026  -0.24208  -0.23967  -0.23572
 Alpha  occ. eigenvalues --   -0.23541  -0.23436  -0.23384  -0.23365  -0.23004
 Alpha  occ. eigenvalues --   -0.22779  -0.22361  -0.21864  -0.21818  -0.21491
 Alpha  occ. eigenvalues --   -0.21273  -0.20971  -0.20396  -0.20260  -0.19541
 Alpha  occ. eigenvalues --   -0.19197  -0.18582  -0.18463
 Alpha virt. eigenvalues --   -0.10425  -0.04582  -0.04008  -0.02677  -0.01737
 Alpha virt. eigenvalues --   -0.01237  -0.01063  -0.00002   0.00057   0.00342
 Alpha virt. eigenvalues --    0.00750   0.01292   0.01395   0.01609   0.02356

 Mulliken charges:
               1
     1  C    0.070534
     2  C    0.034549
     3  O   -0.311767
     4  H    0.068686
     5  H   -0.045939
     6  H    0.006195
     7  N   -0.106400
     8  C    0.077273
     9  C    0.051316
    10  O   -0.278491
    11  C    0.070535
    12  C    0.151674
    13  O   -0.377334
    14  O   -0.459467
    15  H    0.129211
    16  H    0.024262
    17  H    0.011924
    18  H    0.004413
    19  N   -0.151005
    20  C    0.127085
    21  C    0.042022
    22  O   -0.295740
    23  C    0.115811
    24  C   -0.000380
    25  C   -0.038161
    26  C    0.022806
    27  N    0.074815
    28  H    0.151814
    29  H   -0.004334
    30  H    0.013521
    31  H    0.024054
    32  H    0.006770
    33  H    0.050306
    34  H    0.033108
    35  H   -0.001669
    36  H    0.052143
    37  H    0.109681
    38  H    0.177369
    39  H    0.185292
    40  H    0.183704
    41  N   -0.142293
    42  C    0.107073
    43  C    0.086145
    44  O   -0.282122
    45  C    0.140383
    46  C    0.043926
    47  O   -0.427181
    48  O   -0.408792
    49  H    0.161261
    50  H    0.028639
    51  H   -0.013560
    52  H    0.011450
    53  N   -0.177874
    54  C    0.219533
    55  C    0.061611
    56  O   -0.298414
    57  H    0.133578
    58  H    0.029770
    59  H    0.024263
    60  N   -0.149953
    61  C    0.143097
    62  C    0.080020
    63  O   -0.312007
    64  C    0.039730
    65  C    0.087835
    66  N   -0.036133
    67  O   -0.347310
    68  H    0.148485
    69  H    0.007000
    70  H    0.046465
    71  H    0.026464
    72  H    0.114187
    73  H    0.075509
    74  N   -0.171617
    75  C    0.213181
    76  C    0.015767
    77  O   -0.291680
    78  H    0.153505
    79  H    0.038426
    80  H    0.034481
    81  N   -0.135773
    82  C    0.155682
    83  C    0.104613
    84  O   -0.349108
    85  C    0.112838
    86  C   -0.070170
    87  C   -0.004597
    88  C    0.041332
    89  C   -0.039951
    90  C   -0.007455
    91  C    0.156317
    92  O   -0.211473
    93  H    0.163641
    94  H    0.002953
    95  H    0.005470
    96  H   -0.004441
    97  H   -0.036423
    98  H   -0.005191
    99  H   -0.057608
   100  H   -0.025862
   101  H    0.176263
   102  N   -0.095340
   103  C    0.147536
   104  C    0.060214
   105  O   -0.290984
   106  C   -0.109391
   107  C    0.038643
   108  C    0.078959
   109  C   -0.010893
   110  H    0.133447
   111  H    0.009863
   112  H   -0.020288
   113  H   -0.005943
   114  H   -0.021693
   115  H    0.023824
   116  H   -0.005748
   117  H    0.000183
   118  H    0.053483
   119  H    0.003453
   120  H    0.006576
   121  N   -0.139160
   122  C    0.085825
   123  C    0.128409
   124  O   -0.289657
   125  C    0.233325
   126  O   -0.345038
   127  H    0.150444
   128  H    0.026722
   129  H   -0.013778
   130  H   -0.013761
   131  H    0.184099
   132  N   -0.116663
   133  C    0.081380
   134  C    0.029513
   135  O   -0.267347
   136  C    0.033648
   137  H    0.116436
   138  H    0.032422
   139  H    0.021402
   140  H    0.042681
   141  H    0.036138
   142  N   -0.128628
   143  C    0.118515
   144  C    0.065173
   145  O   -0.263113
   146  C    0.029591
   147  H    0.101533
   148  H    0.010947
   149  H    0.030804
   150  H    0.006069
   151  H    0.024268
   152  N   -0.160163
   153  C    0.115223
   154  C    0.078892
   155  O   -0.304802
   156  C   -0.045426
   157  C    0.129433
   158  C    0.121417
   159  O   -0.415588
   160  O   -0.443770
   161  H    0.118385
   162  H   -0.005615
   163  H    0.047955
   164  H    0.019045
   165  H    0.003341
   166  H    0.003575
   167  N   -0.156659
   168  C    0.147438
   169  H    0.009279
   170  H    0.007716
   171  H    0.024308
   172  H    0.127733
   173  Ca   1.250382
   174  O   -0.241427
   175  H    0.193412
   176  H    0.183723
 Sum of Mulliken charges =  -0.00000

 Dipole moment (field-independent basis, Debye):
    X=             24.1485    Y=             10.2852    Z=              3.4055  Tot=             26.4676
 Quadrupole moment (field-independent basis, Debye-Ang):
   XX=           -717.5385   YY=           -318.4359   ZZ=           -541.4977
   XY=             81.6277   XZ=             28.7078   YZ=            125.7401

 ESP charges:
               1
     1  C   -0.413072
     2  C    0.725612
     3  O   -0.570732
     4  H    0.141007
     5  H    0.091444
     6  H    0.084044
     7  N   -0.751113
     8  C    0.494519
     9  C    0.352582
    10  O   -0.498323
    11  C   -0.437071
    12  C    0.832916
    13  O   -0.644547
    14  O   -0.808234
    15  H    0.380730
    16  H   -0.075757
    17  H    0.109032
    18  H    0.098005
    19  N   -0.051392
    20  C   -0.206442
    21  C    0.543423
    22  O   -0.562357
    23  C   -0.039818
    24  C   -0.052128
    25  C   -0.104130
    26  C    0.214840
    27  N   -0.442555
    28  H    0.204863
    29  H    0.089247
    30  H    0.072765
    31  H    0.062349
    32  H    0.040666
    33  H    0.030973
    34  H    0.039720
    35  H    0.042978
    36  H    0.046758
    37  H    0.035922
    38  H    0.312424
    39  H    0.344530
    40  H    0.339459
    41  N   -0.251994
    42  C    0.069023
    43  C    0.336908
    44  O   -0.524984
    45  C   -0.233345
    46  C    0.766887
    47  O   -0.759288
    48  O   -0.759082
    49  H    0.155032
    50  H    0.105302
    51  H    0.059515
    52  H    0.084556
    53  N    0.113997
    54  C   -0.459884
    55  C    0.694473
    56  O   -0.590283
    57  H   -0.022122
    58  H    0.159856
    59  H    0.180853
    60  N   -0.434304
    61  C    0.070430
    62  C    0.345657
    63  O   -0.545316
    64  C   -0.326441
    65  C    0.821162
    66  N   -0.859249
    67  O   -0.519529
    68  H    0.283782
    69  H    0.096998
    70  H    0.120317
    71  H    0.104360
    72  H    0.350245
    73  H    0.373093
    74  N    0.064394
    75  C   -0.362866
    76  C    0.628870
    77  O   -0.573504
    78  H    0.132005
    79  H    0.151393
    80  H    0.129850
    81  N   -0.330883
    82  C   -0.008609
    83  C    0.633404
    84  O   -0.561526
    85  C   -0.058094
    86  C    0.067438
    87  C   -0.290488
    88  C   -0.148824
    89  C   -0.178929
    90  C   -0.301214
    91  C    0.387646
    92  O   -0.583400
    93  H    0.166242
    94  H    0.076379
    95  H    0.046670
    96  H    0.041027
    97  H    0.172106
    98  H    0.172434
    99  H    0.104227
   100  H    0.157188
   101  H    0.423576
   102  N   -0.601235
   103  C    0.256400
   104  C    0.471842
   105  O   -0.564234
   106  C    0.136704
   107  C   -0.097425
   108  C   -0.220554
   109  C    0.006253
   110  H    0.311567
   111  H    0.024675
   112  H   -0.009211
   113  H    0.029625
   114  H   -0.020252
   115  H    0.043372
   116  H    0.046418
   117  H    0.073059
   118  H    0.051287
   119  H    0.033356
   120  H   -0.039527
   121  N   -0.115053
   122  C    0.112485
   123  C    0.329447
   124  O   -0.351173
   125  C    0.147395
   126  O   -0.589314
   127  H   -0.127397
   128  H    0.040481
   129  H   -0.001176
   130  H    0.027120
   131  H    0.419748
   132  N   -0.410065
   133  C    0.234654
   134  C    0.454041
   135  O   -0.546982
   136  C   -0.413798
   137  H    0.264774
   138  H    0.069759
   139  H    0.105527
   140  H    0.145199
   141  H    0.117963
   142  N   -0.309909
   143  C    0.050282
   144  C    0.385309
   145  O   -0.526224
   146  C   -0.259120
   147  H    0.226994
   148  H    0.103612
   149  H    0.107074
   150  H    0.069169
   151  H    0.054746
   152  N    0.025738
   153  C   -0.353203
   154  C    0.565717
   155  O   -0.579636
   156  C    0.252666
   157  C   -0.402940
   158  C    0.730135
   159  O   -0.666016
   160  O   -0.669621
   161  H    0.069609
   162  H    0.136489
   163  H    0.031965
   164  H    0.109536
   165  H    0.098629
   166  H    0.122792
   167  N   -0.149058
   168  C   -0.275034
   169  H    0.083613
   170  H    0.110842
   171  H    0.119487
   172  H    0.105284
   173  Ca   1.513182
   174  O   -0.779878
   175  H    0.417096
   176  H    0.398639
 Sum of ESP charges =  -0.00000

 Normal termination of Gaussian 16 at Sat Sep 14 23:27:59 2019.
