 Gaussian 16, Revision A.03,
 Gaussian 16:  ES64L-G16RevA.03 25-Dec-2016

 ----------------------------------------------------------------------
 #b3lyp/svp scf=(tight,noincore) Test #IOP(5/87=12) Density=Current Pop
 =(MK,readradii) iop(6/33=2) iop(6/42=6)
 ----------------------------------------------------------------------

 -------------------
 holoCaM_loop3_102.0
 -------------------
 Symbolic Z-matrix:
 Charge =  0 Multiplicity = 1

                         Standard orientation:
 ---------------------------------------------------------------------
 Center     Atomic      Atomic             Coordinates (Angstroms)
 Number     Number       Type             X           Y           Z
 ---------------------------------------------------------------------
      1          6           0        2.246399    4.510868    4.488204
      2          6           0        1.607870    3.765618    3.330368
      3          8           0        2.299012    3.414594    2.384110
      4          1           0        2.396352    3.825434    5.322356
      5          1           0        3.208085    4.915591    4.173865
      6          1           0        1.592921    5.325286    4.801305
      7          7           0        0.301998    3.468397    3.406235
      8          6           0       -0.428089    3.043004    2.233966
      9          6           0       -0.712094    4.166444    1.239267
     10          8           0       -1.187916    5.237305    1.584883
     11          6           0       -1.764573    2.398275    2.604283
     12          6           0       -2.417298    1.509307    1.552482
     13          8           0       -3.337586    0.722818    1.898611
     14          8           0       -2.105512    1.634274    0.355581
     15          1           0       -0.213788    3.602614    4.262244
     16          1           0        0.152437    2.248454    1.777042
     17          1           0       -2.424585    3.211264    2.900142
     18          1           0       -1.759270    1.875826    3.553872
     19          7           0       -0.282630    3.869453    0.004902
     20          6           0       -0.257825    4.903862   -1.000276
     21          6           0       -1.485259    4.902672   -1.900889
     22          8           0       -1.608994    5.708191   -2.809916
     23          6           0        1.103952    5.026345   -1.665754
     24          6           0        2.312920    5.293020   -0.778409
     25          6           0        2.324818    6.658761   -0.102679
     26          6           0        3.677996    6.775011    0.596317
     27          7           0        3.584070    7.861532    1.575424
     28          1           0        0.027021    2.922171   -0.199237
     29          1           0       -0.376413    5.881730   -0.540483
     30          1           0        1.038361    5.800922   -2.430690
     31          1           0        1.363769    4.032254   -2.043747
     32          1           0        3.188760    5.167351   -1.421845
     33          1           0        2.462652    4.539768   -0.005369
     34          1           0        1.502753    6.782670    0.604043
     35          1           0        2.266345    7.377458   -0.917882
     36          1           0        4.427421    6.823626   -0.205056
     37          1           0        3.860978    5.836651    1.116316
     38          1           0        3.501752    8.744747    1.093185
     39          1           0        2.828823    7.587753    2.190606
     40          1           0        4.320776    7.930399    2.259691
     41          7           0       -2.393955    3.924965   -1.764286
     42          6           0       -3.586356    3.785395   -2.565785
     43          6           0       -4.806030    3.325176   -1.771308
     44          8           0       -5.862334    3.239822   -2.400939
     45          6           0       -3.269936    3.059143   -3.866145
     46          6           0       -2.645984    1.669439   -3.750787
     47          8           0       -2.973931    0.872889   -2.840095
     48          8           0       -1.746845    1.340129   -4.544515
     49          1           0       -2.114331    3.184952   -1.140755
     50          1           0       -3.843853    4.754482   -2.985268
     51          1           0       -2.502982    3.626535   -4.388301
     52          1           0       -4.182177    3.031982   -4.466460
     53          7           0       -4.760184    3.201939   -0.442131
     54          6           0       -5.870400    3.110697    0.490818
     55          6           0       -6.578224    1.772612    0.304499
     56          8           0       -7.515905    1.516042    1.065699
     57          1           0       -3.829270    3.390498   -0.090215
     58          1           0       -6.602099    3.896892    0.342782
     59          1           0       -5.323165    3.200748    1.433063
     60          7           0       -6.142792    0.859012   -0.553891
     61          6           0       -6.798730   -0.421402   -0.789016
     62          6           0       -6.866108   -1.302021    0.450972
     63          8           0       -7.804769   -2.055072    0.677751
     64          6           0       -6.156316   -1.095236   -1.984112
     65          6           0       -4.706056   -1.559512   -1.851477
     66          7           0       -4.171657   -2.167834   -2.911884
     67          8           0       -4.012101   -1.205919   -0.904905
     68          1           0       -5.346010    1.077205   -1.133227
     69          1           0       -7.831372   -0.228260   -1.064417
     70          1           0       -6.112880   -0.430122   -2.852638
     71          1           0       -6.808213   -1.891177   -2.351409
     72          1           0       -4.739058   -2.418149   -3.716619
     73          1           0       -3.276837   -2.612590   -2.813954
     74          7           0       -5.863782   -1.182737    1.329672
     75          6           0       -5.875396   -1.591504    2.723435
     76          6           0       -4.602956   -2.223468    3.267970
     77          8           0       -4.633506   -2.742728    4.384005
     78          1           0       -5.082918   -0.693588    0.918352
     79          1           0       -6.528385   -2.465690    2.721482
     80          1           0       -6.257822   -0.770343    3.324055
     81          7           0       -3.606232   -2.373605    2.396304
     82          6           0       -2.460732   -3.230695    2.630026
     83          6           0       -1.148004   -2.785431    1.994663
     84          8           0       -1.101337   -1.951181    1.091752
     85          6           0       -2.796212   -4.614910    2.080207
     86          6           0       -3.373995   -4.882063    0.711815
     87          6           0       -2.609244   -5.653138   -0.164882
     88          6           0       -4.672310   -4.456731    0.387358
     89          6           0       -3.046989   -5.914644   -1.471976
     90          6           0       -5.141529   -4.924375   -0.840258
     91          6           0       -4.405719   -5.694890   -1.763454
     92          8           0       -4.966772   -6.091764   -2.939511
     93          1           0       -3.741019   -2.102836    1.429651
     94          1           0       -2.237258   -3.334220    3.691884
     95          1           0       -3.536221   -5.017276    2.776834
     96          1           0       -1.954525   -5.271915    2.301129
     97          1           0       -1.606349   -5.855022    0.195598
     98          1           0       -5.295288   -3.968792    1.129391
     99          1           0       -2.406514   -6.420543   -2.175651
    100          1           0       -6.173514   -4.666332   -1.046467
    101          1           0       -5.927498   -5.979332   -2.910094
    102          7           0       -0.079518   -3.128736    2.712631
    103          6           0        1.205833   -2.555807    2.371125
    104          6           0        1.943846   -3.545162    1.482635
    105          8           0        2.070407   -4.714237    1.813460
    106          6           0        2.089839   -2.127676    3.542252
    107          6           0        1.416444   -1.011133    4.338287
    108          6           0        3.536830   -1.719436    3.313216
    109          6           0        1.258146    0.308745    3.594605
    110          1           0       -0.226262   -3.818163    3.434405
    111          1           0        1.132987   -1.696876    1.706347
    112          1           0        2.053573   -2.978257    4.232031
    113          1           0        2.004874   -0.741924    5.220487
    114          1           0        0.484400   -1.349577    4.787453
    115          1           0        4.065031   -2.563918    2.864602
    116          1           0        3.599820   -0.776467    2.769211
    117          1           0        4.092691   -1.407490    4.198998
    118          1           0        0.716167    0.146909    2.663279
    119          1           0        0.628295    1.023970    4.130740
    120          1           0        2.174039    0.872632    3.435636
    121          7           0        2.423340   -3.035297    0.345128
    122          6           0        3.328677   -3.608585   -0.636048
    123          6           0        4.807830   -3.484779   -0.277748
    124          8           0        5.146184   -2.761766    0.649435
    125          6           0        2.919057   -3.066651   -2.004741
    126          8           0        3.578410   -1.907097   -2.474301
    127          1           0        2.292426   -2.038267    0.240757
    128          1           0        3.218011   -4.693657   -0.728623
    129          1           0        1.846660   -2.924213   -1.980727
    130          1           0        3.217095   -3.753423   -2.798540
    131          1           0        3.302777   -1.804294   -3.387568
    132          7           0        5.688047   -4.125810   -1.041945
    133          6           0        7.106099   -3.891112   -0.859342
    134          6           0        7.571367   -2.525478   -1.336805
    135          8           0        8.344986   -1.841122   -0.681008
    136          6           0        7.945339   -4.944697   -1.568590
    137          1           0        5.417558   -4.753726   -1.788709
    138          1           0        7.340046   -4.035746    0.201954
    139          1           0        7.836014   -4.840930   -2.656331
    140          1           0        9.002790   -4.757669   -1.415887
    141          1           0        7.698089   -5.967742   -1.270016
    142          7           0        6.952343   -2.077112   -2.432194
    143          6           0        7.148173   -0.714674   -2.892535
    144          6           0        6.612777    0.369528   -1.963419
    145          8           0        7.041904    1.516387   -2.057566
    146          6           0        6.460446   -0.601406   -4.243832
    147          1           0        6.182068   -2.566553   -2.870513
    148          1           0        8.217888   -0.528072   -3.014148
    149          1           0        6.427756    0.381870   -4.714894
    150          1           0        6.878905   -1.250655   -5.004600
    151          1           0        5.412868   -0.892097   -4.102840
    152          7           0        5.660502    0.027534   -1.097385
    153          6           0        5.098491    0.892109   -0.079076
    154          6           0        5.863910    0.740802    1.232008
    155          8           0        6.120053    1.760736    1.861233
    156          6           0        3.598123    0.733370    0.121667
    157          6           0        2.731633    1.178261   -1.060604
    158          6           0        1.255482    0.850960   -0.889867
    159          8           0        0.370391    1.415711   -1.577379
    160          8           0        0.945398   -0.099528   -0.129788
    161          1           0        5.190072   -0.865207   -1.144371
    162          1           0        5.311145    1.892776   -0.453164
    163          1           0        3.363799    1.311023    1.009985
    164          1           0        3.483900   -0.334304    0.291742
    165          1           0        3.171764    0.814035   -1.981975
    166          1           0        2.914568    2.247871   -1.159441
    167          7           0        6.279349   -0.479037    1.584575
    168          6           0        7.204448   -0.710825    2.683469
    169          1           0        6.644019   -0.987666    3.576725
    170          1           0        7.888750   -1.517331    2.419453
    171          1           0        7.772936    0.199028    2.879097
    172          1           0        6.126486   -1.246305    0.945723
    173         20           0       -1.457224   -0.501290   -1.101639
    174          8           0       -0.433230   -0.636814   -3.603072
    175          1           0       -0.947761    0.126076   -3.871505
    176          1           0       -0.393977   -1.192790   -4.374013
 ---------------------------------------------------------------------

 SCF Done:  E(RB3LYP) =  -5333.56796257     A.U. after   18 cycles

 The electronic state is 1-A.
 Alpha  occ. eigenvalues -- -145.37825 -19.17947 -19.17457 -19.14049 -19.13256
 Alpha  occ. eigenvalues --  -19.12718 -19.11316 -19.11084 -19.10320 -19.09843
 Alpha  occ. eigenvalues --  -19.08967 -19.08162 -19.07336 -19.06907 -19.06403
 Alpha  occ. eigenvalues --  -19.06228 -19.06081 -19.06033 -19.05335 -19.05014
 Alpha  occ. eigenvalues --  -19.04747 -19.03594 -19.02701 -19.02632 -15.43522
 Alpha  occ. eigenvalues --  -14.57401 -14.40155 -14.37606 -14.37500 -14.37251
 Alpha  occ. eigenvalues --  -14.36319 -14.36157 -14.33951 -14.33546 -14.33115
 Alpha  occ. eigenvalues --  -14.31850 -14.31739 -14.31571 -14.31275 -14.30619
 Alpha  occ. eigenvalues --  -12.57146 -12.57103 -12.57087 -10.32681 -10.32500
 Alpha  occ. eigenvalues --  -10.31428 -10.30383 -10.29856 -10.29787 -10.28212
 Alpha  occ. eigenvalues --  -10.27986 -10.27218 -10.27120 -10.26699 -10.26128
 Alpha  occ. eigenvalues --  -10.26086 -10.25989 -10.25852 -10.25125 -10.25075
 Alpha  occ. eigenvalues --  -10.24782 -10.24611 -10.24463 -10.24330 -10.23857
 Alpha  occ. eigenvalues --  -10.23592 -10.23561 -10.22746 -10.22398 -10.21953
 Alpha  occ. eigenvalues --  -10.21863 -10.21726 -10.21456 -10.21415 -10.21148
 Alpha  occ. eigenvalues --  -10.20766 -10.20318 -10.20232 -10.20194 -10.19890
 Alpha  occ. eigenvalues --  -10.19751 -10.19531 -10.19494 -10.19475 -10.19420
 Alpha  occ. eigenvalues --  -10.19389 -10.19336 -10.19042 -10.18961 -10.18780
 Alpha  occ. eigenvalues --  -10.17015 -10.16942 -10.16770 -10.16551 -10.16439
 Alpha  occ. eigenvalues --  -10.15625 -10.13891  -1.80292  -1.12715  -1.07910
 Alpha  occ. eigenvalues --   -1.07727  -1.07718  -1.07542  -1.06198  -1.05904
 Alpha  occ. eigenvalues --   -1.05726  -1.05251  -1.04456  -1.04129  -1.02941
 Alpha  occ. eigenvalues --   -1.01773  -1.01504  -1.01262  -1.00062  -0.99882
 Alpha  occ. eigenvalues --   -0.99400  -0.99052  -0.98823  -0.98686  -0.98640
 Alpha  occ. eigenvalues --   -0.97784  -0.96954  -0.96626  -0.94145  -0.93999
 Alpha  occ. eigenvalues --   -0.93553  -0.92681  -0.92675  -0.91302  -0.90944
 Alpha  occ. eigenvalues --   -0.90927  -0.90824  -0.89294  -0.88834  -0.87971
 Alpha  occ. eigenvalues --   -0.87954  -0.87750  -0.87504  -0.87167  -0.87046
 Alpha  occ. eigenvalues --   -0.85563  -0.82591  -0.81413  -0.79704  -0.79242
 Alpha  occ. eigenvalues --   -0.78729  -0.78020  -0.77901  -0.77810  -0.76881
 Alpha  occ. eigenvalues --   -0.75158  -0.74878  -0.74559  -0.73693  -0.73610
 Alpha  occ. eigenvalues --   -0.72685  -0.72568  -0.71084  -0.71028  -0.70352
 Alpha  occ. eigenvalues --   -0.70165  -0.69725  -0.69466  -0.67834  -0.67409
 Alpha  occ. eigenvalues --   -0.67040  -0.66799  -0.65689  -0.65063  -0.64514
 Alpha  occ. eigenvalues --   -0.64375  -0.62941  -0.62600  -0.62580  -0.61893
 Alpha  occ. eigenvalues --   -0.61250  -0.61073  -0.60752  -0.60436  -0.60358
 Alpha  occ. eigenvalues --   -0.60067  -0.59709  -0.58840  -0.58763  -0.58196
 Alpha  occ. eigenvalues --   -0.57780  -0.57528  -0.57021  -0.56637  -0.56409
 Alpha  occ. eigenvalues --   -0.56022  -0.55615  -0.55558  -0.55229  -0.54942
 Alpha  occ. eigenvalues --   -0.54580  -0.54290  -0.54047  -0.53961  -0.53550
 Alpha  occ. eigenvalues --   -0.52599  -0.52071  -0.51721  -0.51351  -0.51295
 Alpha  occ. eigenvalues --   -0.51034  -0.50726  -0.50539  -0.50174  -0.49977
 Alpha  occ. eigenvalues --   -0.49897  -0.49692  -0.49486  -0.49083  -0.48827
 Alpha  occ. eigenvalues --   -0.48515  -0.48267  -0.48084  -0.47979  -0.47584
 Alpha  occ. eigenvalues --   -0.47437  -0.47062  -0.47028  -0.46787  -0.46710
 Alpha  occ. eigenvalues --   -0.46618  -0.46533  -0.46285  -0.46261  -0.45771
 Alpha  occ. eigenvalues --   -0.45486  -0.45427  -0.45103  -0.44971  -0.44746
 Alpha  occ. eigenvalues --   -0.44642  -0.44357  -0.44116  -0.44094  -0.43619
 Alpha  occ. eigenvalues --   -0.43311  -0.43164  -0.43120  -0.42986  -0.42943
 Alpha  occ. eigenvalues --   -0.42820  -0.42731  -0.42573  -0.42502  -0.42425
 Alpha  occ. eigenvalues --   -0.42237  -0.42107  -0.41734  -0.41639  -0.41595
 Alpha  occ. eigenvalues --   -0.41320  -0.41167  -0.41135  -0.40962  -0.40758
 Alpha  occ. eigenvalues --   -0.40562  -0.40426  -0.40371  -0.40267  -0.40103
 Alpha  occ. eigenvalues --   -0.40002  -0.39859  -0.39745  -0.39703  -0.39451
 Alpha  occ. eigenvalues --   -0.39384  -0.39130  -0.39016  -0.38913  -0.38767
 Alpha  occ. eigenvalues --   -0.38663  -0.38595  -0.38405  -0.38331  -0.38131
 Alpha  occ. eigenvalues --   -0.38105  -0.38002  -0.37765  -0.37470  -0.37368
 Alpha  occ. eigenvalues --   -0.37224  -0.37035  -0.36749  -0.36715  -0.36596
 Alpha  occ. eigenvalues --   -0.36505  -0.36226  -0.35914  -0.35791  -0.35642
 Alpha  occ. eigenvalues --   -0.35579  -0.35439  -0.35339  -0.35092  -0.35023
 Alpha  occ. eigenvalues --   -0.34980  -0.34758  -0.34079  -0.33703  -0.33644
 Alpha  occ. eigenvalues --   -0.33541  -0.33427  -0.33259  -0.32567  -0.32521
 Alpha  occ. eigenvalues --   -0.32298  -0.32091  -0.31967  -0.31906  -0.31828
 Alpha  occ. eigenvalues --   -0.31571  -0.30939  -0.30801  -0.30750  -0.30221
 Alpha  occ. eigenvalues --   -0.29719  -0.29439  -0.29062  -0.29035  -0.28817
 Alpha  occ. eigenvalues --   -0.28083  -0.27797  -0.27130  -0.26854  -0.26571
 Alpha  occ. eigenvalues --   -0.26535  -0.26221  -0.25853  -0.25531  -0.25030
 Alpha  occ. eigenvalues --   -0.24591  -0.24522  -0.24346  -0.24049  -0.23834
 Alpha  occ. eigenvalues --   -0.23655  -0.23406  -0.23147  -0.22635  -0.22586
 Alpha  occ. eigenvalues --   -0.22540  -0.22432  -0.21746  -0.21480  -0.21284
 Alpha  occ. eigenvalues --   -0.21204  -0.21169  -0.21101  -0.20975  -0.20293
 Alpha  occ. eigenvalues --   -0.20184  -0.18632  -0.18532
 Alpha virt. eigenvalues --   -0.09517  -0.03570  -0.03269  -0.02957  -0.02652
 Alpha virt. eigenvalues --   -0.01935  -0.01194  -0.01067  -0.00456  -0.00141
 Alpha virt. eigenvalues --   -0.00013   0.00265   0.00502   0.01835   0.02109

 Mulliken charges:
               1
     1  C    0.056699
     2  C    0.034804
     3  O   -0.274955
     4  H    0.053018
     5  H   -0.001577
     6  H    0.011314
     7  N   -0.116313
     8  C    0.086390
     9  C    0.079815
    10  O   -0.291495
    11  C    0.044776
    12  C    0.117050
    13  O   -0.362109
    14  O   -0.447385
    15  H    0.117141
    16  H    0.013582
    17  H   -0.002662
    18  H   -0.008796
    19  N   -0.174271
    20  C    0.140886
    21  C    0.051505
    22  O   -0.289905
    23  C    0.093332
    24  C   -0.066412
    25  C   -0.057507
    26  C    0.002738
    27  N    0.095718
    28  H    0.176269
    29  H   -0.001139
    30  H    0.002932
    31  H    0.026448
    32  H    0.013552
    33  H    0.048619
    34  H    0.039530
    35  H    0.024847
    36  H    0.087369
    37  H    0.088355
    38  H    0.199710
    39  H    0.195408
    40  H    0.177659
    41  N   -0.176797
    42  C    0.144873
    43  C    0.038266
    44  O   -0.306161
    45  C    0.092851
    46  C    0.109847
    47  O   -0.464075
    48  O   -0.381345
    49  H    0.167701
    50  H    0.020212
    51  H    0.011324
    52  H    0.016652
    53  N   -0.174463
    54  C    0.272173
    55  C    0.032649
    56  O   -0.308930
    57  H    0.124463
    58  H    0.031102
    59  H    0.033134
    60  N   -0.116032
    61  C    0.169589
    62  C    0.040432
    63  O   -0.277759
    64  C    0.005365
    65  C    0.099821
    66  N   -0.025125
    67  O   -0.340958
    68  H    0.147018
    69  H    0.013279
    70  H    0.062176
    71  H    0.022319
    72  H    0.132630
    73  H    0.121238
    74  N   -0.219660
    75  C    0.244176
    76  C    0.041127
    77  O   -0.297850
    78  H    0.166920
    79  H    0.037704
    80  H    0.050932
    81  N   -0.113583
    82  C    0.101908
    83  C    0.151235
    84  O   -0.350672
    85  C    0.106120
    86  C   -0.075775
    87  C    0.009389
    88  C    0.018625
    89  C   -0.050947
    90  C   -0.068171
    91  C    0.175827
    92  O   -0.204664
    93  H    0.146823
    94  H    0.007873
    95  H    0.023932
    96  H   -0.028135
    97  H   -0.017367
    98  H   -0.004292
    99  H   -0.025090
   100  H   -0.023325
   101  H    0.183023
   102  N   -0.110895
   103  C    0.119798
   104  C    0.030253
   105  O   -0.274760
   106  C   -0.053942
   107  C    0.055438
   108  C    0.054637
   109  C   -0.066777
   110  H    0.135407
   111  H    0.042661
   112  H   -0.025105
   113  H   -0.020545
   114  H   -0.021517
   115  H    0.036661
   116  H    0.017557
   117  H   -0.004754
   118  H    0.060814
   119  H   -0.020816
   120  H    0.034055
   121  N   -0.146179
   122  C    0.107179
   123  C    0.109127
   124  O   -0.265157
   125  C    0.199338
   126  O   -0.304954
   127  H    0.163739
   128  H    0.024312
   129  H    0.032330
   130  H   -0.021096
   131  H    0.196919
   132  N   -0.128193
   133  C    0.082176
   134  C    0.061780
   135  O   -0.244609
   136  C    0.035784
   137  H    0.121029
   138  H    0.029060
   139  H   -0.002013
   140  H    0.038410
   141  H    0.034300
   142  N   -0.148655
   143  C    0.109141
   144  C    0.078764
   145  O   -0.277967
   146  C    0.033273
   147  H    0.099996
   148  H    0.027369
   149  H    0.037831
   150  H    0.013192
   151  H   -0.028509
   152  N   -0.167292
   153  C    0.094455
   154  C    0.067370
   155  O   -0.296122
   156  C    0.015919
   157  C    0.099875
   158  C    0.171735
   159  O   -0.402305
   160  O   -0.433167
   161  H    0.133971
   162  H   -0.016967
   163  H    0.037934
   164  H   -0.029703
   165  H   -0.004611
   166  H   -0.030450
   167  N   -0.164007
   168  C    0.139797
   169  H    0.005543
   170  H    0.016115
   171  H    0.025179
   172  H    0.135297
   173  Ca   1.263189
   174  O   -0.332816
   175  H    0.160175
   176  H    0.146511
 Sum of Mulliken charges =  -0.00000

 Dipole moment (field-independent basis, Debye):
    X=             22.1343    Y=              6.7596    Z=             -0.4412  Tot=             23.1477
 Quadrupole moment (field-independent basis, Debye-Ang):
   XX=           -666.5640   YY=           -349.5892   ZZ=           -551.4767
   XY=             82.2267   XZ=             24.7643   YZ=            124.9855

 ESP charges:
               1
     1  C   -0.509561
     2  C    0.896889
     3  O   -0.610667
     4  H    0.146390
     5  H    0.132103
     6  H    0.098750
     7  N   -0.839250
     8  C    0.200220
     9  C    0.650613
    10  O   -0.585576
    11  C   -0.305652
    12  C    0.946932
    13  O   -0.786593
    14  O   -0.909501
    15  H    0.412311
    16  H   -0.020085
    17  H    0.087988
    18  H    0.077308
    19  N   -0.642728
    20  C    0.163844
    21  C    0.635351
    22  O   -0.577596
    23  C   -0.058773
    24  C    0.201180
    25  C   -0.258386
    26  C    0.216044
    27  N   -0.586482
    28  H    0.385329
    29  H    0.009052
    30  H    0.021805
    31  H   -0.010642
    32  H   -0.005052
    33  H   -0.007480
    34  H    0.088035
    35  H    0.069529
    36  H    0.068574
    37  H    0.024580
    38  H    0.388846
    39  H    0.378491
    40  H    0.375447
    41  N   -0.775923
    42  C    0.258910
    43  C    0.323329
    44  O   -0.525505
    45  C   -0.281836
    46  C    0.853983
    47  O   -0.806179
    48  O   -0.735341
    49  H    0.534287
    50  H    0.089294
    51  H    0.102118
    52  H    0.057485
    53  N   -0.103079
    54  C   -0.386896
    55  C    0.670963
    56  O   -0.580065
    57  H    0.165450
    58  H    0.170077
    59  H    0.167396
    60  N   -0.458514
    61  C    0.089006
    62  C    0.377593
    63  O   -0.568076
    64  C   -0.312104
    65  C    0.643600
    66  N   -0.735016
    67  O   -0.591004
    68  H    0.311796
    69  H    0.104513
    70  H    0.157237
    71  H    0.087416
    72  H    0.371098
    73  H    0.333423
    74  N    0.213526
    75  C   -0.308685
    76  C    0.626843
    77  O   -0.570674
    78  H    0.063973
    79  H    0.106230
    80  H    0.124988
    81  N   -0.329977
    82  C   -0.057771
    83  C    0.763755
    84  O   -0.648921
    85  C   -0.267290
    86  C    0.035127
    87  C   -0.136814
    88  C    0.046365
    89  C   -0.321579
    90  C   -0.452276
    91  C    0.479326
    92  O   -0.572697
    93  H    0.214457
    94  H    0.105513
    95  H    0.116612
    96  H    0.076665
    97  H    0.127031
    98  H    0.096820
    99  H    0.165675
   100  H    0.153842
   101  H    0.414243
   102  N   -0.633701
   103  C    0.243309
   104  C    0.537897
   105  O   -0.555904
   106  C    0.139711
   107  C   -0.055906
   108  C   -0.400565
   109  C   -0.119315
   110  H    0.343884
   111  H   -0.077752
   112  H   -0.007509
   113  H    0.010063
   114  H    0.010559
   115  H    0.106608
   116  H    0.127022
   117  H    0.103270
   118  H    0.106174
   119  H    0.028068
   120  H    0.069753
   121  N   -0.487926
   122  C    0.267858
   123  C    0.427314
   124  O   -0.354029
   125  C   -0.094426
   126  O   -0.325704
   127  H    0.234656
   128  H    0.029409
   129  H    0.091392
   130  H    0.022982
   131  H    0.366987
   132  N   -0.457297
   133  C    0.128173
   134  C    0.544347
   135  O   -0.530851
   136  C   -0.300604
   137  H    0.299510
   138  H    0.087221
   139  H    0.060176
   140  H    0.110052
   141  H    0.097941
   142  N   -0.382297
   143  C    0.002856
   144  C    0.398043
   145  O   -0.532079
   146  C   -0.211077
   147  H    0.234225
   148  H    0.119452
   149  H    0.108184
   150  H    0.067720
   151  H    0.020414
   152  N    0.034347
   153  C    0.057618
   154  C    0.419486
   155  O   -0.571156
   156  C   -0.111397
   157  C    0.155372
   158  C    0.390953
   159  O   -0.606769
   160  O   -0.492681
   161  H   -0.072367
   162  H    0.024658
   163  H    0.093325
   164  H   -0.113192
   165  H   -0.040803
   166  H    0.004517
   167  N   -0.007240
   168  C   -0.167290
   169  H    0.046122
   170  H    0.072721
   171  H    0.090549
   172  H    0.027882
   173  Ca   1.530126
   174  O   -0.892899
   175  H    0.473340
   176  H    0.401159
 Sum of ESP charges =  -0.00000

 Normal termination of Gaussian 16 at Sat Sep 14 22:38:53 2019.
