 Gaussian 16, Revision A.03,
 Gaussian 16:  ES64L-G16RevA.03 25-Dec-2016

 ----------------------------------------------------------------------
 #b3lyp/svp scf=(tight,noincore) Test #IOP(5/87=12) Density=Current Pop
 =(MK,readradii) iop(6/33=2) iop(6/42=6)
 ----------------------------------------------------------------------

 ------------------
 holoCaM_loop3_91.0
 ------------------
 Symbolic Z-matrix:
 Charge =  0 Multiplicity = 1

                         Standard orientation:
 ---------------------------------------------------------------------
 Center     Atomic      Atomic             Coordinates (Angstroms)
 Number     Number       Type             X           Y           Z
 ---------------------------------------------------------------------
      1          6           0        2.211589    3.920542    6.395034
      2          6           0        2.111923    3.205475    5.055129
      3          8           0        3.097058    2.820591    4.440334
      4          1           0        1.365214    4.598613    6.508011
      5          1           0        2.199175    3.187105    7.200616
      6          1           0        3.140089    4.489957    6.435567
      7          7           0        0.883858    3.096042    4.532367
      8          6           0        0.642494    2.611194    3.187909
      9          6           0        0.696329    3.781448    2.218679
     10          8           0        0.268359    4.868006    2.567728
     11          6           0       -0.685127    1.853323    3.175556
     12          6           0       -0.893751    1.290317    1.779920
     13          8           0        0.036593    0.770389    1.115514
     14          8           0       -1.991869    1.477084    1.208382
     15          1           0        0.114423    3.659692    4.859732
     16          1           0        1.455592    1.967865    2.853845
     17          1           0       -1.505978    2.480925    3.526725
     18          1           0       -0.591572    0.969109    3.808100
     19          7           0        1.205839    3.591293    0.994408
     20          6           0        1.723781    4.681148    0.184992
     21          6           0        0.677077    5.382107   -0.673884
     22          8           0        0.726735    6.607303   -0.711683
     23          6           0        2.888048    4.191475   -0.672971
     24          6           0        3.846159    5.227937   -1.232587
     25          6           0        5.211443    4.652647   -1.627989
     26          6           0        6.188290    5.733733   -2.073773
     27          7           0        7.461296    5.219122   -2.613060
     28          1           0        1.392029    2.639706    0.718338
     29          1           0        2.118838    5.453727    0.840546
     30          1           0        2.568941    3.676481   -1.583439
     31          1           0        3.433788    3.493853   -0.043931
     32          1           0        4.061839    6.042038   -0.538308
     33          1           0        3.377382    5.632702   -2.131093
     34          1           0        5.006131    3.855259   -2.348974
     35          1           0        5.632038    4.266610   -0.699025
     36          1           0        6.422532    6.391424   -1.234265
     37          1           0        5.693503    6.372864   -2.809502
     38          1           0        7.265620    4.372433   -3.117766
     39          1           0        7.840498    5.895747   -3.263126
     40          1           0        8.133533    4.931654   -1.917892
     41          7           0       -0.326750    4.633884   -1.138635
     42          6           0       -1.467596    5.240978   -1.793241
     43          6           0       -2.699986    5.175844   -0.885786
     44          8           0       -3.721604    5.835543   -1.075507
     45          6           0       -1.713633    4.677534   -3.188697
     46          6           0       -1.891086    3.162583   -3.194609
     47          8           0       -1.921713    2.581439   -4.304083
     48          8           0       -1.983069    2.562416   -2.104362
     49          1           0       -0.226889    3.634574   -1.141082
     50          1           0       -1.295906    6.319040   -1.823317
     51          1           0       -0.787968    4.832337   -3.743476
     52          1           0       -2.458250    5.290832   -3.693088
     53          7           0       -2.557696    4.429854    0.211643
     54          6           0       -3.617194    4.230260    1.173218
     55          6           0       -4.821050    3.587150    0.498134
     56          8           0       -5.856940    4.239763    0.657907
     57          1           0       -1.806897    3.757417    0.190902
     58          1           0       -3.947315    5.191818    1.556920
     59          1           0       -3.365443    3.635132    2.055569
     60          7           0       -4.664733    2.486004   -0.238848
     61          6           0       -5.711120    1.832389   -0.986686
     62          6           0       -6.429482    0.715342   -0.234648
     63          8           0       -7.005357   -0.139537   -0.895820
     64          6           0       -5.336715    1.667653   -2.453446
     65          6           0       -4.433776    0.468761   -2.684659
     66          7           0       -4.571352   -0.139702   -3.867725
     67          8           0       -3.684056    0.030180   -1.806840
     68          1           0       -3.761460    2.032541   -0.258080
     69          1           0       -6.460971    2.618900   -1.047715
     70          1           0       -4.816788    2.511528   -2.891795
     71          1           0       -6.262671    1.537159   -3.010651
     72          1           0       -4.937250    0.452544   -4.593992
     73          1           0       -3.988727   -0.927238   -4.123136
     74          7           0       -6.208798    0.670430    1.081058
     75          6           0       -6.667912   -0.401357    1.939595
     76          6           0       -6.131222   -1.813029    1.732603
     77          8           0       -6.630218   -2.817202    2.243523
     78          1           0       -5.682854    1.384926    1.578831
     79          1           0       -7.747243   -0.491120    1.823885
     80          1           0       -6.422324   -0.175816    2.977390
     81          7           0       -4.925221   -1.872409    1.148877
     82          6           0       -4.009054   -2.990335    1.085800
     83          6           0       -2.559883   -2.557526    1.129145
     84          8           0       -2.321125   -1.442925    0.683658
     85          6           0       -4.236795   -3.898450   -0.121330
     86          6           0       -5.699422   -4.175316   -0.360636
     87          6           0       -6.496361   -3.303757   -1.113149
     88          6           0       -6.300990   -5.390076   -0.013827
     89          6           0       -7.855241   -3.551266   -1.383675
     90          6           0       -7.672668   -5.622429   -0.130061
     91          6           0       -8.459301   -4.706180   -0.854350
     92          8           0       -9.816155   -4.832891   -0.966120
     93          1           0       -4.522611   -1.014171    0.805029
     94          1           0       -4.066422   -3.682297    1.926096
     95          1           0       -3.624593   -4.798292   -0.057346
     96          1           0       -3.800359   -3.403618   -0.982761
     97          1           0       -6.035570   -2.454844   -1.608747
     98          1           0       -5.659284   -6.147669    0.416482
     99          1           0       -8.411812   -2.806502   -1.927509
    100          1           0       -8.208779   -6.481964    0.239784
    101          1           0      -10.050310   -5.731131   -0.705475
    102          7           0       -1.572867   -3.410399    1.435428
    103          6           0       -0.185046   -3.009413    1.427553
    104          6           0        0.618926   -3.995451    0.587161
    105          8           0        0.409368   -5.178276    0.825301
    106          6           0        0.410843   -2.875052    2.832603
    107          6           0       -0.533507   -2.173948    3.803405
    108          6           0        1.705509   -2.087082    2.734920
    109          6           0       -0.120940   -1.893861    5.235969
    110          1           0       -1.835973   -4.352330    1.683704
    111          1           0       -0.086460   -2.021899    0.982921
    112          1           0        0.691499   -3.858663    3.224702
    113          1           0       -1.378294   -2.857809    3.773928
    114          1           0       -0.888619   -1.242295    3.364865
    115          1           0        2.258110   -2.099309    3.675708
    116          1           0        2.390318   -2.451770    1.967495
    117          1           0        1.464942   -1.071634    2.419496
    118          1           0        0.162362   -2.861278    5.661696
    119          1           0        0.816465   -1.336970    5.319302
    120          1           0       -0.822839   -1.292129    5.804351
    121          7           0        1.569496   -3.570195   -0.245529
    122          6           0        2.341644   -4.379208   -1.159742
    123          6           0        3.777833   -4.483845   -0.675168
    124          8           0        4.186736   -3.676510    0.164777
    125          6           0        2.305472   -3.666143   -2.502438
    126          8           0        2.910825   -2.398051   -2.488634
    127          1           0        1.758113   -2.578640   -0.300703
    128          1           0        1.879747   -5.366841   -1.230673
    129          1           0        1.286463   -3.532210   -2.870382
    130          1           0        2.907433   -4.235693   -3.209300
    131          1           0        2.271420   -1.902540   -1.966206
    132          7           0        4.565835   -5.379088   -1.281464
    133          6           0        5.969255   -5.479168   -0.930326
    134          6           0        6.705245   -4.157245   -0.854588
    135          8           0        7.415179   -3.897444    0.115308
    136          6           0        6.680424   -6.371088   -1.942560
    137          1           0        4.215254   -5.893135   -2.065012
    138          1           0        6.072637   -5.911475    0.063718
    139          1           0        6.460158   -6.003481   -2.943833
    140          1           0        7.750128   -6.341811   -1.752359
    141          1           0        6.254527   -7.350109   -1.732013
    142          7           0        6.543537   -3.323295   -1.885790
    143          6           0        7.336053   -2.124184   -2.025973
    144          6           0        6.965568   -1.090755   -0.968918
    145          8           0        7.802105   -0.257186   -0.624291
    146          6           0        7.111464   -1.549895   -3.423812
    147          1           0        5.965230   -3.568164   -2.682910
    148          1           0        8.351038   -2.426109   -1.790929
    149          1           0        7.483324   -2.314737   -4.098822
    150          1           0        6.059991   -1.259328   -3.492906
    151          1           0        7.543115   -0.543949   -3.484220
    152          7           0        5.709450   -1.146217   -0.525192
    153          6           0        5.087543   -0.338480    0.502715
    154          6           0        5.403625   -0.718307    1.945428
    155          8           0        5.615730    0.207309    2.723082
    156          6           0        3.597024   -0.315951    0.192801
    157          6           0        3.262346    0.321866   -1.155598
    158          6           0        1.765527    0.225913   -1.396067
    159          8           0        1.049661    1.193413   -1.731299
    160          8           0        1.220441   -0.900291   -1.316405
    161          1           0        5.144249   -1.890701   -0.922169
    162          1           0        5.473071    0.647016    0.250592
    163          1           0        3.030293    0.232382    0.948741
    164          1           0        3.202417   -1.328772    0.158443
    165          1           0        3.734308   -0.164337   -2.014294
    166          1           0        3.627754    1.344516   -1.055279
    167          7           0        5.580424   -2.018680    2.203830
    168          6           0        6.076194   -2.521528    3.474561
    169          1           0        7.061596   -2.964365    3.329854
    170          1           0        6.147819   -1.700594    4.187588
    171          1           0        5.391676   -3.278186    3.858285
    172          1           0        5.419598   -2.725716    1.504234
    173         20           0       -1.191745    0.225114   -1.076781
    174          8           0       -1.309886    0.108038   -3.693466
    175          1           0       -1.575355   -0.543833   -4.342997
    176          1           0       -1.580751    0.943204   -4.077302
 ---------------------------------------------------------------------

 SCF Done:  E(RB3LYP) =  -5333.63142523     A.U. after   20 cycles

 The electronic state is 1-A.
 Alpha  occ. eigenvalues -- -145.35097 -19.14223 -19.13367 -19.12454 -19.11578
 Alpha  occ. eigenvalues --  -19.11250 -19.11132 -19.10987 -19.09659 -19.09480
 Alpha  occ. eigenvalues --  -19.08654 -19.08538 -19.07924 -19.07544 -19.07140
 Alpha  occ. eigenvalues --  -19.07051 -19.06769 -19.06490 -19.06097 -19.06087
 Alpha  occ. eigenvalues --  -19.05360 -19.04982 -19.04361 -19.04215 -15.40803
 Alpha  occ. eigenvalues --  -14.59049 -14.39457 -14.37298 -14.36754 -14.35923
 Alpha  occ. eigenvalues --  -14.35408 -14.34857 -14.34023 -14.33404 -14.33224
 Alpha  occ. eigenvalues --  -14.32607 -14.32384 -14.32039 -14.31892 -14.29863
 Alpha  occ. eigenvalues --  -12.54440 -12.54377 -12.54363 -10.35199 -10.31494
 Alpha  occ. eigenvalues --  -10.29796 -10.29739 -10.29577 -10.28251 -10.27733
 Alpha  occ. eigenvalues --  -10.27293 -10.27218 -10.27137 -10.26460 -10.25748
 Alpha  occ. eigenvalues --  -10.25722 -10.25631 -10.25571 -10.25425 -10.25111
 Alpha  occ. eigenvalues --  -10.25091 -10.24936 -10.24195 -10.23935 -10.23798
 Alpha  occ. eigenvalues --  -10.23147 -10.23097 -10.22937 -10.22715 -10.22450
 Alpha  occ. eigenvalues --  -10.22329 -10.22113 -10.21722 -10.21509 -10.21250
 Alpha  occ. eigenvalues --  -10.21157 -10.20621 -10.20514 -10.19216 -10.19124
 Alpha  occ. eigenvalues --  -10.18933 -10.18709 -10.18227 -10.18083 -10.17859
 Alpha  occ. eigenvalues --  -10.17747 -10.17437 -10.17271 -10.17037 -10.16846
 Alpha  occ. eigenvalues --  -10.16730 -10.16709 -10.16655 -10.16234 -10.15713
 Alpha  occ. eigenvalues --  -10.15408 -10.15127  -1.77778  -1.14267  -1.06493
 Alpha  occ. eigenvalues --   -1.06054  -1.05642  -1.05474  -1.04852  -1.04119
 Alpha  occ. eigenvalues --   -1.03889  -1.03139  -1.02862  -1.02717  -1.01800
 Alpha  occ. eigenvalues --   -1.01595  -1.01539  -1.01342  -1.01117  -1.00116
 Alpha  occ. eigenvalues --   -0.99807  -0.99638  -0.99477  -0.98841  -0.98212
 Alpha  occ. eigenvalues --   -0.97358  -0.96905  -0.96259  -0.94335  -0.93357
 Alpha  occ. eigenvalues --   -0.93143  -0.92513  -0.91638  -0.91307  -0.91084
 Alpha  occ. eigenvalues --   -0.90974  -0.90544  -0.89981  -0.89925  -0.89416
 Alpha  occ. eigenvalues --   -0.89118  -0.88879  -0.88683  -0.88246  -0.86235
 Alpha  occ. eigenvalues --   -0.82528  -0.82095  -0.81563  -0.80949  -0.79228
 Alpha  occ. eigenvalues --   -0.78010  -0.77976  -0.77137  -0.77099  -0.76702
 Alpha  occ. eigenvalues --   -0.75691  -0.74461  -0.73600  -0.73208  -0.72917
 Alpha  occ. eigenvalues --   -0.72413  -0.72027  -0.71426  -0.71109  -0.70817
 Alpha  occ. eigenvalues --   -0.69070  -0.68978  -0.68574  -0.67917  -0.67543
 Alpha  occ. eigenvalues --   -0.66625  -0.66057  -0.65443  -0.64420  -0.63985
 Alpha  occ. eigenvalues --   -0.63918  -0.63408  -0.62474  -0.62379  -0.61846
 Alpha  occ. eigenvalues --   -0.60838  -0.60735  -0.60366  -0.59804  -0.59636
 Alpha  occ. eigenvalues --   -0.59289  -0.58392  -0.58298  -0.58170  -0.57330
 Alpha  occ. eigenvalues --   -0.56981  -0.56899  -0.56792  -0.56502  -0.56175
 Alpha  occ. eigenvalues --   -0.55924  -0.55835  -0.55818  -0.54933  -0.54790
 Alpha  occ. eigenvalues --   -0.54455  -0.53749  -0.53675  -0.53127  -0.52941
 Alpha  occ. eigenvalues --   -0.52748  -0.52235  -0.51823  -0.51782  -0.51526
 Alpha  occ. eigenvalues --   -0.51363  -0.50160  -0.49923  -0.49680  -0.49669
 Alpha  occ. eigenvalues --   -0.49345  -0.48967  -0.48843  -0.48619  -0.48566
 Alpha  occ. eigenvalues --   -0.48325  -0.48250  -0.48146  -0.47958  -0.47850
 Alpha  occ. eigenvalues --   -0.47345  -0.46677  -0.46296  -0.46186  -0.46179
 Alpha  occ. eigenvalues --   -0.45994  -0.45619  -0.45423  -0.45191  -0.44649
 Alpha  occ. eigenvalues --   -0.44611  -0.44528  -0.44351  -0.44232  -0.44190
 Alpha  occ. eigenvalues --   -0.43922  -0.43897  -0.43770  -0.43602  -0.43583
 Alpha  occ. eigenvalues --   -0.43406  -0.43243  -0.43102  -0.43059  -0.42877
 Alpha  occ. eigenvalues --   -0.42686  -0.42531  -0.42348  -0.42306  -0.42163
 Alpha  occ. eigenvalues --   -0.42059  -0.41844  -0.41767  -0.41561  -0.41422
 Alpha  occ. eigenvalues --   -0.41335  -0.41274  -0.40873  -0.40759  -0.40459
 Alpha  occ. eigenvalues --   -0.40373  -0.40261  -0.40101  -0.39905  -0.39827
 Alpha  occ. eigenvalues --   -0.39816  -0.39664  -0.39638  -0.39445  -0.39196
 Alpha  occ. eigenvalues --   -0.39026  -0.38950  -0.38807  -0.38739  -0.38576
 Alpha  occ. eigenvalues --   -0.38539  -0.38124  -0.38049  -0.37997  -0.37874
 Alpha  occ. eigenvalues --   -0.37773  -0.37647  -0.37562  -0.37398  -0.37219
 Alpha  occ. eigenvalues --   -0.37073  -0.36835  -0.36655  -0.36532  -0.36444
 Alpha  occ. eigenvalues --   -0.36345  -0.36191  -0.36057  -0.35730  -0.35614
 Alpha  occ. eigenvalues --   -0.35394  -0.35368  -0.35053  -0.34672  -0.34567
 Alpha  occ. eigenvalues --   -0.34450  -0.34252  -0.34110  -0.33913  -0.33795
 Alpha  occ. eigenvalues --   -0.33647  -0.33559  -0.33475  -0.33181  -0.33011
 Alpha  occ. eigenvalues --   -0.32887  -0.32219  -0.31561  -0.31317  -0.31003
 Alpha  occ. eigenvalues --   -0.30670  -0.30602  -0.30313  -0.29584  -0.29541
 Alpha  occ. eigenvalues --   -0.28892  -0.28812  -0.28424  -0.28056  -0.27741
 Alpha  occ. eigenvalues --   -0.27353  -0.26751  -0.26664  -0.26579  -0.26523
 Alpha  occ. eigenvalues --   -0.26150  -0.26058  -0.25933  -0.25409  -0.25395
 Alpha  occ. eigenvalues --   -0.25021  -0.24666  -0.24074  -0.24043  -0.24012
 Alpha  occ. eigenvalues --   -0.23953  -0.23824  -0.23090  -0.23031  -0.22700
 Alpha  occ. eigenvalues --   -0.22612  -0.22563  -0.22376  -0.22247  -0.22240
 Alpha  occ. eigenvalues --   -0.21972  -0.21689  -0.21522  -0.21502  -0.20472
 Alpha  occ. eigenvalues --   -0.19959  -0.19819  -0.18751
 Alpha virt. eigenvalues --   -0.10770  -0.05053  -0.04433  -0.01853  -0.01151
 Alpha virt. eigenvalues --   -0.00441   0.00130   0.00394   0.00904   0.01161
 Alpha virt. eigenvalues --    0.01523   0.01870   0.01962   0.02502   0.02773

 Mulliken charges:
               1
     1  C    0.058986
     2  C    0.022125
     3  O   -0.273453
     4  H    0.005330
     5  H    0.035371
     6  H    0.029447
     7  N   -0.129695
     8  C    0.068440
     9  C    0.049527
    10  O   -0.264987
    11  C    0.177307
    12  C    0.104092
    13  O   -0.450047
    14  O   -0.409484
    15  H    0.116136
    16  H    0.023322
    17  H   -0.001393
    18  H    0.005267
    19  N   -0.149564
    20  C    0.159381
    21  C    0.064677
    22  O   -0.280504
    23  C   -0.003738
    24  C    0.003226
    25  C   -0.061357
    26  C    0.011202
    27  N    0.094535
    28  H    0.145560
    29  H    0.006543
    30  H    0.029092
    31  H    0.028166
    32  H    0.009592
    33  H    0.024460
    34  H    0.042299
    35  H    0.045577
    36  H    0.077101
    37  H    0.071746
    38  H    0.184922
    39  H    0.198078
    40  H    0.201953
    41  N   -0.155676
    42  C    0.124173
    43  C    0.041777
    44  O   -0.281027
    45  C    0.106685
    46  C    0.154036
    47  O   -0.408517
    48  O   -0.459051
    49  H    0.138349
    50  H    0.018749
    51  H   -0.007309
    52  H    0.026077
    53  N   -0.142443
    54  C    0.286648
    55  C   -0.036504
    56  O   -0.279276
    57  H    0.119519
    58  H    0.006571
    59  H    0.006047
    60  N   -0.170344
    61  C    0.127425
    62  C    0.080382
    63  O   -0.262566
    64  C    0.081196
    65  C    0.105744
    66  N   -0.037321
    67  O   -0.369694
    68  H    0.154799
    69  H    0.024733
    70  H    0.062507
    71  H    0.015924
    72  H    0.131587
    73  H    0.108474
    74  N   -0.152447
    75  C    0.201586
    76  C    0.053905
    77  O   -0.280082
    78  H    0.151232
    79  H    0.033700
    80  H    0.037874
    81  N   -0.132612
    82  C    0.135157
    83  C    0.097018
    84  O   -0.344745
    85  C    0.157391
    86  C    0.009555
    87  C    0.000588
    88  C    0.002515
    89  C   -0.014414
    90  C    0.000985
    91  C    0.137328
    92  O   -0.201512
    93  H    0.133835
    94  H   -0.007396
    95  H   -0.023316
    96  H   -0.029746
    97  H   -0.024441
    98  H   -0.048995
    99  H   -0.026240
   100  H   -0.059355
   101  H    0.168815
   102  N   -0.120849
   103  C    0.136361
   104  C    0.062309
   105  O   -0.297150
   106  C   -0.075402
   107  C    0.015994
   108  C    0.003092
   109  C    0.053605
   110  H    0.131145
   111  H    0.009742
   112  H   -0.018135
   113  H   -0.022353
   114  H    0.013899
   115  H    0.012725
   116  H    0.005002
   117  H    0.027128
   118  H   -0.002096
   119  H    0.011493
   120  H    0.013447
   121  N   -0.127914
   122  C    0.062882
   123  C    0.120251
   124  O   -0.281069
   125  C    0.262895
   126  O   -0.353708
   127  H    0.153446
   128  H    0.020251
   129  H    0.015650
   130  H   -0.038808
   131  H    0.181110
   132  N   -0.111659
   133  C    0.098487
   134  C    0.044931
   135  O   -0.253075
   136  C    0.037407
   137  H    0.117172
   138  H    0.017613
   139  H    0.005594
   140  H    0.043856
   141  H    0.033842
   142  N   -0.156874
   143  C    0.085397
   144  C    0.035942
   145  O   -0.295867
   146  C    0.067362
   147  H    0.113967
   148  H    0.014570
   149  H    0.030739
   150  H    0.017676
   151  H    0.004570
   152  N   -0.163535
   153  C    0.178240
   154  C    0.110573
   155  O   -0.268913
   156  C   -0.059114
   157  C    0.064487
   158  C    0.201258
   159  O   -0.390719
   160  O   -0.479817
   161  H    0.138463
   162  H   -0.034492
   163  H    0.043245
   164  H   -0.005294
   165  H    0.022351
   166  H   -0.047476
   167  N   -0.174817
   168  C    0.122528
   169  H    0.024855
   170  H    0.037651
   171  H    0.010399
   172  H    0.139705
   173  Ca   1.252492
   174  O   -0.302703
   175  H    0.143707
   176  H    0.153242
 Sum of Mulliken charges =  -0.00000

 Dipole moment (field-independent basis, Debye):
    X=             29.4237    Y=             -1.2824    Z=            -16.4043  Tot=             33.7120
 Quadrupole moment (field-independent basis, Debye-Ang):
   XX=           -482.1424   YY=           -507.1385   ZZ=           -508.9613
   XY=            156.2927   XZ=           -116.8396   YZ=            -19.5924

 ESP charges:
               1
     1  C   -0.449396
     2  C    0.783863
     3  O   -0.593792
     4  H    0.103079
     5  H    0.120581
     6  H    0.125217
     7  N   -0.692823
     8  C    0.284088
     9  C    0.554845
    10  O   -0.544462
    11  C   -0.374120
    12  C    0.870428
    13  O   -0.588923
    14  O   -0.821210
    15  H    0.329728
    16  H    0.020966
    17  H    0.115879
    18  H    0.098436
    19  N   -0.273313
    20  C   -0.377159
    21  C    0.570267
    22  O   -0.559956
    23  C    0.220978
    24  C   -0.146600
    25  C   -0.009622
    26  C    0.190211
    27  N   -0.534588
    28  H    0.111623
    29  H    0.192957
    30  H    0.031981
    31  H    0.054608
    32  H    0.027945
    33  H    0.050211
    34  H    0.026146
    35  H    0.030237
    36  H    0.066862
    37  H    0.037267
    38  H    0.349508
    39  H    0.374093
    40  H    0.380636
    41  N   -0.252170
    42  C   -0.051280
    43  C    0.468323
    44  O   -0.511720
    45  C   -0.366233
    46  C    0.759118
    47  O   -0.716124
    48  O   -0.490134
    49  H    0.146896
    50  H    0.123614
    51  H    0.099391
    52  H    0.121317
    53  N   -0.192626
    54  C   -0.229873
    55  C    0.607273
    56  O   -0.581582
    57  H    0.177298
    58  H    0.128283
    59  H    0.091143
    60  N   -0.254949
    61  C   -0.234198
    62  C    0.418753
    63  O   -0.419300
    64  C    0.086661
    65  C    0.458936
    66  N   -0.741835
    67  O   -0.507798
    68  H    0.132124
    69  H    0.150708
    70  H    0.049994
    71  H    0.026232
    72  H    0.358676
    73  H    0.370619
    74  N   -0.210718
    75  C   -0.396329
    76  C    0.725475
    77  O   -0.545006
    78  H    0.276914
    79  H    0.156786
    80  H    0.151147
    81  N   -0.613498
    82  C    0.374081
    83  C    0.340237
    84  O   -0.526772
    85  C   -0.053717
    86  C    0.229761
    87  C   -0.371322
    88  C   -0.342665
    89  C   -0.090661
    90  C   -0.094519
    91  C    0.204788
    92  O   -0.478950
    93  H    0.333250
    94  H   -0.023234
    95  H    0.006160
    96  H    0.002594
    97  H    0.193279
    98  H    0.148757
    99  H    0.124017
   100  H    0.100253
   101  H    0.368398
   102  N   -0.371824
   103  C   -0.293720
   104  C    0.571412
   105  O   -0.567370
   106  C    0.350572
   107  C    0.103033
   108  C   -0.221264
   109  C   -0.349998
   110  H    0.307581
   111  H    0.221976
   112  H   -0.027421
   113  H   -0.040332
   114  H   -0.009947
   115  H    0.063801
   116  H   -0.012025
   117  H   -0.009579
   118  H    0.062534
   119  H    0.091816
   120  H    0.101083
   121  N   -0.027520
   122  C   -0.250050
   123  C    0.678774
   124  O   -0.484454
   125  C    0.074973
   126  O   -0.531975
   127  H   -0.096255
   128  H    0.113635
   129  H    0.071783
   130  H    0.037933
   131  H    0.393559
   132  N   -0.636565
   133  C    0.403407
   134  C    0.368555
   135  O   -0.516374
   136  C   -0.433621
   137  H    0.342896
   138  H    0.015808
   139  H    0.087263
   140  H    0.138549
   141  H    0.119117
   142  N   -0.324729
   143  C    0.104387
   144  C    0.347599
   145  O   -0.545115
   146  C   -0.471619
   147  H    0.292812
   148  H    0.103701
   149  H    0.128257
   150  H    0.136022
   151  H    0.140429
   152  N    0.062867
   153  C   -0.209771
   154  C    0.512217
   155  O   -0.524291
   156  C    0.123127
   157  C   -0.078240
   158  C    0.671601
   159  O   -0.686380
   160  O   -0.625448
   161  H    0.004173
   162  H    0.060113
   163  H    0.069769
   164  H   -0.051570
   165  H    0.024442
   166  H   -0.051656
   167  N   -0.139816
   168  C   -0.201109
   169  H    0.084629
   170  H    0.098376
   171  H    0.071151
   172  H    0.215154
   173  Ca   1.502663
   174  O   -0.851878
   175  H    0.380162
   176  H    0.417486
 Sum of ESP charges =   0.00000

 Normal termination of Gaussian 16 at Sat Sep 14 23:27:28 2019.
