 Gaussian 16, Revision A.03,
 Gaussian 16:  ES64L-G16RevA.03 25-Dec-2016

 ----------------------------------------------------------------------
 #b3lyp/svp scf=(tight,noincore) Test #IOP(5/87=12) Density=Current Pop
 =(MK,readradii) iop(6/33=2) iop(6/42=6)
 ----------------------------------------------------------------------

 ------------------
 holoCaM_loop3_81.0
 ------------------
 Symbolic Z-matrix:
 Charge =  0 Multiplicity = 1

                         Standard orientation:
 ---------------------------------------------------------------------
 Center     Atomic      Atomic             Coordinates (Angstroms)
 Number     Number       Type             X           Y           Z
 ---------------------------------------------------------------------
      1          6           0        2.696532    2.938960    4.363509
      2          6           0        1.783939    2.788777    3.150240
      3          8           0        2.204886    3.055077    2.032972
      4          1           0        3.711048    2.645203    4.093179
      5          1           0        2.695017    3.978392    4.693549
      6          1           0        2.337272    2.300821    5.170186
      7          7           0        0.511525    2.447504    3.371584
      8          6           0       -0.556563    2.477698    2.401390
      9          6           0       -1.289341    3.789020    2.129966
     10          8           0       -2.492166    3.974306    2.254391
     11          6           0       -1.607684    1.424680    2.729257
     12          6           0       -2.529800    1.109707    1.552782
     13          8           0       -2.188369    1.396391    0.383921
     14          8           0       -3.650672    0.614988    1.805568
     15          1           0        0.211906    2.198272    4.308607
     16          1           0       -0.183116    2.162026    1.423951
     17          1           0       -2.248311    1.598358    3.604948
     18          1           0       -1.060098    0.487973    2.817741
     19          7           0       -0.485459    4.733201    1.642014
     20          6           0       -0.840336    6.003344    1.052947
     21          6           0       -1.994545    6.086586    0.069753
     22          8           0       -2.894167    6.920552    0.155670
     23          6           0        0.343114    6.674296    0.366312
     24          6           0        1.684916    6.663531    1.094839
     25          6           0        2.767755    7.305651    0.234001
     26          6           0        3.027656    6.787898   -1.169666
     27          7           0        3.160741    5.323774   -1.164363
     28          1           0        0.469496    4.445209    1.463625
     29          1           0       -1.186271    6.606463    1.898036
     30          1           0        0.055957    7.715155    0.208340
     31          1           0        0.428052    6.175413   -0.601314
     32          1           0        1.970413    5.633071    1.337007
     33          1           0        1.604919    7.250973    2.006492
     34          1           0        3.714751    7.141096    0.750451
     35          1           0        2.508300    8.363060    0.160046
     36          1           0        3.898811    7.350384   -1.507007
     37          1           0        2.197651    7.155594   -1.770659
     38          1           0        2.412251    4.745169   -0.813111
     39          1           0        3.511648    5.020400   -2.065379
     40          1           0        3.978813    5.059325   -0.647619
     41          7           0       -2.021050    5.144978   -0.873895
     42          6           0       -3.067170    4.988608   -1.858620
     43          6           0       -4.314488    4.326685   -1.281251
     44          8           0       -5.316540    4.309461   -1.990120
     45          6           0       -2.671656    4.186217   -3.091437
     46          6           0       -2.095631    2.847418   -2.662933
     47          8           0       -0.911432    2.765725   -2.287438
     48          8           0       -2.746693    1.789238   -2.806369
     49          1           0       -1.322635    4.412824   -0.857585
     50          1           0       -3.514796    5.911628   -2.218986
     51          1           0       -1.964709    4.710440   -3.743216
     52          1           0       -3.514618    3.947827   -3.741348
     53          7           0       -4.404268    3.832551   -0.041424
     54          6           0       -5.607738    3.369484    0.595387
     55          6           0       -6.341198    2.125302    0.100364
     56          8           0       -7.440562    1.842670    0.553041
     57          1           0       -3.541412    3.842728    0.499293
     58          1           0       -6.303901    4.204863    0.585375
     59          1           0       -5.391055    3.080858    1.628219
     60          7           0       -5.774582    1.360229   -0.836765
     61          6           0       -6.392562    0.179975   -1.420544
     62          6           0       -6.483260   -1.051815   -0.538576
     63          8           0       -7.068652   -2.057386   -0.948507
     64          6           0       -5.678864   -0.079321   -2.745044
     65          6           0       -4.528205   -1.064423   -2.603062
     66          7           0       -4.416378   -2.094148   -3.438083
     67          8           0       -3.649432   -0.974766   -1.751170
     68          1           0       -4.800745    1.501246   -1.051139
     69          1           0       -7.391698    0.469499   -1.727796
     70          1           0       -5.272859    0.883344   -3.060220
     71          1           0       -6.387266   -0.426615   -3.499997
     72          1           0       -5.075732   -2.333493   -4.169770
     73          1           0       -3.667703   -2.771868   -3.363370
     74          7           0       -5.966631   -0.962188    0.681490
     75          6           0       -6.107414   -1.966717    1.714931
     76          6           0       -4.943040   -2.934313    1.914407
     77          8           0       -5.066809   -3.881492    2.684558
     78          1           0       -5.421838   -0.156878    0.958578
     79          1           0       -6.988950   -2.515795    1.375801
     80          1           0       -6.294700   -1.356049    2.585970
     81          7           0       -3.816210   -2.625601    1.278521
     82          6           0       -2.632657   -3.463411    1.265188
     83          6           0       -1.301349   -2.717316    1.151781
     84          8           0       -1.257478   -1.592144    0.652618
     85          6           0       -2.834723   -4.387418    0.064113
     86          6           0       -4.115373   -5.186507   -0.035847
     87          6           0       -5.129603   -4.760013   -0.899526
     88          6           0       -4.145814   -6.436719    0.602544
     89          6           0       -6.142218   -5.703069   -1.085688
     90          6           0       -5.265015   -7.272781    0.574469
     91          6           0       -6.290903   -6.872325   -0.302851
     92          8           0       -7.438911   -7.590453   -0.443451
     93          1           0       -3.726420   -1.751874    0.787565
     94          1           0       -2.647667   -4.064024    2.175209
     95          1           0       -1.920039   -4.965237    0.077503
     96          1           0       -2.794793   -3.675553   -0.757016
     97          1           0       -4.974106   -3.844138   -1.453776
     98          1           0       -3.234455   -6.773621    1.082568
     99          1           0       -6.964300   -5.340584   -1.683505
    100          1           0       -5.355996   -8.153637    1.182676
    101          1           0       -7.396675   -8.326906    0.163800
    102          7           0       -0.253154   -3.231365    1.787029
    103          6           0        1.116459   -2.760426    1.850886
    104          6           0        1.968293   -3.713075    1.028062
    105          8           0        1.971146   -4.923423    1.239368
    106          6           0        1.624568   -2.559092    3.275523
    107          6           0        0.766666   -1.499874    3.973421
    108          6           0        3.109087   -2.198492    3.312516
    109          6           0        1.031596   -1.354871    5.471482
    110          1           0       -0.439207   -4.049695    2.357134
    111          1           0        1.119116   -1.779201    1.375815
    112          1           0        1.612400   -3.544100    3.736621
    113          1           0       -0.232339   -1.903621    3.882444
    114          1           0        0.903684   -0.628487    3.329285
    115          1           0        3.418691   -1.471055    2.568418
    116          1           0        3.427082   -1.770215    4.261177
    117          1           0        3.540760   -3.190530    3.158507
    118          1           0        0.727519   -2.261250    6.002626
    119          1           0        2.081390   -1.094617    5.609687
    120          1           0        0.421917   -0.561744    5.900714
    121          7           0        2.748544   -3.173174    0.093121
    122          6           0        3.749182   -3.812375   -0.744104
    123          6           0        5.155112   -3.518157   -0.242012
    124          8           0        5.454951   -2.508805    0.382732
    125          6           0        3.696696   -3.262306   -2.167048
    126          8           0        4.079013   -1.922278   -2.339267
    127          1           0        2.587409   -2.179696   -0.016133
    128          1           0        3.627940   -4.893378   -0.798261
    129          1           0        2.646429   -3.394209   -2.439885
    130          1           0        4.310649   -3.950281   -2.749331
    131          1           0        3.629059   -1.684332   -3.156655
    132          7           0        6.137529   -4.272018   -0.749508
    133          6           0        7.543405   -4.017520   -0.501428
    134          6           0        8.005648   -2.644298   -0.944590
    135          8           0        8.838689   -1.969791   -0.341613
    136          6           0        8.356840   -5.108456   -1.203412
    137          1           0        5.963735   -4.895914   -1.528642
    138          1           0        7.776992   -4.109647    0.559726
    139          1           0        7.945529   -6.061184   -0.858688
    140          1           0        8.395780   -5.114854   -2.287406
    141          1           0        9.399277   -5.051380   -0.876356
    142          7           0        7.545490   -2.222074   -2.126995
    143          6           0        7.813099   -0.880068   -2.608146
    144          6           0        7.327341    0.214087   -1.679187
    145          8           0        8.066962    1.162370   -1.401663
    146          6           0        7.122636   -0.761768   -3.966588
    147          1           0        6.858644   -2.809510   -2.573942
    148          1           0        8.880166   -0.741929   -2.713434
    149          1           0        6.031890   -0.853487   -3.915007
    150          1           0        7.471090    0.145541   -4.449465
    151          1           0        7.543995   -1.539673   -4.593820
    152          7           0        6.081666    0.094357   -1.192506
    153          6           0        5.443759    1.067329   -0.334719
    154          6           0        6.132846    1.101974    1.026185
    155          8           0        6.201989    2.186660    1.594318
    156          6           0        4.012483    0.556570   -0.152584
    157          6           0        3.222750    1.104798   -1.345173
    158          6           0        1.756874    0.689255   -1.329880
    159          8           0        1.181737    0.638439   -2.434748
    160          8           0        1.005503    0.614801   -0.333086
    161          1           0        5.626510   -0.673042   -1.662541
    162          1           0        5.369987    2.056137   -0.795606
    163          1           0        3.575002    0.980701    0.753188
    164          1           0        4.038990   -0.528730   -0.141537
    165          1           0        3.631987    0.701036   -2.273021
    166          1           0        3.386583    2.176804   -1.317569
    167          7           0        6.561187   -0.031802    1.592731
    168          6           0        7.368866   -0.226791    2.784802
    169          1           0        8.409217   -0.382661    2.496764
    170          1           0        7.297368    0.654999    3.421305
    171          1           0        7.008628   -1.098788    3.329834
    172          1           0        6.384534   -0.924258    1.167387
    173         20           0       -1.241065    0.166025   -1.573785
    174          8           0       -1.115436   -0.428161   -4.153603
    175          1           0       -0.845680    0.333327   -4.679406
    176          1           0       -1.599762   -0.979129   -4.762587
 ---------------------------------------------------------------------

 SCF Done:  E(RB3LYP) =  -5333.58658684     A.U. after   18 cycles

 The electronic state is 1-A.
 Alpha  occ. eigenvalues -- -145.34066 -19.20905 -19.16940 -19.14946 -19.14556
 Alpha  occ. eigenvalues --  -19.11782 -19.11542 -19.11276 -19.11109 -19.11080
 Alpha  occ. eigenvalues --  -19.09806 -19.09003 -19.08136 -19.07173 -19.05961
 Alpha  occ. eigenvalues --  -19.05607 -19.05515 -19.05237 -19.04441 -19.04309
 Alpha  occ. eigenvalues --  -19.04010 -19.03973 -19.02996 -19.01685 -15.39843
 Alpha  occ. eigenvalues --  -14.56161 -14.40418 -14.38521 -14.37545 -14.37490
 Alpha  occ. eigenvalues --  -14.36864 -14.36632 -14.35734 -14.34761 -14.33714
 Alpha  occ. eigenvalues --  -14.32813 -14.31777 -14.30321 -14.30176 -14.29957
 Alpha  occ. eigenvalues --  -12.53459 -12.53408 -12.53396 -10.33624 -10.33150
 Alpha  occ. eigenvalues --  -10.30291 -10.30273 -10.30156 -10.30003 -10.29968
 Alpha  occ. eigenvalues --  -10.29734 -10.28689 -10.28001 -10.27570 -10.27063
 Alpha  occ. eigenvalues --  -10.26863 -10.26471 -10.26373 -10.25181 -10.24629
 Alpha  occ. eigenvalues --  -10.24528 -10.24525 -10.24279 -10.24119 -10.24036
 Alpha  occ. eigenvalues --  -10.23564 -10.23269 -10.23239 -10.23125 -10.22992
 Alpha  occ. eigenvalues --  -10.22986 -10.22769 -10.22351 -10.22265 -10.21650
 Alpha  occ. eigenvalues --  -10.21332 -10.20963 -10.20615 -10.20316 -10.20171
 Alpha  occ. eigenvalues --  -10.20142 -10.19056 -10.18730 -10.18539 -10.18443
 Alpha  occ. eigenvalues --  -10.18428 -10.18255 -10.18117 -10.18088 -10.17754
 Alpha  occ. eigenvalues --  -10.17339 -10.17293 -10.17039 -10.16970 -10.16198
 Alpha  occ. eigenvalues --  -10.16070 -10.15325  -1.76845  -1.11620  -1.09403
 Alpha  occ. eigenvalues --   -1.08113  -1.05160  -1.04853  -1.04662  -1.04556
 Alpha  occ. eigenvalues --   -1.04496  -1.04139  -1.04136  -1.03980  -1.03522
 Alpha  occ. eigenvalues --   -1.02969  -1.02664  -1.01761  -1.01129  -1.01077
 Alpha  occ. eigenvalues --   -1.00040  -0.99714  -0.98907  -0.98338  -0.97861
 Alpha  occ. eigenvalues --   -0.97199  -0.97164  -0.96929  -0.95159  -0.94190
 Alpha  occ. eigenvalues --   -0.94178  -0.93493  -0.92746  -0.92026  -0.90967
 Alpha  occ. eigenvalues --   -0.90398  -0.89653  -0.89618  -0.89095  -0.88774
 Alpha  occ. eigenvalues --   -0.88398  -0.88066  -0.86991  -0.86752  -0.86008
 Alpha  occ. eigenvalues --   -0.84115  -0.82925  -0.82662  -0.82391  -0.80972
 Alpha  occ. eigenvalues --   -0.79814  -0.78287  -0.78194  -0.77502  -0.76706
 Alpha  occ. eigenvalues --   -0.76238  -0.75172  -0.74912  -0.72746  -0.72634
 Alpha  occ. eigenvalues --   -0.72460  -0.72162  -0.71161  -0.71083  -0.70402
 Alpha  occ. eigenvalues --   -0.70213  -0.69475  -0.69002  -0.68444  -0.68208
 Alpha  occ. eigenvalues --   -0.67245  -0.66734  -0.65780  -0.65537  -0.65172
 Alpha  occ. eigenvalues --   -0.64515  -0.64148  -0.63243  -0.62611  -0.62057
 Alpha  occ. eigenvalues --   -0.61960  -0.61250  -0.61216  -0.60757  -0.60428
 Alpha  occ. eigenvalues --   -0.60224  -0.59737  -0.59679  -0.59261  -0.58413
 Alpha  occ. eigenvalues --   -0.57976  -0.57901  -0.57309  -0.57040  -0.56723
 Alpha  occ. eigenvalues --   -0.56182  -0.55995  -0.55697  -0.55587  -0.55245
 Alpha  occ. eigenvalues --   -0.54776  -0.54515  -0.54181  -0.53731  -0.53610
 Alpha  occ. eigenvalues --   -0.53526  -0.53333  -0.52924  -0.52805  -0.52448
 Alpha  occ. eigenvalues --   -0.52250  -0.52182  -0.51840  -0.51226  -0.50778
 Alpha  occ. eigenvalues --   -0.50536  -0.50365  -0.49819  -0.49345  -0.49077
 Alpha  occ. eigenvalues --   -0.48630  -0.48522  -0.48277  -0.48222  -0.48098
 Alpha  occ. eigenvalues --   -0.48055  -0.47875  -0.47581  -0.47086  -0.46718
 Alpha  occ. eigenvalues --   -0.46546  -0.46516  -0.46072  -0.45729  -0.45582
 Alpha  occ. eigenvalues --   -0.45474  -0.45259  -0.45103  -0.44945  -0.44863
 Alpha  occ. eigenvalues --   -0.44814  -0.44366  -0.44181  -0.44139  -0.44048
 Alpha  occ. eigenvalues --   -0.43859  -0.43637  -0.43542  -0.43447  -0.43238
 Alpha  occ. eigenvalues --   -0.43075  -0.42815  -0.42733  -0.42422  -0.42367
 Alpha  occ. eigenvalues --   -0.42179  -0.42150  -0.42028  -0.42008  -0.41769
 Alpha  occ. eigenvalues --   -0.41553  -0.41510  -0.41414  -0.41149  -0.41007
 Alpha  occ. eigenvalues --   -0.40926  -0.40888  -0.40574  -0.40528  -0.40448
 Alpha  occ. eigenvalues --   -0.40405  -0.40253  -0.40220  -0.39964  -0.39915
 Alpha  occ. eigenvalues --   -0.39777  -0.39708  -0.39510  -0.39367  -0.39186
 Alpha  occ. eigenvalues --   -0.39103  -0.38991  -0.38795  -0.38679  -0.38507
 Alpha  occ. eigenvalues --   -0.38381  -0.38188  -0.38099  -0.37943  -0.37916
 Alpha  occ. eigenvalues --   -0.37821  -0.37553  -0.37297  -0.37203  -0.37057
 Alpha  occ. eigenvalues --   -0.36862  -0.36667  -0.36611  -0.36452  -0.36284
 Alpha  occ. eigenvalues --   -0.35852  -0.35551  -0.35416  -0.35287  -0.35129
 Alpha  occ. eigenvalues --   -0.35029  -0.34776  -0.34586  -0.34497  -0.34470
 Alpha  occ. eigenvalues --   -0.34170  -0.34090  -0.33969  -0.33727  -0.33294
 Alpha  occ. eigenvalues --   -0.33154  -0.32696  -0.32400  -0.32186  -0.32112
 Alpha  occ. eigenvalues --   -0.31955  -0.31799  -0.31361  -0.31171  -0.30706
 Alpha  occ. eigenvalues --   -0.30619  -0.29210  -0.29038  -0.28899  -0.28883
 Alpha  occ. eigenvalues --   -0.28615  -0.27500  -0.27244  -0.27016  -0.26742
 Alpha  occ. eigenvalues --   -0.26718  -0.26657  -0.26472  -0.25667  -0.25532
 Alpha  occ. eigenvalues --   -0.24508  -0.24332  -0.24215  -0.23906  -0.23841
 Alpha  occ. eigenvalues --   -0.23455  -0.23335  -0.23138  -0.22834  -0.22694
 Alpha  occ. eigenvalues --   -0.22650  -0.22143  -0.21950  -0.20768  -0.20671
 Alpha  occ. eigenvalues --   -0.20506  -0.20204  -0.20014  -0.19871  -0.19729
 Alpha  occ. eigenvalues --   -0.19490  -0.19066  -0.17591
 Alpha virt. eigenvalues --   -0.07770  -0.03934  -0.02902  -0.02423  -0.01777
 Alpha virt. eigenvalues --   -0.01321  -0.00849  -0.00713  -0.00436   0.00032
 Alpha virt. eigenvalues --    0.00416   0.00536   0.00642   0.01004   0.01497

 Mulliken charges:
               1
     1  C    0.051096
     2  C    0.050732
     3  O   -0.325782
     4  H    0.053044
     5  H    0.039230
     6  H    0.005982
     7  N   -0.108992
     8  C    0.039183
     9  C    0.089228
    10  O   -0.261178
    11  C    0.078904
    12  C    0.127460
    13  O   -0.472630
    14  O   -0.378796
    15  H    0.126933
    16  H    0.061213
    17  H    0.006973
    18  H   -0.002357
    19  N   -0.121392
    20  C    0.164591
    21  C    0.041668
    22  O   -0.253300
    23  C   -0.056406
    24  C    0.018699
    25  C   -0.034458
    26  C    0.027110
    27  N    0.077191
    28  H    0.118704
    29  H    0.004776
    30  H    0.027616
    31  H   -0.022366
    32  H    0.007036
    33  H    0.033764
    34  H    0.028326
    35  H    0.043199
    36  H    0.077514
    37  H    0.083652
    38  H    0.227775
    39  H    0.194333
    40  H    0.186076
    41  N   -0.148552
    42  C    0.117942
    43  C    0.011789
    44  O   -0.302434
    45  C    0.152450
    46  C    0.073967
    47  O   -0.416121
    48  O   -0.441130
    49  H    0.120341
    50  H    0.020864
    51  H   -0.020880
    52  H    0.014297
    53  N   -0.142462
    54  C    0.233972
    55  C    0.024210
    56  O   -0.296019
    57  H    0.158540
    58  H    0.022096
    59  H    0.037118
    60  N   -0.157423
    61  C    0.135626
    62  C    0.062513
    63  O   -0.309928
    64  C    0.103842
    65  C    0.080218
    66  N   -0.053769
    67  O   -0.347089
    68  H    0.150852
    69  H    0.023987
    70  H    0.064130
    71  H   -0.008125
    72  H    0.123086
    73  H    0.121990
    74  N   -0.169015
    75  C    0.225614
    76  C    0.058118
    77  O   -0.296511
    78  H    0.151767
    79  H    0.035012
    80  H    0.034605
    81  N   -0.142202
    82  C    0.091382
    83  C    0.120327
    84  O   -0.314322
    85  C    0.125617
    86  C    0.004066
    87  C    0.022050
    88  C    0.018589
    89  C   -0.005684
    90  C   -0.027766
    91  C    0.147416
    92  O   -0.185656
    93  H    0.149962
    94  H   -0.004940
    95  H   -0.026413
    96  H   -0.050162
    97  H   -0.053259
    98  H   -0.041651
    99  H   -0.012032
   100  H   -0.049238
   101  H    0.165215
   102  N   -0.120740
   103  C    0.130135
   104  C    0.053193
   105  O   -0.279197
   106  C   -0.125656
   107  C    0.008565
   108  C    0.054356
   109  C    0.058927
   110  H    0.133089
   111  H    0.013906
   112  H   -0.014850
   113  H    0.004657
   114  H    0.023353
   115  H    0.015658
   116  H    0.005678
   117  H    0.019520
   118  H    0.014077
   119  H    0.005614
   120  H    0.003741
   121  N   -0.118859
   122  C    0.101602
   123  C    0.113070
   124  O   -0.254251
   125  C    0.190631
   126  O   -0.283899
   127  H    0.153919
   128  H    0.032744
   129  H    0.032004
   130  H   -0.015612
   131  H    0.207347
   132  N   -0.139519
   133  C    0.083118
   134  C    0.072710
   135  O   -0.250176
   136  C    0.021566
   137  H    0.118318
   138  H    0.023915
   139  H    0.029683
   140  H    0.013900
   141  H    0.045629
   142  N   -0.139589
   143  C    0.111620
   144  C    0.040874
   145  O   -0.265146
   146  C    0.037625
   147  H    0.088878
   148  H    0.011562
   149  H   -0.003558
   150  H    0.027558
   151  H    0.008292
   152  N   -0.154331
   153  C    0.157036
   154  C    0.086056
   155  O   -0.293690
   156  C   -0.042410
   157  C    0.117208
   158  C    0.101887
   159  O   -0.423251
   160  O   -0.397597
   161  H    0.128978
   162  H   -0.054389
   163  H    0.044101
   164  H    0.005523
   165  H   -0.036928
   166  H   -0.078734
   167  N   -0.166546
   168  C    0.125124
   169  H    0.036396
   170  H    0.023631
   171  H    0.010476
   172  H    0.131775
   173  Ca   1.267994
   174  O   -0.283417
   175  H    0.198362
   176  H    0.161636
 Sum of Mulliken charges =  -0.00000

 Dipole moment (field-independent basis, Debye):
    X=             25.9541    Y=             -1.0184    Z=            -12.0061  Tot=             28.6147
 Quadrupole moment (field-independent basis, Debye-Ang):
   XX=           -718.8687   YY=           -456.1313   ZZ=           -488.7407
   XY=             39.5259   XZ=            -17.6237   YZ=             17.9746

 ESP charges:
               1
     1  C   -0.350310
     2  C    0.808898
     3  O   -0.645436
     4  H    0.113118
     5  H    0.099890
     6  H    0.078835
     7  N   -0.876124
     8  C    0.516384
     9  C    0.464863
    10  O   -0.463673
    11  C   -0.576236
    12  C    0.917651
    13  O   -0.950498
    14  O   -0.690670
    15  H    0.385960
    16  H    0.108634
    17  H    0.122044
    18  H    0.118728
    19  N   -0.345670
    20  C   -0.037488
    21  C    0.486953
    22  O   -0.534777
    23  C   -0.041909
    24  C    0.124452
    25  C   -0.213204
    26  C    0.092245
    27  N   -0.483697
    28  H    0.152221
    29  H    0.084773
    30  H    0.060432
    31  H    0.016748
    32  H   -0.027559
    33  H    0.032762
    34  H    0.053823
    35  H    0.095202
    36  H    0.087991
    37  H    0.067220
    38  H    0.433126
    39  H    0.338625
    40  H    0.385955
    41  N   -0.442173
    42  C    0.173514
    43  C    0.417373
    44  O   -0.568008
    45  C   -0.372638
    46  C    0.837962
    47  O   -0.708120
    48  O   -0.781864
    49  H    0.221044
    50  H    0.086738
    51  H    0.072991
    52  H    0.117421
    53  N   -0.011218
    54  C   -0.428266
    55  C    0.693676
    56  O   -0.610492
    57  H    0.173941
    58  H    0.154750
    59  H    0.160446
    60  N   -0.342509
    61  C    0.021868
    62  C    0.305127
    63  O   -0.523039
    64  C   -0.275522
    65  C    0.723516
    66  N   -0.822971
    67  O   -0.606607
    68  H    0.208284
    69  H    0.126502
    70  H    0.130910
    71  H    0.097334
    72  H    0.361651
    73  H    0.391477
    74  N    0.089796
    75  C   -0.604343
    76  C    0.887628
    77  O   -0.586636
    78  H    0.204104
    79  H    0.207601
    80  H    0.179311
    81  N   -0.791862
    82  C    0.408692
    83  C    0.586079
    84  O   -0.568715
    85  C   -0.157675
    86  C   -0.120931
    87  C    0.111054
    88  C    0.034751
    89  C   -0.484372
    90  C   -0.447851
    91  C    0.524762
    92  O   -0.554064
    93  H    0.384278
    94  H   -0.010348
    95  H    0.024539
    96  H   -0.009907
    97  H    0.081064
    98  H    0.091912
    99  H    0.208352
   100  H    0.175773
   101  H    0.395101
   102  N   -0.687755
   103  C    0.080873
   104  C    0.722956
   105  O   -0.584970
   106  C    0.274344
   107  C    0.028016
   108  C   -0.344485
   109  C   -0.355622
   110  H    0.317694
   111  H    0.037730
   112  H   -0.033412
   113  H    0.026612
   114  H    0.083984
   115  H    0.049758
   116  H    0.102933
   117  H    0.069855
   118  H    0.097550
   119  H    0.071145
   120  H    0.092320
   121  N   -0.632636
   122  C    0.345877
   123  C    0.396146
   124  O   -0.348602
   125  C   -0.183581
   126  O   -0.267106
   127  H    0.327320
   128  H    0.036992
   129  H    0.095868
   130  H    0.057517
   131  H    0.359663
   132  N   -0.509673
   133  C    0.226361
   134  C    0.449346
   135  O   -0.508838
   136  C   -0.259326
   137  H    0.287695
   138  H    0.058473
   139  H    0.070518
   140  H    0.071882
   141  H    0.097499
   142  N   -0.448226
   143  C    0.256520
   144  C    0.246576
   145  O   -0.499502
   146  C   -0.442234
   147  H    0.252262
   148  H    0.079586
   149  H    0.102433
   150  H    0.135648
   151  H    0.108530
   152  N    0.252716
   153  C   -0.495061
   154  C    0.660774
   155  O   -0.591989
   156  C    0.340212
   157  C    0.111165
   158  C    0.619054
   159  O   -0.747303
   160  O   -0.723358
   161  H   -0.038797
   162  H    0.109314
   163  H    0.012557
   164  H   -0.356998
   165  H   -0.063455
   166  H   -0.069314
   167  N   -0.176348
   168  C   -0.211112
   169  H    0.101058
   170  H    0.093587
   171  H    0.079170
   172  H    0.157599
   173  Ca   1.667202
   174  O   -0.826316
   175  H    0.432956
   176  H    0.398698
 Sum of ESP charges =  -0.00000

 Normal termination of Gaussian 16 at Sat Sep 14 22:39:22 2019.
