 Gaussian 16, Revision A.03,
 Gaussian 16:  ES64L-G16RevA.03 25-Dec-2016

 ----------------------------------------------------------------------
 #b3lyp/svp scf=(tight,noincore) Test #IOP(5/87=12) Density=Current Pop
 =(MK,readradii) iop(6/33=2) iop(6/42=6)
 ----------------------------------------------------------------------

 ------------------
 holoCaM_loop3_86.0
 ------------------
 Symbolic Z-matrix:
 Charge =  0 Multiplicity = 1

                         Standard orientation:
 ---------------------------------------------------------------------
 Center     Atomic      Atomic             Coordinates (Angstroms)
 Number     Number       Type             X           Y           Z
 ---------------------------------------------------------------------
      1          6           0        2.038009    3.982691    5.072164
      2          6           0        1.535416    3.331143    3.792717
      3          8           0        2.333736    2.798519    3.028324
      4          1           0        2.143389    3.223938    5.848242
      5          1           0        3.005873    4.449269    4.887319
      6          1           0        1.325158    4.739403    5.398860
      7          7           0        0.210376    3.294037    3.634626
      8          6           0       -0.528210    2.765260    2.501584
      9          6           0       -0.722455    3.855582    1.451075
     10          8           0       -1.578274    4.725373    1.542926
     11          6           0       -1.805629    2.097155    2.994471
     12          6           0       -2.667987    1.504673    1.900441
     13          8           0       -2.140063    1.367665    0.775530
     14          8           0       -3.867455    1.209551    2.116729
     15          1           0       -0.362777    3.657110    4.380263
     16          1           0        0.070509    1.971010    2.068569
     17          1           0       -2.389050    2.799380    3.584640
     18          1           0       -1.649184    1.266570    3.690426
     19          7           0        0.173745    3.919344    0.463877
     20          6           0        0.347018    5.064496   -0.407676
     21          6           0       -0.690387    5.347507   -1.488692
     22          8           0       -0.597776    6.405905   -2.096488
     23          6           0        1.747994    5.093536   -1.013829
     24          6           0        2.769945    5.611286    0.000543
     25          6           0        4.215975    5.405316   -0.456814
     26          6           0        5.037496    6.458666    0.288743
     27          7           0        5.343610    6.092120    1.679008
     28          1           0        0.848905    3.167719    0.435263
     29          1           0        0.364767    5.979044    0.185945
     30          1           0        1.737027    5.770115   -1.871396
     31          1           0        2.056912    4.125127   -1.389535
     32          1           0        2.557315    5.084865    0.927079
     33          1           0        2.490864    6.666264   -0.005479
     34          1           0        4.263792    5.592524   -1.527126
     35          1           0        4.477129    4.354986   -0.366787
     36          1           0        4.527951    7.417776    0.312650
     37          1           0        5.943759    6.604998   -0.316381
     38          1           0        4.862670    6.792127    2.229268
     39          1           0        5.131829    5.161176    1.991248
     40          1           0        6.287446    6.237690    2.022351
     41          7           0       -1.629725    4.440986   -1.755646
     42          6           0       -2.850643    4.645429   -2.516740
     43          6           0       -4.074449    4.289164   -1.688023
     44          8           0       -5.171065    4.589020   -2.155272
     45          6           0       -2.791937    3.788128   -3.781686
     46          6           0       -2.676147    2.274132   -3.623223
     47          8           0       -2.470038    1.639402   -4.677375
     48          8           0       -2.810674    1.780290   -2.485408
     49          1           0       -1.518438    3.496463   -1.424902
     50          1           0       -3.017306    5.685622   -2.766982
     51          1           0       -1.960679    4.140764   -4.390421
     52          1           0       -3.701932    3.998625   -4.341062
     53          7           0       -4.026805    3.777558   -0.447261
     54          6           0       -5.101500    3.729355    0.511700
     55          6           0       -6.086443    2.676786    0.020491
     56          8           0       -7.296135    2.816355    0.193884
     57          1           0       -3.120471    3.540534   -0.081232
     58          1           0       -5.598638    4.682248    0.698111
     59          1           0       -4.619493    3.427493    1.445482
     60          7           0       -5.646974    1.640430   -0.690236
     61          6           0       -6.451376    0.522684   -1.122648
     62          6           0       -6.482361   -0.651496   -0.157226
     63          8           0       -6.960226   -1.736510   -0.489627
     64          6           0       -6.031758    0.090767   -2.529335
     65          6           0       -4.900880   -0.916673   -2.601300
     66          7           0       -4.988313   -1.981643   -3.418120
     67          8           0       -3.856510   -0.752835   -1.973249
     68          1           0       -4.678446    1.683306   -0.966848
     69          1           0       -7.486495    0.793351   -1.350176
     70          1           0       -5.697345    0.979047   -3.063027
     71          1           0       -6.873397   -0.419789   -3.000903
     72          1           0       -5.879117   -2.320701   -3.732300
     73          1           0       -4.231947   -2.643537   -3.496270
     74          7           0       -5.937607   -0.522357    1.056556
     75          6           0       -6.181809   -1.345106    2.214161
     76          6           0       -4.999370   -2.182566    2.696134
     77          8           0       -5.070039   -2.823115    3.735463
     78          1           0       -5.375973    0.294878    1.243089
     79          1           0       -6.994985   -1.994567    1.911101
     80          1           0       -6.690051   -0.840240    3.038418
     81          7           0       -3.889197   -2.142566    1.943992
     82          6           0       -2.717890   -2.949158    2.205232
     83          6           0       -1.403065   -2.467614    1.603277
     84          8           0       -1.391982   -1.765775    0.595458
     85          6           0       -2.982335   -4.438993    2.032428
     86          6           0       -4.058921   -4.873006    1.066046
     87          6           0       -5.207778   -5.497508    1.545863
     88          6           0       -3.948664   -4.550354   -0.292460
     89          6           0       -6.175732   -5.924719    0.622522
     90          6           0       -4.924623   -4.956753   -1.217470
     91          6           0       -6.070323   -5.648772   -0.755862
     92          8           0       -7.037344   -6.107700   -1.599873
     93          1           0       -3.920938   -1.653200    1.068542
     94          1           0       -2.455727   -2.878386    3.267900
     95          1           0       -3.258391   -4.757867    3.035131
     96          1           0       -2.077404   -4.982407    1.760396
     97          1           0       -5.209501   -5.784225    2.592233
     98          1           0       -3.046152   -4.066690   -0.627782
     99          1           0       -7.065062   -6.483993    0.850563
    100          1           0       -4.846188   -4.604246   -2.230873
    101          1           0       -6.823876   -6.182154   -2.533462
    102          7           0       -0.350756   -2.956078    2.267919
    103          6           0        1.036920   -2.611837    2.000987
    104          6           0        1.579497   -3.604480    0.981296
    105          8           0        1.654413   -4.791625    1.277228
    106          6           0        1.866327   -2.502678    3.277807
    107          6           0        1.310154   -1.523995    4.308462
    108          6           0        3.327972   -2.122161    3.048460
    109          6           0        1.075013   -0.082966    3.872634
    110          1           0       -0.496251   -3.563107    3.065633
    111          1           0        1.098053   -1.653817    1.490829
    112          1           0        1.739024   -3.469268    3.758844
    113          1           0        1.923499   -1.436994    5.207094
    114          1           0        0.370027   -1.959186    4.649741
    115          1           0        3.395775   -1.089807    2.714171
    116          1           0        3.963023   -2.066268    3.934398
    117          1           0        3.825535   -2.789131    2.351121
    118          1           0        0.572750   -0.089606    2.903982
    119          1           0        0.651594    0.442621    4.728130
    120          1           0        2.019334    0.415335    3.698984
    121          7           0        1.955177   -3.072874   -0.183332
    122          6           0        2.826741   -3.772624   -1.106169
    123          6           0        4.312901   -3.551975   -0.870283
    124          8           0        4.778626   -2.859012    0.024034
    125          6           0        2.438548   -3.397283   -2.532292
    126          8           0        2.563169   -2.020194   -2.794962
    127          1           0        1.812248   -2.084677   -0.297071
    128          1           0        2.722288   -4.845683   -0.923867
    129          1           0        1.403423   -3.691299   -2.730962
    130          1           0        2.939155   -3.887305   -3.374475
    131          1           0        1.950373   -1.587761   -2.192565
    132          7           0        5.202626   -4.180619   -1.652712
    133          6           0        6.595210   -4.326027   -1.278459
    134          6           0        7.438350   -3.078302   -1.508018
    135          8           0        8.476759   -2.943270   -0.851075
    136          6           0        7.191501   -5.404295   -2.185529
    137          1           0        4.844068   -4.685041   -2.447693
    138          1           0        6.652704   -4.668069   -0.247342
    139          1           0        7.126104   -5.065701   -3.221713
    140          1           0        8.239534   -5.582262   -1.942518
    141          1           0        6.594516   -6.304795   -2.102400
    142          7           0        7.027101   -2.174772   -2.408799
    143          6           0        7.576824   -0.845591   -2.551917
    144          6           0        7.019244    0.195035   -1.580937
    145          8           0        7.723079    1.165371   -1.305867
    146          6           0        7.494324   -0.471330   -4.019883
    147          1           0        6.342154   -2.454044   -3.084709
    148          1           0        8.653386   -0.904178   -2.395131
    149          1           0        6.416546   -0.370586   -4.124503
    150          1           0        7.985583    0.494431   -4.160133
    151          1           0        7.974774   -1.298986   -4.541759
    152          7           0        5.876927   -0.081937   -0.933250
    153          6           0        5.265654    0.603897    0.185176
    154          6           0        5.978518    0.138123    1.442745
    155          8           0        6.447924    1.020360    2.163103
    156          6           0        3.779178    0.264544    0.208152
    157          6           0        2.984858    0.966771   -0.885847
    158          6           0        1.508329    0.581247   -0.827244
    159          8           0        0.672617    1.501658   -0.919604
    160          8           0        1.196410   -0.622868   -0.804573
    161          1           0        5.479009   -0.943997   -1.265688
    162          1           0        5.315782    1.687920    0.040671
    163          1           0        3.345924    0.591837    1.154656
    164          1           0        3.563054   -0.800789    0.243587
    165          1           0        3.388546    0.576075   -1.822059
    166          1           0        3.087647    2.049876   -0.875027
    167          7           0        6.247973   -1.163665    1.532980
    168          6           0        7.122878   -1.630612    2.597828
    169          1           0        6.747402   -2.577076    2.986463
    170          1           0        8.129235   -1.773732    2.205183
    171          1           0        7.146057   -0.892362    3.399608
    172          1           0        5.826085   -1.862878    0.949531
    173         20           0       -1.427386    0.085117   -1.259602
    174          8           0       -0.910042   -2.147636   -2.402961
    175          1           0       -0.537575   -2.213608   -3.274521
    176          1           0       -1.027719   -3.054019   -2.116044
 ---------------------------------------------------------------------

 SCF Done:  E(RB3LYP) =  -5333.60297331     A.U. after   18 cycles

 The electronic state is 1-A.
 Alpha  occ. eigenvalues -- -145.36645 -19.19693 -19.15423 -19.15122 -19.15071
 Alpha  occ. eigenvalues --  -19.13604 -19.12351 -19.11713 -19.11620 -19.11155
 Alpha  occ. eigenvalues --  -19.10955 -19.09736 -19.09631 -19.08699 -19.08527
 Alpha  occ. eigenvalues --  -19.06960 -19.06750 -19.05802 -19.05725 -19.04327
 Alpha  occ. eigenvalues --  -19.03945 -19.03945 -19.03087 -19.01371 -15.42442
 Alpha  occ. eigenvalues --  -14.57930 -14.40042 -14.38217 -14.38074 -14.37261
 Alpha  occ. eigenvalues --  -14.36085 -14.35962 -14.34864 -14.34488 -14.33580
 Alpha  occ. eigenvalues --  -14.32967 -14.32121 -14.30527 -14.29832 -14.29577
 Alpha  occ. eigenvalues --  -12.56062 -12.56015 -12.55991 -10.34735 -10.33213
 Alpha  occ. eigenvalues --  -10.31430 -10.30704 -10.30501 -10.30305 -10.29178
 Alpha  occ. eigenvalues --  -10.28706 -10.28425 -10.27490 -10.27332 -10.27107
 Alpha  occ. eigenvalues --  -10.27049 -10.26891 -10.26803 -10.25941 -10.25671
 Alpha  occ. eigenvalues --  -10.24675 -10.24532 -10.24424 -10.24159 -10.24135
 Alpha  occ. eigenvalues --  -10.23794 -10.23210 -10.23020 -10.22944 -10.22936
 Alpha  occ. eigenvalues --  -10.22921 -10.22511 -10.22315 -10.22018 -10.21983
 Alpha  occ. eigenvalues --  -10.20988 -10.20761 -10.20486 -10.20443 -10.20362
 Alpha  occ. eigenvalues --  -10.19798 -10.19643 -10.19059 -10.19059 -10.18673
 Alpha  occ. eigenvalues --  -10.18401 -10.18285 -10.18186 -10.17939 -10.17910
 Alpha  occ. eigenvalues --  -10.17783 -10.17776 -10.17706 -10.17598 -10.17382
 Alpha  occ. eigenvalues --  -10.17369 -10.13360  -1.79409  -1.13304  -1.08849
 Alpha  occ. eigenvalues --   -1.07986  -1.07308  -1.07098  -1.05928  -1.05591
 Alpha  occ. eigenvalues --   -1.05403  -1.04529  -1.04431  -1.04389  -1.03616
 Alpha  occ. eigenvalues --   -1.03471  -1.02738  -1.02248  -1.02182  -1.01113
 Alpha  occ. eigenvalues --   -1.00179  -1.00014  -0.99417  -0.98773  -0.97816
 Alpha  occ. eigenvalues --   -0.97278  -0.97059  -0.96862  -0.96303  -0.95253
 Alpha  occ. eigenvalues --   -0.94932  -0.93902  -0.93875  -0.92962  -0.91514
 Alpha  occ. eigenvalues --   -0.90272  -0.90223  -0.89411  -0.89312  -0.89201
 Alpha  occ. eigenvalues --   -0.88589  -0.87808  -0.87647  -0.86856  -0.85741
 Alpha  occ. eigenvalues --   -0.83648  -0.83165  -0.82458  -0.81816  -0.80841
 Alpha  occ. eigenvalues --   -0.79359  -0.78912  -0.78488  -0.77932  -0.76292
 Alpha  occ. eigenvalues --   -0.75650  -0.74931  -0.74129  -0.73906  -0.73661
 Alpha  occ. eigenvalues --   -0.73001  -0.72846  -0.72205  -0.71034  -0.70310
 Alpha  occ. eigenvalues --   -0.69647  -0.69518  -0.68943  -0.68497  -0.68218
 Alpha  occ. eigenvalues --   -0.68084  -0.66395  -0.65856  -0.65477  -0.65298
 Alpha  occ. eigenvalues --   -0.64517  -0.63611  -0.63059  -0.62804  -0.62285
 Alpha  occ. eigenvalues --   -0.62129  -0.61853  -0.61779  -0.61372  -0.61196
 Alpha  occ. eigenvalues --   -0.60666  -0.59725  -0.59112  -0.58647  -0.58610
 Alpha  occ. eigenvalues --   -0.58449  -0.58312  -0.58218  -0.57774  -0.56542
 Alpha  occ. eigenvalues --   -0.56407  -0.55945  -0.55751  -0.55105  -0.54804
 Alpha  occ. eigenvalues --   -0.54453  -0.54268  -0.54214  -0.54069  -0.53925
 Alpha  occ. eigenvalues --   -0.53554  -0.53402  -0.52925  -0.52344  -0.52108
 Alpha  occ. eigenvalues --   -0.51845  -0.51623  -0.51124  -0.50997  -0.50711
 Alpha  occ. eigenvalues --   -0.50521  -0.50408  -0.50064  -0.49644  -0.49543
 Alpha  occ. eigenvalues --   -0.49129  -0.49106  -0.48864  -0.48705  -0.48460
 Alpha  occ. eigenvalues --   -0.48144  -0.47692  -0.47591  -0.47443  -0.47259
 Alpha  occ. eigenvalues --   -0.47165  -0.46738  -0.46709  -0.46508  -0.46379
 Alpha  occ. eigenvalues --   -0.46231  -0.45890  -0.45805  -0.45473  -0.45454
 Alpha  occ. eigenvalues --   -0.45220  -0.45017  -0.44847  -0.44549  -0.44486
 Alpha  occ. eigenvalues --   -0.44344  -0.44216  -0.43688  -0.43655  -0.43599
 Alpha  occ. eigenvalues --   -0.43557  -0.43400  -0.43324  -0.43083  -0.42980
 Alpha  occ. eigenvalues --   -0.42921  -0.42899  -0.42779  -0.42310  -0.42047
 Alpha  occ. eigenvalues --   -0.41836  -0.41758  -0.41712  -0.41604  -0.41443
 Alpha  occ. eigenvalues --   -0.41332  -0.41242  -0.41199  -0.40828  -0.40670
 Alpha  occ. eigenvalues --   -0.40623  -0.40525  -0.40307  -0.39873  -0.39864
 Alpha  occ. eigenvalues --   -0.39777  -0.39568  -0.39444  -0.39405  -0.39189
 Alpha  occ. eigenvalues --   -0.39159  -0.38982  -0.38858  -0.38619  -0.38474
 Alpha  occ. eigenvalues --   -0.38333  -0.38282  -0.38100  -0.37966  -0.37872
 Alpha  occ. eigenvalues --   -0.37785  -0.37669  -0.37560  -0.37318  -0.37269
 Alpha  occ. eigenvalues --   -0.37158  -0.36839  -0.36440  -0.36340  -0.36193
 Alpha  occ. eigenvalues --   -0.36131  -0.35969  -0.35757  -0.35437  -0.35236
 Alpha  occ. eigenvalues --   -0.35156  -0.35034  -0.34952  -0.34709  -0.34636
 Alpha  occ. eigenvalues --   -0.33981  -0.33725  -0.33540  -0.33210  -0.32882
 Alpha  occ. eigenvalues --   -0.32754  -0.32359  -0.32266  -0.32127  -0.32046
 Alpha  occ. eigenvalues --   -0.31639  -0.31620  -0.31531  -0.30962  -0.30756
 Alpha  occ. eigenvalues --   -0.30209  -0.30082  -0.29842  -0.29655  -0.29508
 Alpha  occ. eigenvalues --   -0.28896  -0.28118  -0.28090  -0.27756  -0.27713
 Alpha  occ. eigenvalues --   -0.27460  -0.27376  -0.26924  -0.26565  -0.25985
 Alpha  occ. eigenvalues --   -0.25220  -0.25108  -0.24731  -0.24490  -0.24485
 Alpha  occ. eigenvalues --   -0.24397  -0.23716  -0.23630  -0.23468  -0.23425
 Alpha  occ. eigenvalues --   -0.22862  -0.22622  -0.22559  -0.21846  -0.21209
 Alpha  occ. eigenvalues --   -0.21110  -0.20940  -0.20481  -0.20124  -0.19543
 Alpha  occ. eigenvalues --   -0.19304  -0.18393  -0.17672
 Alpha virt. eigenvalues --   -0.09901  -0.05526  -0.03700  -0.03431  -0.02365
 Alpha virt. eigenvalues --   -0.01131  -0.00819  -0.00716  -0.00429  -0.00280
 Alpha virt. eigenvalues --    0.00066   0.00252   0.00418   0.01215   0.01400

 Mulliken charges:
               1
     1  C    0.063254
     2  C    0.024230
     3  O   -0.308630
     4  H    0.053670
     5  H   -0.009210
     6  H    0.013340
     7  N   -0.119167
     8  C    0.141326
     9  C    0.060721
    10  O   -0.282783
    11  C    0.051759
    12  C    0.138771
    13  O   -0.476809
    14  O   -0.363538
    15  H    0.121874
    16  H   -0.006529
    17  H    0.000590
    18  H    0.017095
    19  N   -0.114253
    20  C    0.150873
    21  C    0.068069
    22  O   -0.294645
    23  C   -0.003286
    24  C   -0.059501
    25  C   -0.014656
    26  C    0.038241
    27  N    0.083198
    28  H    0.142370
    29  H   -0.006075
    30  H    0.022473
    31  H    0.013056
    32  H    0.010183
    33  H    0.015405
    34  H    0.045019
    35  H    0.062289
    36  H    0.064695
    37  H    0.079635
    38  H    0.188026
    39  H    0.206338
    40  H    0.185132
    41  N   -0.137328
    42  C    0.156618
    43  C    0.045796
    44  O   -0.292975
    45  C    0.062220
    46  C    0.106902
    47  O   -0.365225
    48  O   -0.481688
    49  H    0.137082
    50  H    0.017759
    51  H    0.003250
    52  H    0.022206
    53  N   -0.177284
    54  C    0.265651
    55  C    0.014804
    56  O   -0.290827
    57  H    0.129976
    58  H    0.009753
    59  H    0.025878
    60  N   -0.160300
    61  C    0.169200
    62  C    0.041509
    63  O   -0.301833
    64  C    0.079570
    65  C    0.075447
    66  N   -0.046796
    67  O   -0.347188
    68  H    0.153860
    69  H    0.035835
    70  H    0.075457
    71  H   -0.009907
    72  H    0.123508
    73  H    0.116907
    74  N   -0.175001
    75  C    0.233886
    76  C    0.056527
    77  O   -0.292204
    78  H    0.145718
    79  H    0.020975
    80  H    0.026007
    81  N   -0.113420
    82  C    0.091712
    83  C    0.154892
    84  O   -0.347699
    85  C    0.135239
    86  C   -0.069222
    87  C    0.043581
    88  C    0.017869
    89  C   -0.006059
    90  C   -0.022816
    91  C    0.177493
    92  O   -0.210844
    93  H    0.137090
    94  H    0.000302
    95  H   -0.001166
    96  H    0.002265
    97  H   -0.015087
    98  H   -0.081072
    99  H   -0.027892
   100  H   -0.091792
   101  H    0.176148
   102  N   -0.128018
   103  C    0.120254
   104  C    0.062245
   105  O   -0.277178
   106  C   -0.054366
   107  C    0.033883
   108  C    0.058069
   109  C   -0.045655
   110  H    0.144187
   111  H   -0.005885
   112  H   -0.012680
   113  H   -0.006922
   114  H   -0.027910
   115  H   -0.004403
   116  H   -0.001917
   117  H    0.026030
   118  H    0.051336
   119  H    0.009855
   120  H    0.026830
   121  N   -0.147130
   122  C    0.110471
   123  C    0.124692
   124  O   -0.284906
   125  C    0.231790
   126  O   -0.334500
   127  H    0.157577
   128  H    0.031979
   129  H   -0.044618
   130  H   -0.004947
   131  H    0.163788
   132  N   -0.145036
   133  C    0.077502
   134  C    0.077988
   135  O   -0.263439
   136  C    0.038773
   137  H    0.113979
   138  H    0.032538
   139  H   -0.000010
   140  H    0.052709
   141  H    0.024936
   142  N   -0.152959
   143  C    0.077261
   144  C    0.070430
   145  O   -0.285461
   146  C    0.029148
   147  H    0.106515
   148  H    0.032809
   149  H    0.008065
   150  H    0.041694
   151  H    0.030449
   152  N   -0.144334
   153  C    0.183682
   154  C    0.092941
   155  O   -0.296311
   156  C   -0.087238
   157  C    0.133733
   158  C    0.157394
   159  O   -0.404156
   160  O   -0.438801
   161  H    0.118066
   162  H   -0.038029
   163  H    0.027301
   164  H    0.003012
   165  H    0.003467
   166  H   -0.033228
   167  N   -0.174647
   168  C    0.126680
   169  H    0.008592
   170  H    0.033476
   171  H    0.027683
   172  H    0.132974
   173  Ca   1.300229
   174  O   -0.286311
   175  H    0.191302
   176  H    0.196860
 Sum of Mulliken charges =  -0.00000

 Dipole moment (field-independent basis, Debye):
    X=             30.8207    Y=              1.8036    Z=              2.7070  Tot=             30.9919
 Quadrupole moment (field-independent basis, Debye-Ang):
   XX=           -642.6927   YY=           -449.7413   ZZ=           -536.6680
   XY=            139.5834   XZ=             14.2509   YZ=            118.4056

 ESP charges:
               1
     1  C   -0.387068
     2  C    0.724289
     3  O   -0.623807
     4  H    0.129425
     5  H    0.085567
     6  H    0.088880
     7  N   -0.722159
     8  C    0.222181
     9  C    0.470026
    10  O   -0.526370
    11  C   -0.119215
    12  C    0.677243
    13  O   -0.801527
    14  O   -0.662257
    15  H    0.366702
    16  H   -0.023688
    17  H    0.052477
    18  H    0.030966
    19  N   -0.064653
    20  C   -0.348806
    21  C    0.672636
    22  O   -0.577078
    23  C    0.212699
    24  C   -0.123470
    25  C    0.055066
    26  C    0.019244
    27  N   -0.348883
    28  H    0.249737
    29  H    0.109726
    30  H    0.016004
    31  H   -0.065878
    32  H   -0.022387
    33  H    0.043992
    34  H    0.038863
    35  H    0.028358
    36  H    0.085110
    37  H    0.068408
    38  H    0.315288
    39  H    0.342228
    40  H    0.332764
    41  N   -0.429289
    42  C    0.082833
    43  C    0.401679
    44  O   -0.543109
    45  C   -0.254101
    46  C    0.741620
    47  O   -0.683798
    48  O   -0.729950
    49  H    0.223952
    50  H    0.104000
    51  H    0.065255
    52  H    0.087445
    53  N    0.016760
    54  C   -0.188755
    55  C    0.581041
    56  O   -0.597920
    57  H   -0.036476
    58  H    0.097216
    59  H    0.124121
    60  N   -0.283772
    61  C   -0.025730
    62  C    0.289468
    63  O   -0.481650
    64  C   -0.441325
    65  C    0.898387
    66  N   -0.846118
    67  O   -0.688482
    68  H    0.274643
    69  H    0.173085
    70  H    0.193885
    71  H    0.105386
    72  H    0.370555
    73  H    0.359230
    74  N   -0.060676
    75  C   -0.132138
    76  C    0.554190
    77  O   -0.554336
    78  H    0.147857
    79  H    0.107491
    80  H    0.084033
    81  N   -0.316720
    82  C   -0.050875
    83  C    0.705263
    84  O   -0.543340
    85  C   -0.196877
    86  C   -0.082267
    87  C    0.003993
    88  C    0.058828
    89  C   -0.393360
    90  C   -0.542128
    91  C    0.555781
    92  O   -0.591920
    93  H    0.248606
    94  H    0.083367
    95  H    0.099670
    96  H    0.066629
    97  H    0.120974
    98  H    0.087990
    99  H    0.179997
   100  H    0.182396
   101  H    0.418799
   102  N   -0.640897
   103  C    0.098968
   104  C    0.589163
   105  O   -0.565311
   106  C    0.004219
   107  C   -0.090037
   108  C   -0.257363
   109  C   -0.144732
   110  H    0.367659
   111  H    0.022584
   112  H    0.044382
   113  H    0.050786
   114  H    0.008767
   115  H    0.007193
   116  H    0.085287
   117  H    0.066617
   118  H    0.097721
   119  H    0.067009
   120  H    0.110624
   121  N   -0.021234
   122  C   -0.361253
   123  C    0.574668
   124  O   -0.394644
   125  C    0.209341
   126  O   -0.560054
   127  H   -0.186486
   128  H    0.139220
   129  H    0.002814
   130  H    0.056558
   131  H    0.349773
   132  N   -0.422976
   133  C    0.186584
   134  C    0.433842
   135  O   -0.528635
   136  C   -0.325074
   137  H    0.263189
   138  H    0.070374
   139  H    0.073821
   140  H    0.129144
   141  H    0.090065
   142  N   -0.348067
   143  C    0.273599
   144  C    0.299104
   145  O   -0.516421
   146  C   -0.385866
   147  H    0.235343
   148  H    0.061406
   149  H    0.078444
   150  H    0.130823
   151  H    0.106291
   152  N   -0.068326
   153  C   -0.198643
   154  C    0.554098
   155  O   -0.578871
   156  C    0.117950
   157  C   -0.345498
   158  C    0.722809
   159  O   -0.703784
   160  O   -0.489088
   161  H    0.062939
   162  H    0.097453
   163  H   -0.020536
   164  H    0.209489
   165  H    0.041395
   166  H    0.139811
   167  N   -0.114002
   168  C   -0.167698
   169  H    0.061758
   170  H    0.083868
   171  H    0.078184
   172  H    0.091188
   173  Ca   1.527427
   174  O   -0.781726
   175  H    0.420852
   176  H    0.400673
 Sum of ESP charges =   0.00000

 Normal termination of Gaussian 16 at Sat Sep 14 23:26:31 2019.
