 Gaussian 16, Revision A.03,
 Gaussian 16:  ES64L-G16RevA.03 25-Dec-2016

 ----------------------------------------------------------------------
 #b3lyp/svp scf=(tight,noincore) Test #IOP(5/87=12) Density=Current Pop
 =(MK,readradii) iop(6/33=2) iop(6/42=6)
 ----------------------------------------------------------------------

 -----------------
 Ng-293_loop3_64.0
 -----------------
 Symbolic Z-matrix:
 Charge =  0 Multiplicity = 1

                         Standard orientation:
 ---------------------------------------------------------------------
 Center     Atomic      Atomic             Coordinates (Angstroms)
 Number     Number       Type             X           Y           Z
 ---------------------------------------------------------------------
      1          6           0        8.150349    0.485814    5.525095
      2          6           0        8.017711    0.961917    4.093651
      3          8           0        7.520958    0.219446    3.253727
      4          1           0        8.698320   -0.456451    5.544798
      5          1           0        8.690868    1.232007    6.108444
      6          1           0        7.158598    0.337556    5.952543
      7          7           0        8.498475    2.187361    3.842345
      8          6           0        8.196235    3.099561    2.746242
      9          6           0        8.637753    2.730549    1.335465
     10          8           0        8.485543    3.558555    0.447694
     11          6           0        6.721555    3.458746    2.869549
     12          6           0        6.552550    4.956460    2.631246
     13          8           0        5.941301    5.372103    1.620842
     14          8           0        7.030568    5.722310    3.491230
     15          1           0        8.905886    2.676516    4.629837
     16          1           0        8.822307    3.961222    2.999761
     17          1           0        6.329938    3.239529    3.855947
     18          1           0        6.188922    2.826586    2.156684
     19          7           0        9.213373    1.539819    1.137163
     20          6           0        9.686017    0.966261   -0.110851
     21          6           0        8.608226    0.692639   -1.142548
     22          8           0        8.853651    0.517949   -2.339816
     23          6           0       10.391018   -0.325589    0.298411
     24          6           0       11.309021   -0.872607   -0.783921
     25          6           0       12.083865   -2.104893   -0.338963
     26          6           0       12.458338   -3.056154   -1.467800
     27          7           0       13.259181   -2.367847   -2.494048
     28          1           0        9.222963    0.881150    1.903755
     29          1           0       10.368772    1.662421   -0.588561
     30          1           0        9.655096   -1.034169    0.671150
     31          1           0       11.043011   -0.041800    1.134933
     32          1           0       12.011560   -0.072965   -1.024776
     33          1           0       10.738165   -1.233663   -1.639059
     34          1           0       11.576789   -2.610882    0.475008
     35          1           0       13.036049   -1.730715    0.039502
     36          1           0       11.552828   -3.358045   -1.996585
     37          1           0       12.979771   -3.886970   -0.989622
     38          1           0       13.736012   -2.943560   -3.172344
     39          1           0       12.760321   -1.718017   -3.084184
     40          1           0       14.115267   -2.000417   -2.092785
     41          7           0        7.370489    0.548997   -0.660600
     42          6           0        6.198100    0.567746   -1.513215
     43          6           0        5.091590    1.481808   -1.024721
     44          8           0        4.805433    1.505373    0.171046
     45          6           0        5.805954   -0.874984   -1.843143
     46          6           0        4.535830   -1.075832   -2.650760
     47          8           0        3.840842   -2.090263   -2.441665
     48          8           0        4.306680   -0.240833   -3.553736
     49          1           0        7.296619    0.438477    0.346340
     50          1           0        6.619124    1.046609   -2.390898
     51          1           0        5.614084   -1.402321   -0.904314
     52          1           0        6.687289   -1.368024   -2.235010
     53          7           0        4.310938    2.090233   -1.924500
     54          6           0        3.047830    2.757094   -1.678015
     55          6           0        1.907314    1.774085   -1.403214
     56          8           0        2.070007    0.612922   -1.767400
     57          1           0        4.670560    1.984124   -2.865729
     58          1           0        2.897789    3.293166   -2.612367
     59          1           0        3.149880    3.490538   -0.877174
     60          7           0        0.875190    2.216463   -0.679389
     61          6           0       -0.270802    1.391874   -0.350062
     62          6           0       -1.530349    1.923277   -1.019131
     63          8           0       -2.605611    1.381787   -0.799133
     64          6           0       -0.368315    1.282615    1.171698
     65          6           0        0.821702    0.736518    1.942500
     66          7           0        1.804733    0.098211    1.291489
     67          8           0        0.969749    0.944013    3.149989
     68          1           0        0.931713    3.128117   -0.263345
     69          1           0       -0.184284    0.348003   -0.662869
     70          1           0       -1.114910    0.504671    1.356089
     71          1           0       -0.621271    2.259111    1.592017
     72          1           0        1.623648    0.054958    0.300410
     73          1           0        2.635955   -0.218424    1.753888
     74          7           0       -1.499254    3.011099   -1.794228
     75          6           0       -2.711093    3.620665   -2.300464
     76          6           0       -3.678579    3.962943   -1.180278
     77          8           0       -3.245144    4.400629   -0.114087
     78          1           0       -0.618200    3.438416   -2.037628
     79          1           0       -3.146771    2.976819   -3.068674
     80          1           0       -2.430968    4.527930   -2.846908
     81          7           0       -4.965281    3.988980   -1.530022
     82          6           0       -6.158772    3.968937   -0.702146
     83          6           0       -6.209053    2.732233    0.193643
     84          8           0       -7.289616    2.587136    0.754294
     85          6           0       -6.299744    5.263485    0.100146
     86          6           0       -6.509098    6.536612   -0.681786
     87          6           0       -5.498083    7.293845   -1.292971
     88          6           0       -7.786561    7.112768   -0.706901
     89          6           0       -5.723485    8.609568   -1.730770
     90          6           0       -8.051899    8.415975   -1.132517
     91          6           0       -7.005986    9.181758   -1.686179
     92          8           0       -7.151951   10.471240   -2.103948
     93          1           0       -5.249141    4.042655   -2.495756
     94          1           0       -6.983521    3.915613   -1.400318
     95          1           0       -5.413811    5.300852    0.744448
     96          1           0       -7.112947    5.105146    0.801309
     97          1           0       -4.491395    6.925657   -1.334412
     98          1           0       -8.607817    6.551730   -0.281724
     99          1           0       -4.903539    9.230443   -2.082341
    100          1           0       -9.060769    8.741451   -0.928686
    101          1           0       -8.081727   10.697296   -1.964614
    102          7           0       -5.163720    1.916401    0.336107
    103          6           0       -5.137405    0.706356    1.132787
    104          6           0       -5.907985   -0.507561    0.626417
    105          8           0       -5.317222   -1.444422    0.106523
    106          6           0       -5.350191    1.096604    2.592866
    107          6           0       -4.320411    2.115992    3.059559
    108          6           0       -5.256872   -0.214638    3.365677
    109          6           0       -4.361422    2.501465    4.536085
    110          1           0       -4.224305    2.074325   -0.017392
    111          1           0       -4.126597    0.303953    1.159993
    112          1           0       -6.355707    1.491226    2.739187
    113          1           0       -4.415381    2.986569    2.394973
    114          1           0       -3.368858    1.677173    2.764798
    115          1           0       -4.333587   -0.701317    3.060411
    116          1           0       -5.326265   -0.058379    4.439767
    117          1           0       -6.037294   -0.928236    3.119469
    118          1           0       -3.595930    3.266187    4.703785
    119          1           0       -5.359917    2.865590    4.764385
    120          1           0       -4.110029    1.640117    5.156553
    121          7           0       -7.243214   -0.537499    0.700362
    122          6           0       -8.136853   -1.438540    0.013532
    123          6           0       -7.974509   -2.925254    0.257718
    124          8           0       -8.051477   -3.631116   -0.736281
    125          6           0       -9.586259   -1.013308    0.262930
    126          8           0       -9.803231    0.379280    0.251888
    127          1           0       -7.595604    0.270426    1.204325
    128          1           0       -7.872472   -1.249341   -1.026808
    129          1           0       -9.952432   -1.438101    1.203605
    130          1           0      -10.238282   -1.432236   -0.490903
    131          1           0      -10.728076    0.510222    0.506673
    132          7           0       -7.618759   -3.431364    1.453960
    133          6           0       -7.223925   -4.804729    1.698445
    134          6           0       -6.168747   -5.334355    0.738916
    135          8           0       -6.164659   -6.547459    0.581240
    136          6           0       -8.493256   -5.653495    1.746342
    137          1           0       -7.603182   -2.762165    2.209030
    138          1           0       -6.817821   -4.789889    2.708474
    139          1           0       -8.918112   -5.552281    0.753038
    140          1           0       -8.318841   -6.725264    1.857204
    141          1           0       -9.156869   -5.199488    2.491724
    142          7           0       -5.354016   -4.528096    0.051777
    143          6           0       -4.409476   -5.004537   -0.928503
    144          6           0       -3.001792   -5.287082   -0.421066
    145          8           0       -2.462154   -4.485913    0.340656
    146          6           0       -4.452427   -4.201940   -2.222989
    147          1           0       -5.393362   -3.517707    0.123640
    148          1           0       -4.834165   -5.961472   -1.251791
    149          1           0       -4.621689   -3.158511   -1.952053
    150          1           0       -3.609239   -4.246274   -2.919170
    151          1           0       -5.350042   -4.538610   -2.728794
    152          7           0       -2.379513   -6.419678   -0.743237
    153          6           0       -1.154444   -6.922511   -0.149634
    154          6           0       -1.155766   -7.367418    1.309769
    155          8           0       -0.179646   -7.216155    2.030193
    156          6           0        0.006057   -5.972505   -0.442083
    157          6           0        0.232055   -5.736021   -1.937276
    158          6           0        1.545734   -5.067343   -2.312130
    159          8           0        1.587081   -3.947277   -2.880939
    160          8           0        2.587169   -5.675355   -2.001751
    161          1           0       -2.899367   -7.117364   -1.268104
    162          1           0       -0.890164   -7.793868   -0.736739
    163          1           0        0.976728   -6.357771   -0.118406
    164          1           0       -0.113422   -5.014112    0.044237
    165          1           0       -0.571835   -5.103370   -2.313726
    166          1           0        0.130304   -6.652410   -2.514664
    167          7           0       -2.208387   -7.951002    1.889093
    168          6           0       -2.245029   -8.334749    3.279128
    169          1           0       -1.691898   -9.264258    3.413406
    170          1           0       -1.789927   -7.551399    3.884958
    171          1           0       -3.280043   -8.479450    3.589743
    172          1           0       -3.081090   -8.095298    1.391731
    173         20           0        1.468396   -1.315937   -3.431271
    174          8           0       -0.996179   -2.258458   -3.014588
    175          1           0       -1.091300   -3.000496   -3.604530
    176          1           0       -1.854580   -2.179562   -2.587245
 ---------------------------------------------------------------------

 SCF Done:  E(RB3LYP) =  -5333.30868520     A.U. after   52 cycles

 The electronic state is 1-A.
 Alpha  occ. eigenvalues -- -145.45682 -19.19897 -19.17227 -19.16536 -19.14654
 Alpha  occ. eigenvalues --  -19.14560 -19.12761 -19.10914 -19.10264 -19.09874
 Alpha  occ. eigenvalues --  -19.08452 -19.08172 -19.07359 -19.07249 -19.07058
 Alpha  occ. eigenvalues --  -19.06951 -19.05716 -19.05557 -19.04838 -19.04005
 Alpha  occ. eigenvalues --  -19.01757 -18.98786 -18.96020 -18.95927 -15.51533
 Alpha  occ. eigenvalues --  -14.56352 -14.41598 -14.40790 -14.37809 -14.36256
 Alpha  occ. eigenvalues --  -14.35840 -14.35799 -14.34332 -14.34150 -14.33691
 Alpha  occ. eigenvalues --  -14.33087 -14.33044 -14.32982 -14.32491 -14.32425
 Alpha  occ. eigenvalues --  -12.65153 -12.65095 -12.65065 -10.34247 -10.34050
 Alpha  occ. eigenvalues --  -10.33299 -10.31804 -10.29204 -10.29159 -10.28867
 Alpha  occ. eigenvalues --  -10.28564 -10.27435 -10.27299 -10.27237 -10.26766
 Alpha  occ. eigenvalues --  -10.26461 -10.26289 -10.26091 -10.25799 -10.25782
 Alpha  occ. eigenvalues --  -10.25412 -10.25367 -10.24883 -10.24860 -10.24752
 Alpha  occ. eigenvalues --  -10.24568 -10.23753 -10.23582 -10.23186 -10.23184
 Alpha  occ. eigenvalues --  -10.23064 -10.22147 -10.22070 -10.21800 -10.20950
 Alpha  occ. eigenvalues --  -10.20628 -10.19700 -10.19650 -10.19647 -10.19637
 Alpha  occ. eigenvalues --  -10.19531 -10.19452 -10.19241 -10.19195 -10.18691
 Alpha  occ. eigenvalues --  -10.18554 -10.18380 -10.17342 -10.17280 -10.17192
 Alpha  occ. eigenvalues --  -10.17114 -10.17020 -10.15286 -10.15279 -10.12998
 Alpha  occ. eigenvalues --  -10.12600 -10.10272  -1.88099  -1.15699  -1.15072
 Alpha  occ. eigenvalues --   -1.15023  -1.12046  -1.09262  -1.08327  -1.05798
 Alpha  occ. eigenvalues --   -1.05674  -1.05375  -1.04599  -1.03557  -1.03225
 Alpha  occ. eigenvalues --   -1.02831  -1.01676  -1.01382  -1.00673  -1.00388
 Alpha  occ. eigenvalues --   -1.00132  -0.99956  -0.99498  -0.98926  -0.98846
 Alpha  occ. eigenvalues --   -0.98782  -0.96348  -0.95212  -0.94436  -0.93215
 Alpha  occ. eigenvalues --   -0.92898  -0.92341  -0.91174  -0.90726  -0.90570
 Alpha  occ. eigenvalues --   -0.90336  -0.90333  -0.89548  -0.89192  -0.89022
 Alpha  occ. eigenvalues --   -0.88385  -0.87995  -0.87911  -0.85369  -0.84436
 Alpha  occ. eigenvalues --   -0.82803  -0.81779  -0.81738  -0.80306  -0.80179
 Alpha  occ. eigenvalues --   -0.78745  -0.77170  -0.77075  -0.76829  -0.75635
 Alpha  occ. eigenvalues --   -0.75620  -0.74678  -0.74397  -0.74241  -0.73626
 Alpha  occ. eigenvalues --   -0.73376  -0.73130  -0.72382  -0.70206  -0.69879
 Alpha  occ. eigenvalues --   -0.69629  -0.69267  -0.68376  -0.67656  -0.67177
 Alpha  occ. eigenvalues --   -0.66677  -0.66267  -0.65890  -0.65621  -0.64831
 Alpha  occ. eigenvalues --   -0.64284  -0.63835  -0.63285  -0.63273  -0.62805
 Alpha  occ. eigenvalues --   -0.61979  -0.61311  -0.61068  -0.60584  -0.60214
 Alpha  occ. eigenvalues --   -0.59834  -0.59152  -0.58993  -0.58895  -0.58406
 Alpha  occ. eigenvalues --   -0.58176  -0.57719  -0.57403  -0.57095  -0.56311
 Alpha  occ. eigenvalues --   -0.56183  -0.55955  -0.55773  -0.55624  -0.55371
 Alpha  occ. eigenvalues --   -0.55346  -0.55085  -0.54973  -0.54365  -0.54118
 Alpha  occ. eigenvalues --   -0.54020  -0.53633  -0.53454  -0.53155  -0.52607
 Alpha  occ. eigenvalues --   -0.52203  -0.51707  -0.51600  -0.50358  -0.50301
 Alpha  occ. eigenvalues --   -0.50143  -0.49866  -0.49577  -0.49473  -0.49366
 Alpha  occ. eigenvalues --   -0.49235  -0.48988  -0.48588  -0.48161  -0.47942
 Alpha  occ. eigenvalues --   -0.47709  -0.47645  -0.47399  -0.47032  -0.46900
 Alpha  occ. eigenvalues --   -0.46865  -0.46619  -0.46345  -0.46194  -0.45730
 Alpha  occ. eigenvalues --   -0.45470  -0.45213  -0.45025  -0.45016  -0.44724
 Alpha  occ. eigenvalues --   -0.44463  -0.44302  -0.44252  -0.44103  -0.43866
 Alpha  occ. eigenvalues --   -0.43669  -0.43457  -0.43281  -0.43104  -0.42848
 Alpha  occ. eigenvalues --   -0.42699  -0.42557  -0.42543  -0.42518  -0.42171
 Alpha  occ. eigenvalues --   -0.42013  -0.41986  -0.41791  -0.41679  -0.41464
 Alpha  occ. eigenvalues --   -0.41388  -0.41018  -0.40950  -0.40776  -0.40696
 Alpha  occ. eigenvalues --   -0.40401  -0.40144  -0.39926  -0.39873  -0.39777
 Alpha  occ. eigenvalues --   -0.39682  -0.39582  -0.39441  -0.39237  -0.39140
 Alpha  occ. eigenvalues --   -0.39124  -0.38963  -0.38466  -0.38365  -0.38111
 Alpha  occ. eigenvalues --   -0.38061  -0.37935  -0.37822  -0.37751  -0.37640
 Alpha  occ. eigenvalues --   -0.37388  -0.37334  -0.37143  -0.37047  -0.36982
 Alpha  occ. eigenvalues --   -0.36897  -0.36715  -0.36675  -0.36483  -0.36397
 Alpha  occ. eigenvalues --   -0.36347  -0.36181  -0.36145  -0.35779  -0.35752
 Alpha  occ. eigenvalues --   -0.35485  -0.35273  -0.34889  -0.34500  -0.34454
 Alpha  occ. eigenvalues --   -0.34374  -0.34223  -0.33981  -0.33946  -0.33548
 Alpha  occ. eigenvalues --   -0.33432  -0.33309  -0.33070  -0.32403  -0.32304
 Alpha  occ. eigenvalues --   -0.32245  -0.32145  -0.31733  -0.31535  -0.31476
 Alpha  occ. eigenvalues --   -0.31190  -0.30522  -0.30047  -0.29507  -0.28815
 Alpha  occ. eigenvalues --   -0.28795  -0.28272  -0.28259  -0.28116  -0.27832
 Alpha  occ. eigenvalues --   -0.27371  -0.27036  -0.26292  -0.26192  -0.26135
 Alpha  occ. eigenvalues --   -0.25968  -0.25728  -0.25139  -0.25123  -0.24869
 Alpha  occ. eigenvalues --   -0.24861  -0.24717  -0.24594  -0.23956  -0.23652
 Alpha  occ. eigenvalues --   -0.23213  -0.22977  -0.22859  -0.22734  -0.22502
 Alpha  occ. eigenvalues --   -0.22369  -0.22204  -0.22088  -0.21699  -0.21182
 Alpha  occ. eigenvalues --   -0.20744  -0.19979  -0.17953  -0.17644  -0.14646
 Alpha  occ. eigenvalues --   -0.13229  -0.13015  -0.10405
 Alpha virt. eigenvalues --   -0.09508  -0.09390  -0.03978  -0.03713  -0.03619
 Alpha virt. eigenvalues --   -0.03034  -0.02754  -0.01833  -0.00694  -0.00553
 Alpha virt. eigenvalues --   -0.00361  -0.00264   0.00301   0.00564   0.01181

 Mulliken charges:
               1
     1  C    0.074795
     2  C    0.022398
     3  O   -0.312154
     4  H    0.020133
     5  H   -0.013684
     6  H    0.050895
     7  N   -0.152769
     8  C    0.049377
     9  C    0.052276
    10  O   -0.236148
    11  C    0.114129
    12  C    0.045744
    13  O   -0.336691
    14  O   -0.373201
    15  H    0.122260
    16  H    0.020870
    17  H   -0.018440
    18  H   -0.000576
    19  N   -0.134889
    20  C    0.125711
    21  C    0.077758
    22  O   -0.306386
    23  C   -0.008647
    24  C    0.011371
    25  C   -0.011123
    26  C    0.051615
    27  N    0.117615
    28  H    0.125834
    29  H    0.005754
    30  H    0.028898
    31  H    0.012722
    32  H    0.000957
    33  H    0.015624
    34  H    0.055248
    35  H    0.005917
    36  H    0.076661
    37  H    0.073022
    38  H    0.116751
    39  H    0.163824
    40  H    0.123043
    41  N   -0.147801
    42  C    0.139955
    43  C    0.090075
    44  O   -0.278440
    45  C    0.116114
    46  C    0.091663
    47  O   -0.364870
    48  O   -0.423953
    49  H    0.133871
    50  H   -0.005524
    51  H    0.002904
    52  H    0.005414
    53  N   -0.118060
    54  C    0.210837
    55  C    0.080043
    56  O   -0.357440
    57  H    0.126627
    58  H    0.019820
    59  H    0.068328
    60  N   -0.119969
    61  C    0.062506
    62  C    0.085235
    63  O   -0.285924
    64  C    0.052169
    65  C   -0.018576
    66  N   -0.018855
    67  O   -0.252283
    68  H    0.155066
    69  H    0.021625
    70  H    0.073480
    71  H    0.047740
    72  H    0.100007
    73  H    0.154608
    74  N   -0.112477
    75  C    0.203776
    76  C    0.037211
    77  O   -0.267497
    78  H    0.114428
    79  H    0.009806
    80  H    0.034604
    81  N   -0.136567
    82  C    0.096484
    83  C    0.106278
    84  O   -0.290671
    85  C    0.144693
    86  C   -0.019929
    87  C   -0.008011
    88  C   -0.029564
    89  C   -0.020081
    90  C   -0.054887
    91  C    0.180264
    92  O   -0.189250
    93  H    0.124266
    94  H    0.004589
    95  H    0.026393
    96  H    0.003007
    97  H   -0.034195
    98  H   -0.028222
    99  H   -0.019786
   100  H   -0.038089
   101  H    0.176322
   102  N   -0.119157
   103  C    0.136819
   104  C    0.045267
   105  O   -0.271027
   106  C   -0.151165
   107  C    0.006548
   108  C    0.093517
   109  C    0.059651
   110  H    0.160552
   111  H    0.007172
   112  H    0.005914
   113  H    0.003240
   114  H   -0.024124
   115  H    0.007529
   116  H    0.007998
   117  H   -0.029841
   118  H    0.021467
   119  H    0.007002
   120  H    0.018737
   121  N   -0.127105
   122  C    0.142008
   123  C    0.042325
   124  O   -0.265598
   125  C    0.209410
   126  O   -0.293177
   127  H    0.141006
   128  H    0.013355
   129  H   -0.019264
   130  H    0.005937
   131  H    0.173624
   132  N   -0.149568
   133  C    0.086640
   134  C    0.083336
   135  O   -0.292717
   136  C    0.069124
   137  H    0.120021
   138  H    0.017706
   139  H    0.020667
   140  H    0.032154
   141  H   -0.007419
   142  N   -0.105387
   143  C    0.085930
   144  C    0.072963
   145  O   -0.278622
   146  C    0.036977
   147  H    0.139547
   148  H   -0.011491
   149  H    0.019113
   150  H   -0.012398
   151  H    0.028976
   152  N   -0.121713
   153  C    0.097175
   154  C    0.091957
   155  O   -0.266341
   156  C    0.028623
   157  C    0.083231
   158  C    0.116222
   159  O   -0.465589
   160  O   -0.338523
   161  H    0.115736
   162  H    0.003047
   163  H    0.026503
   164  H    0.012121
   165  H   -0.108370
   166  H   -0.037611
   167  N   -0.154413
   168  C    0.139035
   169  H    0.016781
   170  H    0.036205
   171  H    0.004695
   172  H    0.102102
   173  Ca   1.265375
   174  O   -0.312266
   175  H    0.185089
   176  H    0.200978
 Sum of Mulliken charges =  -0.00000

 Dipole moment (field-independent basis, Debye):
    X=              8.9118    Y=             -8.3360    Z=            -19.5096  Tot=             23.0116
 Quadrupole moment (field-independent basis, Debye-Ang):
   XX=            -33.1459   YY=           -693.2417   ZZ=           -516.4104
   XY=           -225.3567   XZ=           -104.6147   YZ=            -51.4074

 ESP charges:
               1
     1  C   -0.437106
     2  C    0.798027
     3  O   -0.600806
     4  H    0.104766
     5  H    0.079213
     6  H    0.144094
     7  N   -0.765685
     8  C    0.216337
     9  C    0.436576
    10  O   -0.482572
    11  C   -0.185199
    12  C    0.658111
    13  O   -0.616460
    14  O   -0.663055
    15  H    0.368961
    16  H    0.061545
    17  H    0.084864
    18  H    0.024804
    19  N   -0.316057
    20  C   -0.087903
    21  C    0.539572
    22  O   -0.579448
    23  C    0.138858
    24  C   -0.311748
    25  C    0.165638
    26  C   -0.078897
    27  N   -0.170346
    28  H    0.168219
    29  H    0.102441
    30  H    0.038626
    31  H    0.022618
    32  H    0.071745
    33  H    0.100436
    34  H    0.012491
    35  H   -0.010143
    36  H    0.108781
    37  H    0.085754
    38  H    0.229374
    39  H    0.255793
    40  H    0.237112
    41  N   -0.384897
    42  C    0.070099
    43  C    0.497481
    44  O   -0.451157
    45  C   -0.162545
    46  C    0.756480
    47  O   -0.675169
    48  O   -0.773811
    49  H    0.277958
    50  H    0.072925
    51  H    0.040380
    52  H    0.075671
    53  N   -0.378642
    54  C   -0.114708
    55  C    0.416598
    56  O   -0.451870
    57  H    0.293807
    58  H    0.108844
    59  H    0.123122
    60  N   -0.498988
    61  C    0.112083
    62  C    0.365769
    63  O   -0.470070
    64  C   -0.262139
    65  C    0.671360
    66  N   -0.752934
    67  O   -0.553127
    68  H    0.368551
    69  H    0.133576
    70  H    0.105621
    71  H    0.116169
    72  H    0.299897
    73  H    0.412038
    74  N   -0.328652
    75  C   -0.031493
    76  C    0.584424
    77  O   -0.491984
    78  H    0.245356
    79  H    0.045783
    80  H    0.098666
    81  N   -0.709990
    82  C    0.139978
    83  C    0.546059
    84  O   -0.542013
    85  C   -0.346096
    86  C    0.248245
    87  C   -0.269325
    88  C   -0.185308
    89  C   -0.218179
    90  C   -0.325478
    91  C    0.362361
    92  O   -0.522021
    93  H    0.364718
    94  H    0.085529
    95  H    0.156648
    96  H    0.108332
    97  H    0.171961
    98  H    0.134327
    99  H    0.155595
   100  H    0.156961
   101  H    0.395878
   102  N   -0.489944
   103  C   -0.148771
   104  C    0.662848
   105  O   -0.588432
   106  C    0.260405
   107  C    0.194992
   108  C   -0.410906
   109  C   -0.377938
   110  H    0.351505
   111  H    0.084209
   112  H   -0.001867
   113  H   -0.025110
   114  H   -0.047541
   115  H    0.101599
   116  H    0.105683
   117  H    0.046346
   118  H    0.102558
   119  H    0.080643
   120  H    0.094251
   121  N   -0.197191
   122  C   -0.165807
   123  C    0.413920
   124  O   -0.483099
   125  C    0.325514
   126  O   -0.592864
   127  H    0.183716
   128  H    0.132969
   129  H   -0.033561
   130  H   -0.001040
   131  H    0.393886
   132  N   -0.397806
   133  C    0.306968
   134  C    0.410877
   135  O   -0.517719
   136  C   -0.337966
   137  H    0.262875
   138  H    0.022782
   139  H    0.116352
   140  H    0.095442
   141  H    0.066129
   142  N   -0.428513
   143  C    0.619401
   144  C    0.264096
   145  O   -0.455835
   146  C   -0.455695
   147  H    0.157981
   148  H   -0.046377
   149  H    0.133967
   150  H    0.073057
   151  H    0.116166
   152  N   -0.474603
   153  C   -0.132936
   154  C    0.470843
   155  O   -0.506458
   156  C    0.447940
   157  C   -0.308557
   158  C    0.719366
   159  O   -0.743377
   160  O   -0.607201
   161  H    0.285916
   162  H    0.088949
   163  H   -0.084219
   164  H   -0.045948
   165  H    0.020847
   166  H    0.037912
   167  N   -0.221768
   168  C   -0.180641
   169  H    0.070664
   170  H    0.111488
   171  H    0.085136
   172  H    0.211117
   173  Ca   1.403085
   174  O   -0.811855
   175  H    0.383892
   176  H    0.435272
 Sum of ESP charges =  -0.00000

 Normal termination of Gaussian 16 at Tue Sep 17 16:06:10 2019.
