 Gaussian 16, Revision A.03,
 Gaussian 16:  ES64L-G16RevA.03 25-Dec-2016

 ----------------------------------------------------------------------
 #b3lyp/svp scf=(tight,noincore) Test #IOP(5/87=12) Density=Current Pop
 =(MK,readradii) iop(6/33=2) iop(6/42=6)
 ----------------------------------------------------------------------

 -----------------
 Ng-293_loop3_38.0
 -----------------
 Symbolic Z-matrix:
 Charge =  0 Multiplicity = 1

                         Standard orientation:
 ---------------------------------------------------------------------
 Center     Atomic      Atomic             Coordinates (Angstroms)
 Number     Number       Type             X           Y           Z
 ---------------------------------------------------------------------
      1          6           0        9.073576   -0.115060    6.503758
      2          6           0        9.269583    0.398411    5.093500
      3          8           0       10.200968    0.042954    4.373519
      4          1           0        9.477396    0.608324    7.212542
      5          1           0        8.009658   -0.255718    6.695624
      6          1           0        9.593276   -1.065895    6.620012
      7          7           0        8.483024    1.383928    4.633629
      8          6           0        8.715366    2.244366    3.490754
      9          6           0        8.408578    1.494381    2.212316
     10          8           0        7.433864    0.769537    2.022750
     11          6           0        7.969826    3.544922    3.799823
     12          6           0        8.292763    4.712178    2.883785
     13          8           0        9.140723    4.538563    1.985552
     14          8           0        7.690254    5.812328    2.956254
     15          1           0        7.631489    1.480065    5.154922
     16          1           0        9.790016    2.404004    3.414320
     17          1           0        8.338178    3.858133    4.781717
     18          1           0        6.899184    3.417485    3.790542
     19          7           0        9.444417    1.532768    1.360516
     20          6           0        9.599870    0.794479    0.126756
     21          6           0        8.358953    0.787471   -0.759908
     22          8           0        8.261744    1.610851   -1.670785
     23          6           0       10.120175   -0.602417    0.445292
     24          6           0       10.945803   -1.253147   -0.656565
     25          6           0       10.349834   -1.739920   -1.970975
     26          6           0       11.400411   -2.466208   -2.815364
     27          7           0       10.831955   -2.892563   -4.103456
     28          1           0       10.181105    2.161379    1.647463
     29          1           0       10.269417    1.380478   -0.489777
     30          1           0        9.340167   -1.257411    0.841739
     31          1           0       10.905442   -0.499501    1.204346
     32          1           0       11.520078   -2.076338   -0.229638
     33          1           0       11.707272   -0.537799   -0.982205
     34          1           0        9.928668   -0.899469   -2.540589
     35          1           0        9.453230   -2.309883   -1.758034
     36          1           0       11.711103   -3.336205   -2.241016
     37          1           0       12.250182   -1.811546   -2.980007
     38          1           0       10.536592   -2.123882   -4.677817
     39          1           0       11.514287   -3.387382   -4.661108
     40          1           0       10.029796   -3.510387   -4.118746
     41          7           0        7.497474   -0.219343   -0.637112
     42          6           0        6.319028   -0.513013   -1.432551
     43          6           0        5.166883    0.464487   -1.263865
     44          8           0        4.844366    0.900168   -0.156271
     45          6           0        5.712512   -1.839581   -0.967625
     46          6           0        4.625814   -2.466787   -1.830412
     47          8           0        3.873999   -3.395846   -1.472609
     48          8           0        4.498694   -2.114750   -3.022432
     49          1           0        7.617808   -0.689821    0.248761
     50          1           0        6.565533   -0.682852   -2.485826
     51          1           0        5.332199   -1.701824    0.037006
     52          1           0        6.548174   -2.527448   -0.820634
     53          7           0        4.706673    0.969446   -2.409345
     54          6           0        3.522967    1.793168   -2.500574
     55          6           0        2.197871    1.045868   -2.367297
     56          8           0        2.132238   -0.089186   -2.850458
     57          1           0        5.100330    0.583975   -3.254416
     58          1           0        3.480291    2.208293   -3.503944
     59          1           0        3.669715    2.624625   -1.808011
     60          7           0        1.218308    1.587490   -1.651963
     61          6           0       -0.047837    0.934965   -1.410323
     62          6           0       -1.190657    1.929697   -1.465727
     63          8           0       -2.369700    1.564776   -1.515630
     64          6           0       -0.010148    0.303866   -0.012326
     65          6           0        1.073891   -0.759960   -0.006629
     66          7           0        2.161082   -0.568922    0.743652
     67          8           0        0.997720   -1.846260   -0.579299
     68          1           0        1.344571    2.536309   -1.317599
     69          1           0       -0.240265    0.191358   -2.177017
     70          1           0       -1.001951   -0.096915    0.196721
     71          1           0        0.050937    1.086823    0.744343
     72          1           0        2.219765    0.331163    1.203546
     73          1           0        2.758038   -1.340291    0.967108
     74          7           0       -0.911177    3.196897   -1.779251
     75          6           0       -1.944598    4.160835   -2.072107
     76          6           0       -3.011788    4.377261   -1.016377
     77          8           0       -2.694445    4.510989    0.168701
     78          1           0        0.023718    3.580163   -1.820206
     79          1           0       -2.499229    3.733554   -2.916568
     80          1           0       -1.414241    5.069214   -2.382703
     81          7           0       -4.290387    4.510558   -1.357428
     82          6           0       -5.390002    4.599704   -0.416365
     83          6           0       -5.564076    3.409567    0.514372
     84          8           0       -6.424610    3.463829    1.388178
     85          6           0       -5.447196    5.955003    0.286128
     86          6           0       -5.239287    7.153215   -0.607326
     87          6           0       -4.019443    7.837184   -0.507986
     88          6           0       -6.290948    7.730505   -1.330960
     89          6           0       -3.810069    9.053355   -1.170625
     90          6           0       -6.008946    8.820492   -2.163608
     91          6           0       -4.805246    9.538534   -2.038222
     92          8           0       -4.667553   10.590900   -2.903419
     93          1           0       -4.657839    4.438307   -2.293087
     94          1           0       -6.227745    4.621100   -1.117170
     95          1           0       -4.760353    6.110134    1.123195
     96          1           0       -6.449533    6.040181    0.705251
     97          1           0       -3.147511    7.514023    0.036716
     98          1           0       -7.216787    7.204522   -1.420197
     99          1           0       -2.918846    9.656026   -1.114862
    100          1           0       -6.801725    9.142814   -2.830923
    101          1           0       -5.517798   10.706108   -3.331566
    102          7           0       -4.747400    2.365520    0.339997
    103          6           0       -4.755708    1.048508    0.925155
    104          6           0       -5.944392    0.214343    0.446513
    105          8           0       -5.762187   -0.973060    0.181608
    106          6           0       -4.500215    1.061306    2.425908
    107          6           0       -3.416314    2.054323    2.865996
    108          6           0       -4.225803   -0.340249    2.955193
    109          6           0       -3.018927    2.261320    4.327343
    110          1           0       -4.122275    2.442436   -0.455869
    111          1           0       -3.906548    0.526603    0.479462
    112          1           0       -5.443466    1.321233    2.906445
    113          1           0       -3.907281    3.013454    2.739035
    114          1           0       -2.513766    1.931369    2.269348
    115          1           0       -3.288618   -0.670188    2.508736
    116          1           0       -3.998306   -0.428356    4.017729
    117          1           0       -4.998464   -1.073010    2.720769
    118          1           0       -3.932486    2.095393    4.891947
    119          1           0       -2.230979    1.608648    4.678991
    120          1           0       -2.725791    3.295611    4.526622
    121          7           0       -7.113023    0.852803    0.438054
    122          6           0       -8.360488    0.271297   -0.004416
    123          6           0       -8.710420   -1.149690    0.409037
    124          8           0       -9.434405   -1.809880   -0.327845
    125          6           0       -9.503284    1.251185    0.270603
    126          8           0       -9.250658    2.575532   -0.165040
    127          1           0       -7.123761    1.804582    0.783456
    128          1           0       -8.244988    0.398469   -1.078235
    129          1           0       -9.449802    1.269006    1.355463
    130          1           0      -10.469472    0.874087   -0.042253
    131          1           0       -9.792354    3.217979    0.286652
    132          7           0       -8.285862   -1.577142    1.607634
    133          6           0       -8.501526   -2.910715    2.151206
    134          6           0       -8.046981   -3.926530    1.116504
    135          8           0       -8.787270   -4.875475    0.816377
    136          6           0       -9.949159   -3.086367    2.612513
    137          1           0       -7.683638   -0.982726    2.155445
    138          1           0       -7.796992   -3.035188    2.965724
    139          1           0      -10.164113   -4.074364    3.026948
    140          1           0      -10.273248   -2.390310    3.386188
    141          1           0      -10.573672   -2.873781    1.743842
    142          7           0       -6.810696   -3.723639    0.688213
    143          6           0       -6.089163   -4.640849   -0.175626
    144          6           0       -4.695650   -5.015374    0.306506
    145          8           0       -4.053266   -4.349774    1.116271
    146          6           0       -6.056380   -3.986259   -1.556835
    147          1           0       -6.383393   -2.851654    0.956457
    148          1           0       -6.707129   -5.540721   -0.229930
    149          1           0       -5.727293   -4.763490   -2.255772
    150          1           0       -6.982519   -3.601239   -1.966499
    151          1           0       -5.383238   -3.131326   -1.593832
    152          7           0       -4.142397   -6.105152   -0.217035
    153          6           0       -2.889233   -6.713107    0.180169
    154          6           0       -2.864221   -7.069773    1.664340
    155          8           0       -1.852550   -7.049061    2.356433
    156          6           0       -1.729440   -5.847656   -0.306117
    157          6           0       -1.514671   -5.990654   -1.805792
    158          6           0       -0.368402   -5.070020   -2.157646
    159          8           0       -0.553747   -3.889920   -2.518630
    160          8           0        0.782741   -5.572942   -2.176085
    161          1           0       -4.685521   -6.564268   -0.928251
    162          1           0       -2.727834   -7.643053   -0.357651
    163          1           0       -0.837779   -6.282314    0.150954
    164          1           0       -1.865301   -4.836837    0.064947
    165          1           0       -2.365091   -5.694826   -2.420423
    166          1           0       -1.297119   -7.039467   -2.049643
    167          7           0       -4.002995   -7.526390    2.193203
    168          6           0       -4.221043   -7.843819    3.594415
    169          1           0       -3.760443   -7.076598    4.216157
    170          1           0       -5.291258   -7.880019    3.796997
    171          1           0       -3.774782   -8.811899    3.822089
    172          1           0       -4.764436   -7.419432    1.546777
    173         20           0        1.842945   -2.928514   -3.137820
    174          8           0        3.274224   -4.736145   -4.466319
    175          1           0        3.334665   -5.603516   -4.054354
    176          1           0        3.641403   -4.861102   -5.338423
 ---------------------------------------------------------------------

 SCF Done:  E(RB3LYP) =  -5333.38310487     A.U. after   28 cycles

 The electronic state is 1-A.
 Alpha  occ. eigenvalues -- -145.41746 -19.18314 -19.16881 -19.14683 -19.14223
 Alpha  occ. eigenvalues --  -19.14179 -19.11525 -19.10933 -19.10290 -19.10129
 Alpha  occ. eigenvalues --  -19.09175 -19.09099 -19.08175 -19.08032 -19.06730
 Alpha  occ. eigenvalues --  -19.06231 -19.05979 -19.05683 -19.05590 -19.04987
 Alpha  occ. eigenvalues --  -19.04098 -19.02517 -18.96609 -18.95907 -15.47520
 Alpha  occ. eigenvalues --  -14.56795 -14.41095 -14.40653 -14.38295 -14.35909
 Alpha  occ. eigenvalues --  -14.35693 -14.35439 -14.35299 -14.35240 -14.34681
 Alpha  occ. eigenvalues --  -14.34243 -14.32642 -14.32446 -14.31606 -14.31101
 Alpha  occ. eigenvalues --  -12.61143 -12.61111 -12.61048 -10.34238 -10.33286
 Alpha  occ. eigenvalues --  -10.32920 -10.31046 -10.29905 -10.29620 -10.28429
 Alpha  occ. eigenvalues --  -10.28370 -10.27968 -10.27628 -10.27098 -10.26980
 Alpha  occ. eigenvalues --  -10.26907 -10.25834 -10.25744 -10.25741 -10.25555
 Alpha  occ. eigenvalues --  -10.25367 -10.25299 -10.25161 -10.24801 -10.24523
 Alpha  occ. eigenvalues --  -10.24167 -10.23255 -10.23148 -10.22978 -10.22793
 Alpha  occ. eigenvalues --  -10.22620 -10.22482 -10.22354 -10.22240 -10.21893
 Alpha  occ. eigenvalues --  -10.21419 -10.20491 -10.20208 -10.20052 -10.19838
 Alpha  occ. eigenvalues --  -10.19804 -10.19797 -10.19594 -10.19328 -10.18704
 Alpha  occ. eigenvalues --  -10.18625 -10.18477 -10.17279 -10.17024 -10.16769
 Alpha  occ. eigenvalues --  -10.16441 -10.16380 -10.16241 -10.16159 -10.14610
 Alpha  occ. eigenvalues --  -10.14596 -10.12357  -1.84062  -1.12362  -1.11579
 Alpha  occ. eigenvalues --   -1.11388  -1.10904  -1.07916  -1.07077  -1.05731
 Alpha  occ. eigenvalues --   -1.05182  -1.04240  -1.04049  -1.03352  -1.03092
 Alpha  occ. eigenvalues --   -1.02183  -1.02035  -1.01920  -1.01663  -1.01154
 Alpha  occ. eigenvalues --   -1.01022  -0.99442  -0.99243  -0.98992  -0.98322
 Alpha  occ. eigenvalues --   -0.98245  -0.98034  -0.95946  -0.94908  -0.93393
 Alpha  occ. eigenvalues --   -0.92495  -0.92416  -0.91749  -0.91368  -0.91121
 Alpha  occ. eigenvalues --   -0.91016  -0.90109  -0.89585  -0.89359  -0.89281
 Alpha  occ. eigenvalues --   -0.88562  -0.87846  -0.87718  -0.87433  -0.85743
 Alpha  occ. eigenvalues --   -0.83086  -0.81141  -0.81050  -0.80371  -0.79923
 Alpha  occ. eigenvalues --   -0.78606  -0.78351  -0.77618  -0.77160  -0.75692
 Alpha  occ. eigenvalues --   -0.75548  -0.75256  -0.74908  -0.74406  -0.73649
 Alpha  occ. eigenvalues --   -0.73494  -0.73120  -0.71231  -0.71046  -0.70653
 Alpha  occ. eigenvalues --   -0.70497  -0.69920  -0.69181  -0.67816  -0.67420
 Alpha  occ. eigenvalues --   -0.67112  -0.66018  -0.65747  -0.65323  -0.64713
 Alpha  occ. eigenvalues --   -0.64071  -0.63202  -0.63169  -0.63027  -0.62739
 Alpha  occ. eigenvalues --   -0.62221  -0.62084  -0.61206  -0.60837  -0.60384
 Alpha  occ. eigenvalues --   -0.59799  -0.59431  -0.59097  -0.58721  -0.58357
 Alpha  occ. eigenvalues --   -0.58164  -0.58014  -0.57413  -0.56838  -0.56430
 Alpha  occ. eigenvalues --   -0.55995  -0.55880  -0.55406  -0.55386  -0.55196
 Alpha  occ. eigenvalues --   -0.55040  -0.54894  -0.54693  -0.54520  -0.54286
 Alpha  occ. eigenvalues --   -0.54073  -0.53794  -0.53396  -0.52590  -0.52383
 Alpha  occ. eigenvalues --   -0.51923  -0.51588  -0.51507  -0.50874  -0.50458
 Alpha  occ. eigenvalues --   -0.50193  -0.50035  -0.49897  -0.49577  -0.48890
 Alpha  occ. eigenvalues --   -0.48689  -0.48504  -0.48449  -0.48138  -0.48068
 Alpha  occ. eigenvalues --   -0.47815  -0.47042  -0.46846  -0.46746  -0.46479
 Alpha  occ. eigenvalues --   -0.46239  -0.45965  -0.45896  -0.45782  -0.45682
 Alpha  occ. eigenvalues --   -0.45606  -0.45557  -0.45259  -0.45053  -0.44939
 Alpha  occ. eigenvalues --   -0.44758  -0.44671  -0.44333  -0.44087  -0.43991
 Alpha  occ. eigenvalues --   -0.43703  -0.43611  -0.43482  -0.43395  -0.43295
 Alpha  occ. eigenvalues --   -0.43059  -0.42654  -0.42626  -0.42337  -0.42236
 Alpha  occ. eigenvalues --   -0.42121  -0.42044  -0.41743  -0.41630  -0.41418
 Alpha  occ. eigenvalues --   -0.41367  -0.41200  -0.41174  -0.40983  -0.40907
 Alpha  occ. eigenvalues --   -0.40714  -0.40266  -0.40175  -0.40033  -0.39843
 Alpha  occ. eigenvalues --   -0.39702  -0.39548  -0.39464  -0.39395  -0.39153
 Alpha  occ. eigenvalues --   -0.39055  -0.39004  -0.38758  -0.38589  -0.38515
 Alpha  occ. eigenvalues --   -0.38348  -0.38131  -0.38124  -0.38065  -0.37942
 Alpha  occ. eigenvalues --   -0.37762  -0.37520  -0.37311  -0.37145  -0.36912
 Alpha  occ. eigenvalues --   -0.36805  -0.36621  -0.36504  -0.36486  -0.36336
 Alpha  occ. eigenvalues --   -0.36267  -0.35976  -0.35823  -0.35622  -0.35424
 Alpha  occ. eigenvalues --   -0.35384  -0.35231  -0.34923  -0.34892  -0.34656
 Alpha  occ. eigenvalues --   -0.34572  -0.34541  -0.34374  -0.34224  -0.33988
 Alpha  occ. eigenvalues --   -0.33720  -0.33590  -0.33255  -0.32894  -0.32483
 Alpha  occ. eigenvalues --   -0.32442  -0.32386  -0.31737  -0.31585  -0.31368
 Alpha  occ. eigenvalues --   -0.30974  -0.30737  -0.30601  -0.30156  -0.29606
 Alpha  occ. eigenvalues --   -0.29475  -0.28782  -0.28470  -0.27598  -0.27534
 Alpha  occ. eigenvalues --   -0.27224  -0.26885  -0.26735  -0.26680  -0.26533
 Alpha  occ. eigenvalues --   -0.26414  -0.26320  -0.26100  -0.25842  -0.25683
 Alpha  occ. eigenvalues --   -0.25542  -0.24599  -0.24562  -0.24334  -0.24292
 Alpha  occ. eigenvalues --   -0.23899  -0.23124  -0.23103  -0.23051  -0.22953
 Alpha  occ. eigenvalues --   -0.22870  -0.22441  -0.22139  -0.22094  -0.21449
 Alpha  occ. eigenvalues --   -0.21423  -0.20676  -0.20602  -0.20176  -0.18478
 Alpha  occ. eigenvalues --   -0.14263  -0.13428  -0.10836
 Alpha virt. eigenvalues --   -0.09843  -0.04390  -0.03637  -0.03366  -0.03257
 Alpha virt. eigenvalues --   -0.02729  -0.02664  -0.02444  -0.01041  -0.00757
 Alpha virt. eigenvalues --   -0.00616  -0.00173   0.00299   0.01041   0.01368

 Mulliken charges:
               1
     1  C    0.060843
     2  C    0.008777
     3  O   -0.311859
     4  H    0.041948
     5  H    0.011598
     6  H    0.020818
     7  N   -0.125330
     8  C    0.131025
     9  C    0.117013
    10  O   -0.302197
    11  C    0.060485
    12  C    0.027345
    13  O   -0.371505
    14  O   -0.357260
    15  H    0.102184
    16  H   -0.024113
    17  H    0.000008
    18  H    0.000345
    19  N   -0.103089
    20  C    0.101489
    21  C    0.050249
    22  O   -0.278027
    23  C    0.119481
    24  C   -0.027836
    25  C   -0.040985
    26  C    0.056209
    27  N    0.139862
    28  H    0.126076
    29  H   -0.008948
    30  H    0.013913
    31  H    0.020762
    32  H    0.002297
    33  H   -0.004181
    34  H    0.037453
    35  H    0.018241
    36  H    0.064340
    37  H    0.067151
    38  H    0.136384
    39  H    0.121896
    40  H    0.138182
    41  N   -0.102173
    42  C    0.151075
    43  C    0.083560
    44  O   -0.264849
    45  C    0.002755
    46  C    0.099023
    47  O   -0.394161
    48  O   -0.439434
    49  H    0.138336
    50  H   -0.036258
    51  H    0.023459
    52  H   -0.006937
    53  N   -0.096985
    54  C    0.205146
    55  C    0.086211
    56  O   -0.348150
    57  H    0.119899
    58  H    0.018838
    59  H    0.034312
    60  N   -0.141021
    61  C    0.074559
    62  C    0.103680
    63  O   -0.287177
    64  C    0.090484
    65  C    0.035674
    66  N   -0.007306
    67  O   -0.286702
    68  H    0.129175
    69  H    0.055641
    70  H    0.073217
    71  H    0.004831
    72  H    0.121677
    73  H    0.155139
    74  N   -0.125828
    75  C    0.225490
    76  C    0.032296
    77  O   -0.275910
    78  H    0.106434
    79  H   -0.001732
    80  H    0.042884
    81  N   -0.139865
    82  C    0.105868
    83  C    0.112402
    84  O   -0.312224
    85  C    0.170133
    86  C   -0.064737
    87  C    0.000804
    88  C    0.012863
    89  C   -0.036134
    90  C   -0.057726
    91  C    0.158910
    92  O   -0.189519
    93  H    0.123149
    94  H    0.005145
    95  H    0.012633
    96  H    0.005325
    97  H   -0.010384
    98  H   -0.033857
    99  H   -0.022128
   100  H   -0.038517
   101  H    0.170510
   102  N   -0.108388
   103  C    0.147140
   104  C    0.041937
   105  O   -0.274963
   106  C   -0.072161
   107  C    0.027859
   108  C    0.065204
   109  C    0.029770
   110  H    0.139407
   111  H    0.007852
   112  H   -0.025934
   113  H    0.013880
   114  H   -0.016467
   115  H   -0.004104
   116  H    0.002325
   117  H    0.005070
   118  H   -0.002478
   119  H    0.006486
   120  H    0.013706
   121  N   -0.139585
   122  C    0.111386
   123  C    0.101833
   124  O   -0.260369
   125  C    0.223526
   126  O   -0.316393
   127  H    0.142571
   128  H    0.010428
   129  H   -0.028559
   130  H    0.021972
   131  H    0.176067
   132  N   -0.160878
   133  C    0.061534
   134  C    0.048964
   135  O   -0.281439
   136  C    0.094711
   137  H    0.120476
   138  H    0.011676
   139  H    0.016799
   140  H   -0.018373
   141  H    0.033289
   142  N   -0.126534
   143  C    0.097901
   144  C    0.068325
   145  O   -0.262549
   146  C    0.068275
   147  H    0.138933
   148  H    0.002392
   149  H   -0.020548
   150  H    0.028974
   151  H    0.028960
   152  N   -0.135886
   153  C    0.108355
   154  C    0.060676
   155  O   -0.264925
   156  C    0.006499
   157  C    0.121032
   158  C    0.097462
   159  O   -0.453791
   160  O   -0.418985
   161  H    0.110506
   162  H    0.003154
   163  H    0.024295
   164  H    0.038038
   165  H   -0.032637
   166  H   -0.025165
   167  N   -0.146962
   168  C    0.148714
   169  H    0.035730
   170  H    0.011121
   171  H    0.022237
   172  H    0.094980
   173  Ca   1.317507
   174  O   -0.291859
   175  H    0.199672
   176  H    0.167462
 Sum of Mulliken charges =  -0.00000

 Dipole moment (field-independent basis, Debye):
    X=              9.8881    Y=            -11.1371    Z=            -27.8426  Tot=             31.5757
 Quadrupole moment (field-independent basis, Debye-Ang):
   XX=           -417.3957   YY=           -626.4771   ZZ=           -445.3834
   XY=           -299.4528   XZ=           -214.4082   YZ=              4.7260

 ESP charges:
               1
     1  C   -0.443590
     2  C    0.822316
     3  O   -0.654679
     4  H    0.129923
     5  H    0.099185
     6  H    0.114163
     7  N   -0.796727
     8  C    0.621532
     9  C    0.500642
    10  O   -0.608153
    11  C   -0.557530
    12  C    0.779404
    13  O   -0.708053
    14  O   -0.662903
    15  H    0.327228
    16  H   -0.034562
    17  H    0.111504
    18  H    0.129287
    19  N   -0.481676
    20  C    0.213827
    21  C    0.554797
    22  O   -0.597048
    23  C   -0.116406
    24  C   -0.239719
    25  C    0.153080
    26  C   -0.011972
    27  N   -0.153134
    28  H    0.274817
    29  H    0.031067
    30  H    0.035987
    31  H    0.104545
    32  H    0.075265
    33  H    0.052382
    34  H   -0.030416
    35  H   -0.017757
    36  H    0.069773
    37  H    0.084127
    38  H    0.242805
    39  H    0.214292
    40  H    0.240256
    41  N   -0.112988
    42  C   -0.260804
    43  C    0.592338
    44  O   -0.475617
    45  C   -0.286854
    46  C    0.846290
    47  O   -0.756295
    48  O   -0.750364
    49  H    0.266960
    50  H    0.071621
    51  H    0.082919
    52  H    0.075449
    53  N   -0.276218
    54  C   -0.288641
    55  C    0.686502
    56  O   -0.594986
    57  H    0.265902
    58  H    0.134385
    59  H    0.136521
    60  N   -0.660120
    61  C    0.132338
    62  C    0.552160
    63  O   -0.506992
    64  C   -0.414606
    65  C    0.763927
    66  N   -0.779680
    67  O   -0.588820
    68  H    0.329428
    69  H    0.101968
    70  H    0.155107
    71  H    0.142860
    72  H    0.353953
    73  H    0.400620
    74  N   -0.367232
    75  C   -0.248624
    76  C    0.821953
    77  O   -0.609393
    78  H    0.303947
    79  H    0.091004
    80  H    0.144120
    81  N   -0.855271
    82  C    0.413576
    83  C    0.219671
    84  O   -0.487276
    85  C   -0.234495
    86  C    0.167339
    87  C   -0.241819
    88  C   -0.131213
    89  C   -0.245561
    90  C   -0.367307
    91  C    0.397976
    92  O   -0.539940
    93  H    0.383620
    94  H    0.031137
    95  H    0.121818
    96  H    0.057397
    97  H    0.179976
    98  H    0.129486
    99  H    0.162076
   100  H    0.153026
   101  H    0.397113
   102  N   -0.305481
   103  C   -0.338538
   104  C    0.606048
   105  O   -0.514328
   106  C    0.405812
   107  C    0.078512
   108  C   -0.386790
   109  C   -0.314260
   110  H    0.304559
   111  H    0.109964
   112  H   -0.065302
   113  H    0.079967
   114  H   -0.017747
   115  H    0.085105
   116  H    0.087786
   117  H    0.091165
   118  H    0.052344
   119  H    0.075378
   120  H    0.085571
   121  N   -0.263635
   122  C   -0.273328
   123  C    0.525212
   124  O   -0.488833
   125  C    0.316636
   126  O   -0.614878
   127  H    0.306199
   128  H    0.147399
   129  H   -0.047583
   130  H    0.026246
   131  H    0.402485
   132  N   -0.346847
   133  C    0.091192
   134  C    0.619169
   135  O   -0.545594
   136  C   -0.361584
   137  H    0.249409
   138  H    0.073055
   139  H    0.105722
   140  H    0.082317
   141  H    0.125559
   142  N   -0.674099
   143  C    0.492078
   144  C    0.426556
   145  O   -0.460166
   146  C   -0.213218
   147  H    0.250185
   148  H   -0.047739
   149  H   -0.007852
   150  H    0.096910
   151  H    0.071044
   152  N   -0.487733
   153  C   -0.428830
   154  C    0.616087
   155  O   -0.522384
   156  C    0.357836
   157  C    0.118809
   158  C    0.522006
   159  O   -0.769935
   160  O   -0.688863
   161  H    0.314075
   162  H    0.160349
   163  H   -0.045471
   164  H    0.001787
   165  H   -0.039070
   166  H   -0.038348
   167  N   -0.309821
   168  C   -0.175963
   169  H    0.110152
   170  H    0.097816
   171  H    0.081205
   172  H    0.235413
   173  Ca   1.651377
   174  O   -0.858057
   175  H    0.438340
   176  H    0.424192
 Sum of ESP charges =  -0.00000

 Normal termination of Gaussian 16 at Tue Sep 17 10:18:28 2019.
