 Gaussian 16, Revision A.03,
 Gaussian 16:  ES64L-G16RevA.03 25-Dec-2016

 ----------------------------------------------------------------------
 #b3lyp/svp scf=(tight,noincore) Test #IOP(5/87=12) Density=Current Pop
 =(MK,readradii) iop(6/33=2) iop(6/42=6)
 ----------------------------------------------------------------------

 -----------------
 Ng-293_loop3_14.0
 -----------------
 Symbolic Z-matrix:
 Charge =  0 Multiplicity = 1

                         Standard orientation:
 ---------------------------------------------------------------------
 Center     Atomic      Atomic             Coordinates (Angstroms)
 Number     Number       Type             X           Y           Z
 ---------------------------------------------------------------------
      1          6           0        8.660015   -2.496078   -7.326924
      2          6           0        9.186306   -2.271433   -5.913541
      3          8           0       10.328259   -1.863288   -5.728445
      4          1           0        7.692874   -2.996047   -7.278414
      5          1           0        8.547512   -1.535713   -7.830689
      6          1           0        9.361934   -3.117767   -7.881985
      7          7           0        8.350293   -2.554461   -4.906477
      8          6           0        8.733545   -2.509920   -3.515494
      9          6           0        7.535385   -2.069657   -2.681058
     10          8           0        6.453986   -1.890238   -3.236021
     11          6           0        9.194710   -3.894697   -3.085124
     12          6           0        9.896354   -3.787644   -1.743321
     13          8           0       10.548106   -2.769739   -1.433341
     14          8           0        9.698356   -4.795753   -1.020678
     15          1           0        7.398175   -2.810494   -5.102738
     16          1           0        9.540031   -1.807243   -3.301893
     17          1           0       10.020132   -4.148677   -3.751438
     18          1           0        8.377558   -4.608805   -3.134240
     19          7           0        7.748234   -1.601886   -1.448627
     20          6           0        6.785804   -1.210001   -0.444807
     21          6           0        5.668416   -2.195599   -0.117025
     22          8           0        5.276571   -3.064481   -0.883119
     23          6           0        6.331345    0.217902   -0.764744
     24          6           0        7.242744    1.427443   -0.943804
     25          6           0        7.961436    1.903448    0.322609
     26          6           0        8.984731    3.012468    0.085456
     27          7           0       10.189798    2.490397   -0.590677
     28          1           0        8.666010   -1.704832   -1.048517
     29          1           0        7.352926   -1.013036    0.461658
     30          1           0        5.661947    0.415790    0.061602
     31          1           0        5.703582    0.212744   -1.665459
     32          1           0        6.686579    2.308735   -1.250567
     33          1           0        7.850832    1.123735   -1.791206
     34          1           0        8.456861    1.031530    0.754363
     35          1           0        7.225051    2.389835    0.957955
     36          1           0        9.231022    3.448315    1.048512
     37          1           0        8.565243    3.834247   -0.481649
     38          1           0       10.354401    1.571045   -0.187319
     39          1           0       10.121051    2.368590   -1.583016
     40          1           0       11.049006    2.981943   -0.395625
     41          7           0        5.138973   -1.967322    1.084674
     42          6           0        4.187973   -2.836670    1.759012
     43          6           0        2.762277   -2.654847    1.249373
     44          8           0        2.293445   -1.568010    0.937631
     45          6           0        4.316336   -2.671294    3.265887
     46          6           0        3.858619   -1.321351    3.807873
     47          8           0        3.918437   -0.269832    3.136434
     48          8           0        3.465651   -1.163348    4.984356
     49          1           0        5.375255   -1.074200    1.488535
     50          1           0        4.460281   -3.865146    1.494844
     51          1           0        5.320136   -2.945736    3.598254
     52          1           0        3.673152   -3.407437    3.751795
     53          7           0        2.139195   -3.763354    0.855314
     54          6           0        0.755796   -3.828914    0.435187
     55          6           0       -0.224561   -4.214676    1.538223
     56          8           0       -0.656773   -5.359118    1.642840
     57          1           0        2.631954   -4.645563    0.976123
     58          1           0        0.690543   -4.676364   -0.245013
     59          1           0        0.343334   -2.924302   -0.003507
     60          7           0       -0.745841   -3.266096    2.311439
     61          6           0       -1.667616   -3.420241    3.419171
     62          6           0       -3.059916   -3.606456    2.842956
     63          8           0       -3.799744   -2.630823    2.687084
     64          6           0       -1.498752   -2.259945    4.391075
     65          6           0       -0.101347   -2.229139    4.987826
     66          7           0        0.734690   -1.291083    4.530888
     67          8           0        0.355994   -3.081270    5.749214
     68          1           0       -0.510681   -2.349764    1.946561
     69          1           0       -1.392662   -4.337921    3.939233
     70          1           0       -2.229396   -2.439658    5.184776
     71          1           0       -1.746429   -1.301924    3.926045
     72          1           0        0.337927   -0.494670    4.058335
     73          1           0        1.743550   -1.331249    4.701732
     74          7           0       -3.495456   -4.822812    2.511319
     75          6           0       -4.829151   -5.149305    2.032509
     76          6           0       -5.308355   -4.417832    0.787113
     77          8           0       -4.708108   -4.540641   -0.281681
     78          1           0       -2.871154   -5.608928    2.640041
     79          1           0       -5.566105   -4.913806    2.804804
     80          1           0       -4.796521   -6.215810    1.778730
     81          7           0       -6.427563   -3.706518    0.960339
     82          6           0       -7.153272   -3.002431   -0.075569
     83          6           0       -6.489892   -1.800994   -0.721770
     84          8           0       -7.172106   -1.031583   -1.391016
     85          6           0       -7.598687   -4.069075   -1.088079
     86          6           0       -8.931255   -3.775692   -1.745642
     87          6           0       -8.962075   -3.237830   -3.038645
     88          6           0      -10.098242   -3.999208   -1.014286
     89          6           0      -10.230265   -2.942509   -3.551461
     90          6           0      -11.344489   -3.601414   -1.531325
     91          6           0      -11.433863   -3.076958   -2.838175
     92          8           0      -12.671849   -2.637924   -3.235085
     93          1           0       -6.860867   -3.771292    1.873111
     94          1           0       -8.096925   -2.669338    0.356945
     95          1           0       -7.607931   -5.073139   -0.683643
     96          1           0       -6.909782   -4.217197   -1.907878
     97          1           0       -8.116509   -3.008528   -3.665811
     98          1           0      -10.039815   -4.439427   -0.026413
     99          1           0      -10.148740   -2.336207   -4.446978
    100          1           0      -12.223088   -3.676963   -0.920542
    101          1           0      -13.361342   -2.941306   -2.647327
    102          7           0       -5.220635   -1.558759   -0.372760
    103          6           0       -4.402764   -0.429320   -0.779275
    104          6           0       -4.867690    0.944933   -0.324221
    105          8           0       -4.080080    1.659664    0.296932
    106          6           0       -4.193849   -0.579624   -2.275391
    107          6           0       -3.738808   -1.957453   -2.750182
    108          6           0       -3.255763    0.572856   -2.634817
    109          6           0       -2.352827   -2.400541   -2.274650
    110          1           0       -4.646116   -2.284166    0.023237
    111          1           0       -3.475324   -0.521659   -0.213654
    112          1           0       -5.108088   -0.376408   -2.852514
    113          1           0       -3.683573   -1.862673   -3.833725
    114          1           0       -4.464515   -2.740351   -2.548886
    115          1           0       -3.882361    1.453113   -2.693310
    116          1           0       -2.420893    0.737944   -1.963075
    117          1           0       -2.838377    0.534450   -3.647592
    118          1           0       -2.397265   -2.573044   -1.197632
    119          1           0       -2.032562   -3.327128   -2.753571
    120          1           0       -1.510784   -1.716788   -2.359172
    121          7           0       -6.131429    1.341938   -0.477676
    122          6           0       -6.702795    2.565118    0.068193
    123          6           0       -5.980491    3.884393   -0.182985
    124          8           0       -5.848464    4.686377    0.735487
    125          6           0       -8.137703    2.686888   -0.431017
    126          8           0       -8.178773    2.626943   -1.838575
    127          1           0       -6.761153    0.862732   -1.098973
    128          1           0       -6.834980    2.555038    1.149593
    129          1           0       -8.634773    3.561282   -0.006097
    130          1           0       -8.737109    1.872950   -0.018808
    131          1           0       -8.857706    1.969537   -2.043191
    132          7           0       -5.419634    4.130131   -1.369767
    133          6           0       -5.005899    5.443844   -1.820081
    134          6           0       -3.720805    5.943137   -1.165833
    135          8           0       -3.383496    7.120629   -1.269444
    136          6           0       -6.169949    6.421197   -1.794206
    137          1           0       -5.414425    3.366234   -2.024392
    138          1           0       -4.680479    5.423761   -2.866120
    139          1           0       -5.824308    7.385741   -2.167416
    140          1           0       -6.957261    6.118067   -2.490088
    141          1           0       -6.531158    6.502620   -0.771759
    142          7           0       -2.890848    5.094185   -0.546034
    143          6           0       -1.928987    5.508068    0.452778
    144          6           0       -0.548061    5.255381   -0.137298
    145          8           0       -0.230102    4.458321   -1.013482
    146          6           0       -2.229520    4.771996    1.750037
    147          1           0       -3.051353    4.104581   -0.671419
    148          1           0       -2.104538    6.559108    0.654266
    149          1           0       -2.109395    3.685991    1.643446
    150          1           0       -1.618801    4.998308    2.624282
    151          1           0       -3.262340    4.961836    2.055557
    152          7           0        0.358360    6.023787    0.485562
    153          6           0        1.764716    6.210239    0.193328
    154          6           0        2.209306    6.519342   -1.220318
    155          8           0        3.425526    6.496185   -1.430015
    156          6           0        2.577102    5.077561    0.822669
    157          6           0        2.064304    4.844754    2.241449
    158          6           0        2.946660    3.963373    3.104359
    159          8           0        3.765491    3.105108    2.682578
    160          8           0        2.866411    4.088410    4.348073
    161          1           0        0.026741    6.523415    1.295808
    162          1           0        1.990632    7.149428    0.690304
    163          1           0        3.597678    5.468478    0.858867
    164          1           0        2.543840    4.111115    0.310149
    165          1           0        1.058685    4.437895    2.251317
    166          1           0        2.105466    5.848316    2.677418
    167          7           0        1.320219    6.785285   -2.181150
    168          6           0        1.624908    6.774622   -3.603595
    169          1           0        2.698609    6.649615   -3.743222
    170          1           0        1.097710    5.949182   -4.082778
    171          1           0        1.307855    7.716832   -4.050269
    172          1           0        0.392611    6.459583   -1.951446
    173         20           0        4.236261    1.542657    4.984669
    174          8           0        1.608082    1.383799    5.209925
    175          1           0        1.152190    1.597202    4.396340
    176          1           0        0.957622    1.516259    5.896770
 ---------------------------------------------------------------------

 SCF Done:  E(RB3LYP) =  -5333.35396402     A.U. after   35 cycles

 The electronic state is 1-A.
 Alpha  occ. eigenvalues -- -145.48237 -19.19534 -19.16486 -19.15045 -19.11311
 Alpha  occ. eigenvalues --  -19.11281 -19.10703 -19.10007 -19.09766 -19.09674
 Alpha  occ. eigenvalues --  -19.09443 -19.09428 -19.08932 -19.08497 -19.08207
 Alpha  occ. eigenvalues --  -19.08017 -19.07727 -19.07649 -19.06956 -19.06595
 Alpha  occ. eigenvalues --  -19.05813 -19.04320 -18.99655 -18.98739 -15.54118
 Alpha  occ. eigenvalues --  -14.57360 -14.37644 -14.36915 -14.36167 -14.35818
 Alpha  occ. eigenvalues --  -14.35695 -14.35239 -14.35160 -14.34980 -14.34266
 Alpha  occ. eigenvalues --  -14.33949 -14.33064 -14.32638 -14.32265 -14.30406
 Alpha  occ. eigenvalues --  -12.67709 -12.67690 -12.67648 -10.34351 -10.30028
 Alpha  occ. eigenvalues --  -10.29869 -10.29322 -10.29028 -10.28510 -10.28279
 Alpha  occ. eigenvalues --  -10.28089 -10.27768 -10.27320 -10.27243 -10.27136
 Alpha  occ. eigenvalues --  -10.27062 -10.27025 -10.26665 -10.25932 -10.25711
 Alpha  occ. eigenvalues --  -10.25173 -10.25083 -10.24987 -10.24863 -10.24626
 Alpha  occ. eigenvalues --  -10.23882 -10.23742 -10.23339 -10.23336 -10.23229
 Alpha  occ. eigenvalues --  -10.23212 -10.23123 -10.23089 -10.22994 -10.22784
 Alpha  occ. eigenvalues --  -10.20964 -10.20640 -10.20504 -10.19680 -10.19552
 Alpha  occ. eigenvalues --  -10.19493 -10.19362 -10.19235 -10.19204 -10.18975
 Alpha  occ. eigenvalues --  -10.18959 -10.18374 -10.18135 -10.17939 -10.17689
 Alpha  occ. eigenvalues --  -10.17622 -10.17295 -10.17093 -10.16886 -10.16849
 Alpha  occ. eigenvalues --  -10.15866 -10.11620  -1.90715  -1.18118  -1.17876
 Alpha  occ. eigenvalues --   -1.17582  -1.12618  -1.05689  -1.05513  -1.04992
 Alpha  occ. eigenvalues --   -1.04849  -1.04265  -1.03756  -1.03544  -1.03006
 Alpha  occ. eigenvalues --   -1.02964  -1.02598  -1.02241  -1.02080  -1.01624
 Alpha  occ. eigenvalues --   -1.01151  -1.00943  -1.00690  -1.00543  -0.99223
 Alpha  occ. eigenvalues --   -0.97332  -0.94710  -0.93635  -0.93335  -0.93144
 Alpha  occ. eigenvalues --   -0.92933  -0.92703  -0.92660  -0.92053  -0.91547
 Alpha  occ. eigenvalues --   -0.91472  -0.91340  -0.90299  -0.90262  -0.89972
 Alpha  occ. eigenvalues --   -0.89955  -0.88157  -0.87708  -0.87082  -0.85365
 Alpha  occ. eigenvalues --   -0.84018  -0.81538  -0.81088  -0.80185  -0.79622
 Alpha  occ. eigenvalues --   -0.79466  -0.79066  -0.78012  -0.76191  -0.75706
 Alpha  occ. eigenvalues --   -0.75454  -0.74930  -0.74699  -0.73921  -0.73763
 Alpha  occ. eigenvalues --   -0.72943  -0.72609  -0.72532  -0.71853  -0.71115
 Alpha  occ. eigenvalues --   -0.70139  -0.69265  -0.68921  -0.68522  -0.68182
 Alpha  occ. eigenvalues --   -0.66747  -0.66320  -0.66238  -0.65082  -0.64115
 Alpha  occ. eigenvalues --   -0.63643  -0.62688  -0.62630  -0.62236  -0.61520
 Alpha  occ. eigenvalues --   -0.61163  -0.60932  -0.60688  -0.60209  -0.59628
 Alpha  occ. eigenvalues --   -0.59444  -0.59123  -0.59024  -0.58805  -0.58799
 Alpha  occ. eigenvalues --   -0.58071  -0.58054  -0.57542  -0.56595  -0.56273
 Alpha  occ. eigenvalues --   -0.56148  -0.55926  -0.55804  -0.55661  -0.55375
 Alpha  occ. eigenvalues --   -0.55164  -0.54646  -0.54409  -0.53829  -0.53758
 Alpha  occ. eigenvalues --   -0.53607  -0.53300  -0.53026  -0.52712  -0.51978
 Alpha  occ. eigenvalues --   -0.51716  -0.51434  -0.50960  -0.50782  -0.50386
 Alpha  occ. eigenvalues --   -0.50251  -0.49753  -0.49519  -0.49011  -0.48848
 Alpha  occ. eigenvalues --   -0.48756  -0.48262  -0.48177  -0.47859  -0.47717
 Alpha  occ. eigenvalues --   -0.47368  -0.46955  -0.46878  -0.46757  -0.46716
 Alpha  occ. eigenvalues --   -0.46447  -0.46245  -0.46061  -0.45936  -0.45485
 Alpha  occ. eigenvalues --   -0.45144  -0.45061  -0.44912  -0.44847  -0.44689
 Alpha  occ. eigenvalues --   -0.44562  -0.44445  -0.44372  -0.44179  -0.43854
 Alpha  occ. eigenvalues --   -0.43767  -0.43450  -0.43260  -0.43153  -0.43045
 Alpha  occ. eigenvalues --   -0.42889  -0.42797  -0.42732  -0.42625  -0.42532
 Alpha  occ. eigenvalues --   -0.42214  -0.42021  -0.41828  -0.41781  -0.41599
 Alpha  occ. eigenvalues --   -0.41464  -0.41266  -0.41203  -0.41174  -0.40893
 Alpha  occ. eigenvalues --   -0.40753  -0.40633  -0.40577  -0.40374  -0.40048
 Alpha  occ. eigenvalues --   -0.39924  -0.39819  -0.39713  -0.39565  -0.39455
 Alpha  occ. eigenvalues --   -0.39367  -0.39218  -0.39104  -0.39076  -0.39042
 Alpha  occ. eigenvalues --   -0.38959  -0.38565  -0.38270  -0.38245  -0.38060
 Alpha  occ. eigenvalues --   -0.37984  -0.37949  -0.37810  -0.37687  -0.37637
 Alpha  occ. eigenvalues --   -0.37517  -0.37170  -0.37129  -0.36874  -0.36806
 Alpha  occ. eigenvalues --   -0.36565  -0.36379  -0.36342  -0.36280  -0.36061
 Alpha  occ. eigenvalues --   -0.35924  -0.35760  -0.35497  -0.35203  -0.35184
 Alpha  occ. eigenvalues --   -0.35150  -0.34846  -0.34837  -0.34518  -0.34339
 Alpha  occ. eigenvalues --   -0.34198  -0.34113  -0.33459  -0.33432  -0.33406
 Alpha  occ. eigenvalues --   -0.33360  -0.33110  -0.32651  -0.32473  -0.32057
 Alpha  occ. eigenvalues --   -0.31737  -0.29589  -0.29499  -0.29390  -0.29093
 Alpha  occ. eigenvalues --   -0.28703  -0.28510  -0.28378  -0.27627  -0.27560
 Alpha  occ. eigenvalues --   -0.27125  -0.27037  -0.26975  -0.26800  -0.26694
 Alpha  occ. eigenvalues --   -0.26186  -0.26131  -0.26028  -0.25823  -0.25705
 Alpha  occ. eigenvalues --   -0.25583  -0.25044  -0.24763  -0.24737  -0.24603
 Alpha  occ. eigenvalues --   -0.24445  -0.24287  -0.24061  -0.23979  -0.23809
 Alpha  occ. eigenvalues --   -0.23706  -0.23549  -0.23181  -0.22878  -0.22759
 Alpha  occ. eigenvalues --   -0.22569  -0.21415  -0.21339  -0.21201  -0.20268
 Alpha  occ. eigenvalues --   -0.16905  -0.15985  -0.13738
 Alpha virt. eigenvalues --   -0.12709  -0.08854  -0.03438  -0.03272  -0.02246
 Alpha virt. eigenvalues --   -0.01574  -0.01260  -0.01152  -0.00375   0.00198
 Alpha virt. eigenvalues --    0.00235   0.00477   0.00745   0.01193   0.01418

 Mulliken charges:
               1
     1  C    0.070244
     2  C    0.006861
     3  O   -0.307240
     4  H   -0.011413
     5  H    0.023974
     6  H    0.030806
     7  N   -0.107246
     8  C    0.043864
     9  C    0.094577
    10  O   -0.286852
    11  C    0.138634
    12  C    0.036050
    13  O   -0.409402
    14  O   -0.341140
    15  H    0.114403
    16  H   -0.008468
    17  H    0.008527
    18  H   -0.015822
    19  N   -0.125095
    20  C    0.073751
    21  C    0.115012
    22  O   -0.226117
    23  C    0.046185
    24  C    0.012176
    25  C   -0.065557
    26  C    0.053034
    27  N    0.076392
    28  H    0.100068
    29  H   -0.034340
    30  H   -0.006674
    31  H    0.040020
    32  H    0.024315
    33  H    0.003202
    34  H    0.027587
    35  H    0.062104
    36  H    0.062047
    37  H    0.073226
    38  H    0.193284
    39  H    0.201103
    40  H    0.186073
    41  N   -0.132391
    42  C    0.130323
    43  C    0.068023
    44  O   -0.265591
    45  C    0.082117
    46  C    0.073527
    47  O   -0.396522
    48  O   -0.416859
    49  H    0.111294
    50  H    0.002514
    51  H    0.035603
    52  H    0.023084
    53  N   -0.128024
    54  C    0.253254
    55  C   -0.008324
    56  O   -0.291770
    57  H    0.130024
    58  H    0.019162
    59  H    0.034856
    60  N   -0.130784
    61  C    0.107620
    62  C    0.079339
    63  O   -0.304928
    64  C    0.118540
    65  C   -0.007364
    66  N   -0.072488
    67  O   -0.273696
    68  H    0.121735
    69  H    0.018790
    70  H    0.012537
    71  H    0.000490
    72  H    0.077527
    73  H    0.151710
    74  N   -0.102744
    75  C    0.247655
    76  C    0.025219
    77  O   -0.283924
    78  H    0.134578
    79  H   -0.015451
    80  H    0.032625
    81  N   -0.118378
    82  C    0.118768
    83  C    0.113923
    84  O   -0.303653
    85  C    0.134647
    86  C   -0.054268
    87  C    0.026770
    88  C    0.013201
    89  C   -0.065002
    90  C   -0.055817
    91  C    0.211085
    92  O   -0.200116
    93  H    0.125042
    94  H    0.013911
    95  H   -0.002886
    96  H    0.002640
    97  H   -0.023504
    98  H   -0.042054
    99  H   -0.018508
   100  H   -0.050863
   101  H    0.173924
   102  N   -0.114079
   103  C    0.155291
   104  C    0.045647
   105  O   -0.278295
   106  C   -0.130247
   107  C    0.055422
   108  C    0.089708
   109  C   -0.006062
   110  H    0.151702
   111  H    0.007651
   112  H    0.006036
   113  H   -0.009517
   114  H    0.011889
   115  H   -0.023664
   116  H    0.028365
   117  H   -0.003449
   118  H   -0.011717
   119  H    0.017300
   120  H    0.013125
   121  N   -0.100053
   122  C    0.141466
   123  C    0.058539
   124  O   -0.269066
   125  C    0.174140
   126  O   -0.312123
   127  H    0.117317
   128  H    0.002721
   129  H    0.013320
   130  H    0.004169
   131  H    0.183137
   132  N   -0.125419
   133  C    0.068225
   134  C    0.055569
   135  O   -0.292339
   136  C    0.058322
   137  H    0.122434
   138  H    0.021829
   139  H    0.021173
   140  H    0.003441
   141  H    0.035684
   142  N   -0.117888
   143  C    0.059044
   144  C    0.086050
   145  O   -0.268964
   146  C    0.045615
   147  H    0.125468
   148  H    0.018173
   149  H    0.019217
   150  H   -0.006938
   151  H    0.048763
   152  N   -0.146006
   153  C    0.094694
   154  C    0.054563
   155  O   -0.301757
   156  C    0.063514
   157  C    0.049589
   158  C    0.079536
   159  O   -0.418597
   160  O   -0.417033
   161  H    0.120531
   162  H    0.009091
   163  H    0.000826
   164  H    0.026699
   165  H    0.016398
   166  H   -0.011227
   167  N   -0.124688
   168  C    0.119820
   169  H    0.035460
   170  H    0.029393
   171  H    0.021835
   172  H    0.122542
   173  Ca   1.256312
   174  O   -0.289970
   175  H    0.200075
   176  H    0.179965
 Sum of Mulliken charges =  -0.00000

 Dipole moment (field-independent basis, Debye):
    X=             -1.6790    Y=             15.3520    Z=             15.3600  Tot=             21.7815
 Quadrupole moment (field-independent basis, Debye-Ang):
   XX=           -446.2719   YY=           -630.9112   ZZ=           -534.5666
   XY=            262.8001   XZ=             96.7218   YZ=             -4.8005

 ESP charges:
               1
     1  C   -0.441960
     2  C    0.744770
     3  O   -0.599115
     4  H    0.097764
     5  H    0.111333
     6  H    0.124437
     7  N   -0.737982
     8  C    0.451460
     9  C    0.533699
    10  O   -0.536173
    11  C   -0.347865
    12  C    0.757573
    13  O   -0.725761
    14  O   -0.654174
    15  H    0.336845
    16  H   -0.041697
    17  H    0.101235
    18  H    0.080153
    19  N   -0.640153
    20  C    0.297367
    21  C    0.553077
    22  O   -0.485693
    23  C   -0.003433
    24  C    0.207300
    25  C   -0.374265
    26  C    0.209907
    27  N   -0.543904
    28  H    0.275183
    29  H   -0.031554
    30  H   -0.033215
    31  H    0.036411
    32  H   -0.010447
    33  H   -0.045606
    34  H    0.094454
    35  H    0.149062
    36  H    0.041975
    37  H    0.080058
    38  H    0.380668
    39  H    0.384579
    40  H    0.366805
    41  N   -0.473720
    42  C    0.043652
    43  C    0.545421
    44  O   -0.493097
    45  C   -0.396128
    46  C    0.691686
    47  O   -0.616304
    48  O   -0.740341
    49  H    0.233267
    50  H    0.089986
    51  H    0.150758
    52  H    0.131921
    53  N   -0.373353
    54  C   -0.078662
    55  C    0.466693
    56  O   -0.539575
    57  H    0.280672
    58  H    0.099963
    59  H    0.097301
    60  N   -0.288378
    61  C    0.097723
    62  C    0.522128
    63  O   -0.518657
    64  C   -0.429339
    65  C    0.756215
    66  N   -0.969315
    67  O   -0.573054
    68  H    0.239840
    69  H    0.059668
    70  H    0.130453
    71  H    0.116289
    72  H    0.374827
    73  H    0.498385
    74  N   -0.342036
    75  C   -0.259704
    76  C    0.670593
    77  O   -0.532905
    78  H    0.298214
    79  H    0.088556
    80  H    0.156990
    81  N   -0.780920
    82  C    0.416739
    83  C    0.349491
    84  O   -0.498214
    85  C   -0.113530
    86  C   -0.072208
    87  C   -0.069513
    88  C   -0.051611
    89  C   -0.320227
    90  C   -0.375588
    91  C    0.445217
    92  O   -0.564032
    93  H    0.381957
    94  H    0.022660
    95  H    0.068308
    96  H    0.079510
    97  H    0.130169
    98  H    0.101558
    99  H    0.163198
   100  H    0.152385
   101  H    0.408310
   102  N   -0.504592
   103  C   -0.136824
   104  C    0.659576
   105  O   -0.599663
   106  C    0.217035
   107  C    0.081988
   108  C   -0.325607
   109  C   -0.159126
   110  H    0.397778
   111  H    0.114981
   112  H    0.003392
   113  H   -0.021367
   114  H   -0.000954
   115  H    0.063776
   116  H    0.092449
   117  H    0.070988
   118  H   -0.009974
   119  H    0.052426
   120  H    0.051798
   121  N   -0.244158
   122  C   -0.137151
   123  C    0.623566
   124  O   -0.570144
   125  C    0.221298
   126  O   -0.638262
   127  H    0.196456
   128  H    0.079006
   129  H    0.027576
   130  H    0.015561
   131  H    0.428154
   132  N   -0.331781
   133  C    0.192993
   134  C    0.685578
   135  O   -0.595470
   136  C   -0.270194
   137  H    0.203021
   138  H    0.028683
   139  H    0.066145
   140  H    0.073527
   141  H    0.087217
   142  N   -0.745024
   143  C    0.390449
   144  C    0.555896
   145  O   -0.474343
   146  C   -0.215555
   147  H    0.259328
   148  H    0.022347
   149  H    0.091545
   150  H    0.004232
   151  H    0.102209
   152  N   -0.726186
   153  C   -0.009485
   154  C    0.494713
   155  O   -0.535140
   156  C    0.206158
   157  C   -0.111500
   158  C    0.816412
   159  O   -0.791544
   160  O   -0.820441
   161  H    0.330388
   162  H    0.107397
   163  H   -0.050333
   164  H    0.003350
   165  H    0.039398
   166  H    0.026609
   167  N   -0.389460
   168  C    0.071761
   169  H    0.050096
   170  H    0.037640
   171  H    0.019220
   172  H    0.283739
   173  Ca   1.431764
   174  O   -0.660961
   175  H    0.360448
   176  H    0.381760
 Sum of ESP charges =   0.00000

 Normal termination of Gaussian 16 at Tue Sep 17 00:06:24 2019.
