 Gaussian 16, Revision A.03,
 Gaussian 16:  ES64L-G16RevA.03 25-Dec-2016

 ----------------------------------------------------------------------
 #b3lyp/svp scf=(tight,noincore) Test #IOP(5/87=12) Density=Current Pop
 =(MK,readradii) iop(6/33=2) iop(6/42=6)
 ----------------------------------------------------------------------

 -----------------
 Ng-295_loop3_33.0
 -----------------
 Symbolic Z-matrix:
 Charge =  0 Multiplicity = 1

                         Standard orientation:
 ---------------------------------------------------------------------
 Center     Atomic      Atomic             Coordinates (Angstroms)
 Number     Number       Type             X           Y           Z
 ---------------------------------------------------------------------
      1          6           0      -10.410720    4.603216    4.277638
      2          6           0      -10.041077    3.803938    3.035696
      3          8           0      -10.232700    4.310229    1.931137
      4          1           0       -9.616540    4.510950    5.018662
      5          1           0      -10.537884    5.652227    4.011172
      6          1           0      -11.341867    4.218858    4.694458
      7          7           0       -9.388422    2.650951    3.175562
      8          6           0       -8.859578    1.904575    2.055095
      9          6           0       -9.925496    0.988809    1.482478
     10          8           0      -10.200157   -0.124903    1.924075
     11          6           0       -7.581564    1.205315    2.508104
     12          6           0       -6.914274    0.535476    1.310340
     13          8           0       -5.709129    0.204717    1.335334
     14          8           0       -7.529860    0.533049    0.224777
     15          1           0       -9.237065    2.209752    4.082278
     16          1           0       -8.533358    2.629695    1.306842
     17          1           0       -7.860392    0.449768    3.241251
     18          1           0       -6.913096    1.939273    2.954710
     19          7           0      -10.548400    1.501141    0.416126
     20          6           0      -11.685564    0.864619   -0.227533
     21          6           0      -11.369197   -0.336995   -1.104252
     22          8           0      -12.255197   -1.132991   -1.413270
     23          6           0      -12.359888    1.882474   -1.142879
     24          6           0      -12.689539    3.222715   -0.487758
     25          6           0      -13.809817    3.958946   -1.215453
     26          6           0      -14.379131    5.222935   -0.576068
     27          7           0      -15.313589    4.901292    0.503022
     28          1           0      -10.162319    2.354626    0.040618
     29          1           0      -12.396655    0.358631    0.420947
     30          1           0      -13.317741    1.502162   -1.488539
     31          1           0      -11.726891    2.131965   -1.996325
     32          1           0      -11.826706    3.887889   -0.424807
     33          1           0      -12.978442    2.871516    0.504812
     34          1           0      -14.478903    3.264529   -1.717160
     35          1           0      -13.243952    4.247497   -2.100007
     36          1           0      -14.923859    5.810754   -1.324159
     37          1           0      -13.572263    5.770203   -0.087129
     38          1           0      -16.151773    4.584749    0.040260
     39          1           0      -14.999429    4.138578    1.091895
     40          1           0      -15.574238    5.737356    0.993387
     41          7           0      -10.115432   -0.582621   -1.488756
     42          6           0       -9.577342   -1.762181   -2.137984
     43          6           0       -8.876885   -2.637593   -1.109824
     44          8           0       -8.985000   -3.852194   -1.279687
     45          6           0       -8.579388   -1.458073   -3.253962
     46          6           0       -7.377603   -0.611942   -2.856248
     47          8           0       -7.390895    0.642831   -2.830421
     48          8           0       -6.327095   -1.142664   -2.430377
     49          1           0       -9.457998    0.133691   -1.239804
     50          1           0      -10.350829   -2.403855   -2.557116
     51          1           0       -9.058860   -0.922304   -4.076433
     52          1           0       -8.278588   -2.406734   -3.689464
     53          7           0       -8.223320   -2.099746   -0.083289
     54          6           0       -7.565119   -2.846187    0.976191
     55          6           0       -6.074450   -3.125972    0.847635
     56          8           0       -5.515463   -3.839107    1.674419
     57          1           0       -8.187431   -1.097321   -0.142913
     58          1           0       -8.009416   -3.847869    1.037297
     59          1           0       -7.700269   -2.359904    1.949157
     60          7           0       -5.421021   -2.911020   -0.295793
     61          6           0       -4.017969   -3.185790   -0.550438
     62          6           0       -3.175782   -2.006079   -0.092613
     63          8           0       -3.587592   -0.862318   -0.252688
     64          6           0       -3.759417   -3.484582   -2.023623
     65          6           0       -2.285950   -3.581246   -2.396251
     66          7           0       -1.527779   -4.407979   -1.682255
     67          8           0       -1.781458   -2.778713   -3.178062
     68          1           0       -5.966441   -2.359481   -0.946502
     69          1           0       -3.709971   -4.066756    0.018981
     70          1           0       -4.257694   -2.711988   -2.614231
     71          1           0       -4.224291   -4.436201   -2.260292
     72          1           0       -1.975867   -5.158573   -1.172327
     73          1           0       -0.526666   -4.392921   -1.782487
     74          7           0       -1.998928   -2.282738    0.476047
     75          6           0       -1.123245   -1.212116    0.907844
     76          6           0        0.358989   -1.523304    1.034518
     77          8           0        1.033924   -0.562450    1.395240
     78          1           0       -1.671463   -3.239031    0.510258
     79          1           0       -1.442766   -0.880389    1.891746
     80          1           0       -1.055095   -0.364075    0.234359
     81          7           0        0.825806   -2.784589    1.027973
     82          6           0        2.173628   -3.169300    1.397398
     83          6           0        3.187836   -2.576281    0.432303
     84          8           0        2.925933   -2.547085   -0.772461
     85          6           0        2.273642   -4.685597    1.515045
     86          6           0        3.576594   -5.253837    2.027314
     87          6           0        4.674606   -5.405672    1.183740
     88          6           0        3.724484   -5.557422    3.393976
     89          6           0        5.869510   -5.996546    1.621087
     90          6           0        4.906815   -6.133316    3.867620
     91          6           0        5.996800   -6.319494    2.988604
     92          8           0        7.177486   -6.875556    3.403905
     93          1           0        0.236992   -3.516794    0.668845
     94          1           0        2.469223   -2.830527    2.390351
     95          1           0        2.164051   -4.986548    0.480000
     96          1           0        1.482459   -5.065182    2.160758
     97          1           0        4.683957   -5.172711    0.134864
     98          1           0        2.886261   -5.472518    4.068641
     99          1           0        6.702702   -6.229388    0.983689
    100          1           0        4.921595   -6.319043    4.930158
    101          1           0        7.193085   -6.942784    4.362726
    102          7           0        4.230206   -1.975804    1.016675
    103          6           0        5.338130   -1.248467    0.439106
    104          6           0        6.073170   -1.996907   -0.672449
    105          8           0        5.709909   -3.048651   -1.196259
    106          6           0        4.969671    0.180872    0.071507
    107          6           0        4.245445    0.948848    1.184256
    108          6           0        4.098069    0.278595   -1.171618
    109          6           0        4.976835    1.128121    2.515207
    110          1           0        4.363860   -2.084648    2.006013
    111          1           0        6.095306   -1.131456    1.215117
    112          1           0        5.827276    0.831610   -0.084549
    113          1           0        3.339716    0.382760    1.396154
    114          1           0        4.091139    1.953436    0.801644
    115          1           0        3.052884    0.066895   -0.972444
    116          1           0        4.012897    1.339333   -1.423970
    117          1           0        4.503863   -0.283401   -2.016835
    118          1           0        4.319163    1.681697    3.182980
    119          1           0        5.343718    0.175643    2.883831
    120          1           0        5.786996    1.802891    2.228110
    121          7           0        7.304394   -1.518869   -0.884030
    122          6           0        8.357640   -1.965815   -1.770095
    123          6           0        9.774784   -1.498300   -1.483155
    124          8           0       10.684755   -1.949494   -2.174658
    125          6           0        8.034415   -1.540618   -3.203599
    126          8           0        7.907471   -0.153650   -3.390158
    127          1           0        7.542388   -0.695083   -0.353620
    128          1           0        8.352860   -3.037987   -1.604793
    129          1           0        7.049015   -1.948529   -3.434457
    130          1           0        8.780009   -1.990563   -3.850622
    131          1           0        7.541553   -0.081888   -4.265575
    132          7           0       10.064475   -0.697422   -0.459791
    133          6           0       11.360356   -0.267447    0.032054
    134          6           0       12.374490    0.187563   -1.019373
    135          8           0       13.455626   -0.380810   -1.176207
    136          6           0       11.880297   -1.445205    0.857976
    137          1           0        9.303480   -0.189375   -0.037684
    138          1           0       11.220485    0.533274    0.760671
    139          1           0       12.074968   -2.202471    0.094595
    140          1           0       12.847977   -1.155571    1.258235
    141          1           0       11.167428   -1.632371    1.666300
    142          7           0       12.154604    1.233298   -1.816360
    143          6           0       11.153818    2.255625   -1.606894
    144          6           0       11.859479    3.572829   -1.324730
    145          8           0       13.050653    3.698148   -1.600231
    146          6           0       10.202165    2.389247   -2.796139
    147          1           0       12.686078    1.374430   -2.657500
    148          1           0       10.630410    2.058331   -0.673663
    149          1           0        9.409415    3.131797   -2.740772
    150          1           0       10.810066    2.612904   -3.669656
    151          1           0        9.834912    1.368362   -2.951124
    152          7           0       11.211263    4.558723   -0.697093
    153          6           0        9.914316    4.510485   -0.054754
    154          6           0       10.074924    4.052021    1.385738
    155          8           0        9.337267    3.150540    1.794263
    156          6           0        9.282630    5.894777   -0.065166
    157          6           0        7.869901    5.863495    0.510786
    158          6           0        6.944035    7.042922    0.235065
    159          8           0        7.323202    7.992308   -0.474442
    160          8           0        5.947407    7.123999    0.983168
    161          1           0       11.838721    5.315095   -0.497096
    162          1           0        9.205635    3.848015   -0.553055
    163          1           0        9.124868    6.088001   -1.127981
    164          1           0        9.898005    6.606557    0.471381
    165          1           0        7.847590    5.717877    1.588003
    166          1           0        7.305414    4.982832    0.182779
    167          7           0       10.994146    4.567255    2.218843
    168          6           0       11.056820    4.388431    3.656026
    169          1           0       11.956532    4.868554    4.042566
    170          1           0       10.178333    4.839343    4.117215
    171          1           0       11.084816    3.323644    3.889417
    172          1           0       11.667413    5.229764    1.864592
    173         20           0       -5.162672    0.999935   -1.197896
    174          8           0       -4.946969    2.762688   -3.098626
    175          1           0       -4.218543    2.786566   -3.721221
    176          1           0       -5.441276    3.559375   -3.281798
 ---------------------------------------------------------------------

 SCF Done:  E(RB3LYP) =  -5333.34994252     A.U. after   98 cycles

 The electronic state is 1-A.
 Alpha  occ. eigenvalues -- -145.47383 -19.24857 -19.16233 -19.14680 -19.13363
 Alpha  occ. eigenvalues --  -19.12568 -19.12100 -19.11033 -19.10909 -19.10868
 Alpha  occ. eigenvalues --  -19.10072 -19.09316 -19.08716 -19.08529 -19.08439
 Alpha  occ. eigenvalues --  -19.08367 -19.07877 -19.07292 -19.07052 -19.06613
 Alpha  occ. eigenvalues --  -19.06163 -19.05317 -18.96799 -18.96364 -15.53198
 Alpha  occ. eigenvalues --  -14.56610 -14.39611 -14.39396 -14.38366 -14.37945
 Alpha  occ. eigenvalues --  -14.37851 -14.35323 -14.35268 -14.34921 -14.34649
 Alpha  occ. eigenvalues --  -14.33475 -14.33351 -14.33166 -14.32549 -14.31439
 Alpha  occ. eigenvalues --  -12.66816 -12.66780 -12.66724 -10.35478 -10.32419
 Alpha  occ. eigenvalues --  -10.32056 -10.30623 -10.30352 -10.30182 -10.30061
 Alpha  occ. eigenvalues --  -10.28513 -10.28078 -10.27758 -10.27599 -10.27590
 Alpha  occ. eigenvalues --  -10.27434 -10.26584 -10.26382 -10.26005 -10.25944
 Alpha  occ. eigenvalues --  -10.25383 -10.25358 -10.25292 -10.25269 -10.25082
 Alpha  occ. eigenvalues --  -10.25078 -10.24844 -10.24169 -10.24022 -10.23241
 Alpha  occ. eigenvalues --  -10.23203 -10.22952 -10.22759 -10.22077 -10.21908
 Alpha  occ. eigenvalues --  -10.21777 -10.21768 -10.20957 -10.20764 -10.20643
 Alpha  occ. eigenvalues --  -10.20467 -10.20277 -10.19693 -10.19569 -10.19300
 Alpha  occ. eigenvalues --  -10.19218 -10.18741 -10.18485 -10.17371 -10.16092
 Alpha  occ. eigenvalues --  -10.15811 -10.15478 -10.15324 -10.15050 -10.14637
 Alpha  occ. eigenvalues --  -10.14130 -10.10474  -1.89787  -1.17327  -1.16984
 Alpha  occ. eigenvalues --   -1.16699  -1.12909  -1.10681  -1.07164  -1.06673
 Alpha  occ. eigenvalues --   -1.06201  -1.04880  -1.04674  -1.04249  -1.03836
 Alpha  occ. eigenvalues --   -1.03803  -1.02719  -1.02296  -1.01584  -1.01280
 Alpha  occ. eigenvalues --   -1.00947  -1.00528  -1.00188  -1.00135  -0.99380
 Alpha  occ. eigenvalues --   -0.98461  -0.96147  -0.95943  -0.95322  -0.95183
 Alpha  occ. eigenvalues --   -0.93806  -0.92591  -0.92283  -0.92158  -0.92032
 Alpha  occ. eigenvalues --   -0.91993  -0.91071  -0.90793  -0.90695  -0.89932
 Alpha  occ. eigenvalues --   -0.89572  -0.89261  -0.88688  -0.88349  -0.85250
 Alpha  occ. eigenvalues --   -0.83908  -0.81601  -0.81068  -0.81026  -0.80234
 Alpha  occ. eigenvalues --   -0.79316  -0.78966  -0.77327  -0.76933  -0.76471
 Alpha  occ. eigenvalues --   -0.75944  -0.75518  -0.74646  -0.74519  -0.73611
 Alpha  occ. eigenvalues --   -0.73211  -0.73170  -0.72528  -0.71594  -0.71584
 Alpha  occ. eigenvalues --   -0.70542  -0.69500  -0.69279  -0.69013  -0.68434
 Alpha  occ. eigenvalues --   -0.66452  -0.65985  -0.65082  -0.65079  -0.64681
 Alpha  occ. eigenvalues --   -0.63894  -0.63765  -0.63471  -0.63441  -0.63222
 Alpha  occ. eigenvalues --   -0.62181  -0.62139  -0.61913  -0.61266  -0.60836
 Alpha  occ. eigenvalues --   -0.60563  -0.59954  -0.59310  -0.59202  -0.59004
 Alpha  occ. eigenvalues --   -0.58502  -0.57920  -0.57508  -0.57396  -0.57187
 Alpha  occ. eigenvalues --   -0.56833  -0.56356  -0.56130  -0.55875  -0.55833
 Alpha  occ. eigenvalues --   -0.55587  -0.55242  -0.54948  -0.54758  -0.54227
 Alpha  occ. eigenvalues --   -0.53903  -0.53625  -0.53482  -0.53062  -0.52669
 Alpha  occ. eigenvalues --   -0.52332  -0.52084  -0.51963  -0.51729  -0.51673
 Alpha  occ. eigenvalues --   -0.51542  -0.51335  -0.51026  -0.50656  -0.50296
 Alpha  occ. eigenvalues --   -0.49861  -0.49324  -0.49090  -0.48991  -0.48695
 Alpha  occ. eigenvalues --   -0.48609  -0.48519  -0.48058  -0.47388  -0.47171
 Alpha  occ. eigenvalues --   -0.46964  -0.46863  -0.46660  -0.46548  -0.46401
 Alpha  occ. eigenvalues --   -0.46317  -0.45844  -0.45793  -0.45746  -0.45326
 Alpha  occ. eigenvalues --   -0.45001  -0.44950  -0.44676  -0.44339  -0.44064
 Alpha  occ. eigenvalues --   -0.44018  -0.43939  -0.43916  -0.43835  -0.43651
 Alpha  occ. eigenvalues --   -0.43527  -0.43372  -0.43328  -0.43270  -0.43096
 Alpha  occ. eigenvalues --   -0.43045  -0.42717  -0.42580  -0.42296  -0.42130
 Alpha  occ. eigenvalues --   -0.42123  -0.41960  -0.41885  -0.41666  -0.41441
 Alpha  occ. eigenvalues --   -0.41223  -0.41154  -0.41026  -0.40989  -0.40809
 Alpha  occ. eigenvalues --   -0.40781  -0.40721  -0.40465  -0.39832  -0.39800
 Alpha  occ. eigenvalues --   -0.39751  -0.39725  -0.39647  -0.39466  -0.39175
 Alpha  occ. eigenvalues --   -0.39056  -0.38968  -0.38790  -0.38666  -0.38592
 Alpha  occ. eigenvalues --   -0.38554  -0.38487  -0.38368  -0.38101  -0.37951
 Alpha  occ. eigenvalues --   -0.37790  -0.37405  -0.37269  -0.37173  -0.37043
 Alpha  occ. eigenvalues --   -0.36570  -0.36545  -0.36200  -0.36183  -0.35800
 Alpha  occ. eigenvalues --   -0.35617  -0.35414  -0.35115  -0.34902  -0.34849
 Alpha  occ. eigenvalues --   -0.34754  -0.34503  -0.34360  -0.34253  -0.33632
 Alpha  occ. eigenvalues --   -0.33354  -0.33097  -0.32979  -0.32748  -0.32619
 Alpha  occ. eigenvalues --   -0.32209  -0.31989  -0.31684  -0.31625  -0.30863
 Alpha  occ. eigenvalues --   -0.30619  -0.30566  -0.30110  -0.30091  -0.29529
 Alpha  occ. eigenvalues --   -0.29385  -0.29265  -0.28848  -0.28636  -0.28129
 Alpha  occ. eigenvalues --   -0.27599  -0.27595  -0.27228  -0.26988  -0.26927
 Alpha  occ. eigenvalues --   -0.26667  -0.26556  -0.26400  -0.26324  -0.25924
 Alpha  occ. eigenvalues --   -0.25865  -0.25541  -0.25428  -0.25419  -0.25072
 Alpha  occ. eigenvalues --   -0.24984  -0.24841  -0.24483  -0.24256  -0.23533
 Alpha  occ. eigenvalues --   -0.23413  -0.23282  -0.22888  -0.22540  -0.22442
 Alpha  occ. eigenvalues --   -0.22409  -0.22117  -0.21729  -0.20962  -0.20585
 Alpha  occ. eigenvalues --   -0.13763  -0.13620  -0.11002
 Alpha virt. eigenvalues --   -0.10528  -0.09725  -0.04664  -0.03665  -0.02801
 Alpha virt. eigenvalues --   -0.02117  -0.01862  -0.01661  -0.01412  -0.01260
 Alpha virt. eigenvalues --   -0.00562  -0.00456  -0.00020   0.00187   0.00788

 Mulliken charges:
               1
     1  C    0.055278
     2  C    0.026071
     3  O   -0.315198
     4  H    0.028146
     5  H    0.031277
     6  H    0.031212
     7  N   -0.119866
     8  C    0.054450
     9  C    0.106939
    10  O   -0.260300
    11  C    0.094233
    12  C    0.083857
    13  O   -0.380166
    14  O   -0.432581
    15  H    0.129756
    16  H   -0.015398
    17  H    0.029963
    18  H    0.015624
    19  N   -0.129813
    20  C    0.155261
    21  C    0.037138
    22  O   -0.285425
    23  C   -0.018876
    24  C    0.018294
    25  C   -0.065723
    26  C    0.100367
    27  N    0.150555
    28  H    0.132008
    29  H    0.020361
    30  H    0.016960
    31  H    0.011026
    32  H    0.034657
    33  H   -0.013989
    34  H    0.021022
    35  H    0.029798
    36  H    0.058227
    37  H    0.057797
    38  H    0.101855
    39  H    0.133453
    40  H    0.102638
    41  N   -0.113795
    42  C    0.109313
    43  C    0.028497
    44  O   -0.284514
    45  C    0.163194
    46  C    0.081036
    47  O   -0.425869
    48  O   -0.422638
    49  H    0.119724
    50  H    0.024217
    51  H    0.000862
    52  H    0.016270
    53  N   -0.173261
    54  C    0.235965
    55  C    0.020567
    56  O   -0.314962
    57  H    0.153025
    58  H    0.052613
    59  H    0.029812
    60  N   -0.133166
    61  C    0.110234
    62  C    0.170068
    63  O   -0.382317
    64  C    0.095006
    65  C   -0.023205
    66  N   -0.078333
    67  O   -0.243352
    68  H    0.143864
    69  H   -0.016982
    70  H    0.029547
    71  H    0.036278
    72  H    0.125089
    73  H    0.145203
    74  N   -0.153657
    75  C    0.218246
    76  C    0.050453
    77  O   -0.274244
    78  H    0.122449
    79  H    0.059993
    80  H    0.039032
    81  N   -0.110322
    82  C    0.133358
    83  C    0.106931
    84  O   -0.271650
    85  C    0.131343
    86  C   -0.056384
    87  C   -0.000049
    88  C   -0.022853
    89  C   -0.014455
    90  C   -0.042719
    91  C    0.162310
    92  O   -0.198629
    93  H    0.094691
    94  H   -0.022689
    95  H   -0.006305
    96  H   -0.002936
    97  H    0.009388
    98  H   -0.032768
    99  H   -0.015409
   100  H   -0.039284
   101  H    0.174016
   102  N   -0.106885
   103  C    0.086336
   104  C    0.111305
   105  O   -0.253419
   106  C   -0.099063
   107  C   -0.045791
   108  C    0.100950
   109  C    0.033933
   110  H    0.125271
   111  H    0.003463
   112  H   -0.010757
   113  H    0.019405
   114  H    0.009657
   115  H    0.008153
   116  H   -0.016995
   117  H    0.013637
   118  H    0.018903
   119  H   -0.017798
   120  H    0.023346
   121  N   -0.149631
   122  C    0.104203
   123  C    0.065940
   124  O   -0.272058
   125  C    0.222900
   126  O   -0.293328
   127  H    0.107218
   128  H    0.037148
   129  H    0.000649
   130  H    0.014727
   131  H    0.169205
   132  N   -0.118707
   133  C   -0.029739
   134  C    0.086304
   135  O   -0.255788
   136  C    0.094506
   137  H    0.112965
   138  H    0.037423
   139  H    0.042545
   140  H    0.010595
   141  H   -0.006005
   142  N   -0.066861
   143  C   -0.017248
   144  C    0.046498
   145  O   -0.269015
   146  C    0.072459
   147  H    0.124382
   148  H    0.014906
   149  H    0.026845
   150  H   -0.005324
   151  H    0.027631
   152  N   -0.086355
   153  C    0.060270
   154  C    0.070188
   155  O   -0.303164
   156  C    0.116297
   157  C   -0.029977
   158  C    0.062874
   159  O   -0.339753
   160  O   -0.353384
   161  H    0.111162
   162  H    0.000548
   163  H    0.006988
   164  H   -0.016906
   165  H   -0.006445
   166  H   -0.024011
   167  N   -0.151130
   168  C    0.135350
   169  H    0.013735
   170  H    0.036036
   171  H    0.026482
   172  H    0.104402
   173  Ca   1.388287
   174  O   -0.313383
   175  H    0.202973
   176  H    0.203184
 Sum of Mulliken charges =  -0.00000

 Dipole moment (field-independent basis, Debye):
    X=            -63.3963    Y=              7.8831    Z=              5.8087  Tot=             64.1481
 Quadrupole moment (field-independent basis, Debye-Ang):
   XX=           -279.3616   YY=           -633.7692   ZZ=           -515.9241
   XY=           -442.3283   XZ=             41.4801   YZ=            -28.3480

 ESP charges:
               1
     1  C   -0.405900
     2  C    0.701449
     3  O   -0.628510
     4  H    0.107016
     5  H    0.131012
     6  H    0.099024
     7  N   -0.568249
     8  C    0.277051
     9  C    0.386122
    10  O   -0.494163
    11  C   -0.321138
    12  C    0.743077
    13  O   -0.704910
    14  O   -0.816380
    15  H    0.314006
    16  H    0.051419
    17  H    0.117230
    18  H    0.083822
    19  N   -0.355944
    20  C    0.047627
    21  C    0.460339
    22  O   -0.542945
    23  C   -0.099413
    24  C    0.087521
    25  C   -0.097937
    26  C   -0.039351
    27  N   -0.224595
    28  H    0.270536
    29  H    0.108379
    30  H    0.041618
    31  H    0.046200
    32  H    0.043847
    33  H   -0.042177
    34  H    0.066299
    35  H    0.055656
    36  H    0.095125
    37  H    0.092992
    38  H    0.221519
    39  H    0.258093
    40  H    0.231814
    41  N   -0.405795
    42  C    0.230730
    43  C    0.464899
    44  O   -0.577182
    45  C   -0.321570
    46  C    0.774544
    47  O   -0.741431
    48  O   -0.742573
    49  H    0.208712
    50  H    0.073773
    51  H    0.075087
    52  H    0.105312
    53  N   -0.131836
    54  C   -0.446809
    55  C    0.712755
    56  O   -0.625720
    57  H    0.263792
    58  H    0.197867
    59  H    0.160884
    60  N   -0.288065
    61  C   -0.186942
    62  C    0.770028
    63  O   -0.681409
    64  C   -0.200306
    65  C    0.584378
    66  N   -0.712155
    67  O   -0.517341
    68  H    0.198056
    69  H    0.125048
    70  H    0.071925
    71  H    0.117609
    72  H    0.328883
    73  H    0.350873
    74  N   -0.357965
    75  C   -0.152902
    76  C    0.765391
    77  O   -0.590888
    78  H    0.182485
    79  H    0.118815
    80  H    0.090248
    81  N   -0.693771
    82  C    0.440035
    83  C    0.199150
    84  O   -0.436473
    85  C   -0.474817
    86  C    0.287882
    87  C   -0.316633
    88  C   -0.272712
    89  C   -0.164033
    90  C   -0.252794
    91  C    0.311702
    92  O   -0.529403
    93  H    0.356208
    94  H   -0.006435
    95  H    0.127633
    96  H    0.123517
    97  H    0.206848
    98  H    0.162535
    99  H    0.163176
   100  H    0.138974
   101  H    0.401428
   102  N   -0.107048
   103  C   -0.505695
   104  C    0.759502
   105  O   -0.504337
   106  C    0.378169
   107  C    0.118721
   108  C   -0.638065
   109  C   -0.338762
   110  H    0.251659
   111  H    0.137992
   112  H   -0.002352
   113  H   -0.023664
   114  H    0.016844
   115  H    0.186153
   116  H    0.108468
   117  H    0.194868
   118  H    0.105205
   119  H    0.061327
   120  H    0.070287
   121  N   -0.437830
   122  C   -0.301234
   123  C    0.730828
   124  O   -0.521716
   125  C    0.284017
   126  O   -0.596826
   127  H    0.211395
   128  H    0.149142
   129  H    0.006827
   130  H   -0.004757
   131  H    0.396112
   132  N   -0.456298
   133  C    0.034224
   134  C    0.630898
   135  O   -0.523920
   136  C   -0.422482
   137  H    0.311541
   138  H    0.146828
   139  H    0.137464
   140  H    0.114048
   141  H    0.112779
   142  N   -0.703366
   143  C    0.669150
   144  C    0.379950
   145  O   -0.536400
   146  C   -0.414835
   147  H    0.356972
   148  H   -0.204629
   149  H    0.126595
   150  H    0.083341
   151  H    0.094638
   152  N   -0.521055
   153  C    0.122635
   154  C    0.443201
   155  O   -0.542932
   156  C   -0.161181
   157  C   -0.010045
   158  C    0.629786
   159  O   -0.627834
   160  O   -0.640511
   161  H    0.306454
   162  H    0.082098
   163  H    0.048924
   164  H    0.049950
   165  H    0.042316
   166  H   -0.020775
   167  N   -0.281939
   168  C   -0.216568
   169  H    0.101719
   170  H    0.114393
   171  H    0.104299
   172  H    0.262921
   173  Ca   1.700314
   174  O   -0.872276
   175  H    0.445908
   176  H    0.458071
 Sum of ESP charges =   0.00000

 Normal termination of Gaussian 16 at Wed Sep 18 11:38:40 2019.
