 Gaussian 16, Revision A.03,
 Gaussian 16:  ES64L-G16RevA.03 25-Dec-2016

 ----------------------------------------------------------------------
 #b3lyp/svp scf=(tight,noincore) Test #IOP(5/87=12) Density=Current Pop
 =(MK,readradii) iop(6/33=2) iop(6/42=6)
 ----------------------------------------------------------------------

 -----------------
 Ng-293_loop3_33.0
 -----------------
 Symbolic Z-matrix:
 Charge =  0 Multiplicity = 1

                         Standard orientation:
 ---------------------------------------------------------------------
 Center     Atomic      Atomic             Coordinates (Angstroms)
 Number     Number       Type             X           Y           Z
 ---------------------------------------------------------------------
      1          6           0        7.840226   -2.735776   -7.378078
      2          6           0        8.256160   -2.427472   -5.951878
      3          8           0        9.426571   -2.199327   -5.672079
      4          1           0        7.141171   -3.572396   -7.379499
      5          1           0        7.358602   -1.860462   -7.814181
      6          1           0        8.720313   -2.997345   -7.965278
      7          7           0        7.351813   -2.453700   -4.973170
      8          6           0        7.727580   -2.655758   -3.583252
      9          6           0        6.722252   -2.052460   -2.605373
     10          8           0        5.540060   -1.988352   -2.920513
     11          6           0        7.971998   -4.143934   -3.373989
     12          6           0        8.693961   -4.609132   -2.119373
     13          8           0        8.868748   -3.730104   -1.252390
     14          8           0        9.081898   -5.804567   -2.157305
     15          1           0        6.380323   -2.647467   -5.187785
     16          1           0        8.657309   -2.101218   -3.449871
     17          1           0        8.599060   -4.451434   -4.218760
     18          1           0        6.987319   -4.602813   -3.422345
     19          7           0        7.194494   -1.486623   -1.496042
     20          6           0        6.417480   -0.844874   -0.457386
     21          6           0        5.483750   -1.887405    0.134457
     22          8           0        5.410588   -3.068555   -0.197555
     23          6           0        5.622197    0.373522   -0.914371
     24          6           0        6.548736    1.535629   -1.261981
     25          6           0        7.658489    1.915868   -0.292771
     26          6           0        8.389858    3.188117   -0.705785
     27          7           0        9.159186    2.951052   -1.943620
     28          1           0        8.134362   -1.822825   -1.324236
     29          1           0        7.103667   -0.556337    0.324786
     30          1           0        5.066263    0.691677   -0.039148
     31          1           0        4.931700    0.176379   -1.731591
     32          1           0        5.913058    2.409894   -1.426221
     33          1           0        7.056503    1.307207   -2.194019
     34          1           0        8.366413    1.111106   -0.058889
     35          1           0        7.310639    2.135423    0.722018
     36          1           0        9.092075    3.501139    0.069785
     37          1           0        7.613643    3.945698   -0.826043
     38          1           0        9.638806    3.748990   -2.318531
     39          1           0        9.952014    2.349463   -1.795248
     40          1           0        8.674515    2.496768   -2.714866
     41          7           0        4.728104   -1.539586    1.180077
     42          6           0        3.974862   -2.412672    2.066050
     43          6           0        2.470533   -2.497713    1.915173
     44          8           0        1.972510   -3.601289    2.111627
     45          6           0        4.337384   -2.145132    3.529471
     46          6           0        4.027001   -0.757904    4.058015
     47          8           0        3.416388    0.097631    3.385325
     48          8           0        4.447970   -0.523478    5.222459
     49          1           0        4.825354   -0.607403    1.556080
     50          1           0        4.295753   -3.424706    1.818431
     51          1           0        5.363310   -2.464193    3.701151
     52          1           0        3.737857   -2.758898    4.205386
     53          7           0        1.770005   -1.404050    1.589197
     54          6           0        0.421874   -1.552508    1.082538
     55          6           0       -0.534975   -2.295707    2.001285
     56          8           0       -1.287585   -3.175642    1.591051
     57          1           0        2.215612   -0.527480    1.377871
     58          1           0        0.499917   -2.184175    0.201796
     59          1           0       -0.065140   -0.589994    0.970365
     60          7           0       -0.411560   -2.083080    3.316678
     61          6           0       -1.404228   -2.611565    4.217686
     62          6           0       -2.776241   -2.102578    3.819175
     63          8           0       -2.957790   -0.942873    3.453216
     64          6           0       -1.056124   -2.464020    5.700944
     65          6           0        0.357464   -2.966632    5.996834
     66          7           0        0.578116   -4.278779    5.983276
     67          8           0        1.333776   -2.242992    6.188825
     68          1           0        0.222348   -1.400762    3.705525
     69          1           0       -1.431297   -3.673359    3.985821
     70          1           0       -1.733251   -3.073822    6.294019
     71          1           0       -1.090957   -1.423316    6.022381
     72          1           0       -0.198210   -4.909264    5.849832
     73          1           0        1.518656   -4.597533    5.812453
     74          7           0       -3.760251   -3.001334    3.913322
     75          6           0       -5.125440   -2.947257    3.434747
     76          6           0       -5.241058   -3.107105    1.925051
     77          8           0       -4.298381   -3.585755    1.302754
     78          1           0       -3.470303   -3.930139    4.171880
     79          1           0       -5.577867   -1.980990    3.647673
     80          1           0       -5.812303   -3.637217    3.934121
     81          7           0       -6.435211   -2.791797    1.421880
     82          6           0       -6.903976   -2.805258    0.052034
     83          6           0       -6.180695   -1.822806   -0.864619
     84          8           0       -6.777108   -1.174128   -1.724682
     85          6           0       -6.765712   -4.226768   -0.476258
     86          6           0       -7.324296   -4.524362   -1.845572
     87          6           0       -6.569851   -4.563743   -3.022586
     88          6           0       -8.721608   -4.568446   -1.902801
     89          6           0       -7.273094   -4.723097   -4.230459
     90          6           0       -9.454212   -4.772653   -3.075657
     91          6           0       -8.679995   -4.765504   -4.259311
     92          8           0       -9.290757   -4.922405   -5.460748
     93          1           0       -7.191344   -2.567073    2.055254
     94          1           0       -7.960256   -2.548911   -0.016954
     95          1           0       -7.245976   -4.878831    0.256312
     96          1           0       -5.713751   -4.514194   -0.442133
     97          1           0       -5.499660   -4.464112   -2.962879
     98          1           0       -9.373260   -4.510772   -1.044533
     99          1           0       -6.835389   -4.903397   -5.199585
    100          1           0      -10.525983   -4.817552   -3.117988
    101          1           0      -10.250797   -4.927287   -5.492357
    102          7           0       -4.911918   -1.534234   -0.576297
    103          6           0       -4.034298   -0.536583   -1.152732
    104          6           0       -4.548561    0.857712   -0.820358
    105          8           0       -3.713847    1.732467   -0.593515
    106          6           0       -3.801377   -0.841739   -2.627699
    107          6           0       -3.170509   -2.196752   -2.894802
    108          6           0       -2.880060    0.157367   -3.319843
    109          6           0       -1.851028   -2.451329   -2.180196
    110          1           0       -4.377195   -2.072976    0.087276
    111          1           0       -3.026261   -0.670764   -0.747815
    112          1           0       -4.733699   -0.738830   -3.191956
    113          1           0       -3.012984   -2.470222   -3.935475
    114          1           0       -3.809365   -2.976651   -2.476089
    115          1           0       -3.353637    1.140389   -3.368779
    116          1           0       -1.973340    0.276600   -2.720975
    117          1           0       -2.736965   -0.154470   -4.356077
    118          1           0       -1.438213   -3.429097   -2.441067
    119          1           0       -1.103021   -1.717017   -2.502951
    120          1           0       -1.973245   -2.483166   -1.095462
    121          7           0       -5.827451    1.165879   -0.646943
    122          6           0       -6.388937    2.332848    0.000062
    123          6           0       -6.124941    3.715904   -0.591515
    124          8           0       -6.497250    4.714620    0.027155
    125          6           0       -7.871891    2.149702    0.309748
    126          8           0       -8.075719    1.038086    1.145251
    127          1           0       -6.442949    0.380996   -0.826168
    128          1           0       -5.825526    2.352187    0.939899
    129          1           0       -8.358905    2.108263   -0.662877
    130          1           0       -8.292470    3.033911    0.795534
    131          1           0       -7.220612    0.784646    1.509064
    132          7           0       -5.533005    3.681414   -1.781441
    133          6           0       -5.047291    4.872453   -2.455909
    134          6           0       -3.935102    5.583037   -1.709782
    135          8           0       -3.835650    6.804442   -1.755379
    136          6           0       -6.170945    5.719989   -3.040704
    137          1           0       -5.631472    2.812721   -2.288468
    138          1           0       -4.528270    4.546912   -3.357264
    139          1           0       -7.081550    5.162028   -3.276664
    140          1           0       -6.449520    6.412788   -2.238379
    141          1           0       -5.937870    6.223169   -3.971341
    142          7           0       -3.125025    4.811693   -0.967621
    143          6           0       -2.220479    5.335701    0.036526
    144          6           0       -0.787456    5.295682   -0.449523
    145          8           0       -0.466707    4.455038   -1.288772
    146          6           0       -2.383637    4.571816    1.351539
    147          1           0       -3.211726    3.805724   -1.000921
    148          1           0       -2.470957    6.389998    0.157433
    149          1           0       -2.124701    3.538623    1.147667
    150          1           0       -1.608864    4.963029    2.002523
    151          1           0       -3.357525    4.733426    1.812868
    152          7           0        0.088735    6.168397    0.052230
    153          6           0        1.516722    6.202257   -0.172063
    154          6           0        1.894535    6.330661   -1.641304
    155          8           0        3.073295    6.179845   -1.974139
    156          6           0        2.185670    5.060247    0.579549
    157          6           0        2.201343    5.214399    2.098098
    158          6           0        2.667138    3.966222    2.826101
    159          8           0        1.886480    3.328886    3.565545
    160          8           0        3.865953    3.576553    2.746736
    161          1           0       -0.238036    6.787607    0.782709
    162          1           0        1.814492    7.154934    0.266959
    163          1           0        3.206709    4.954297    0.211915
    164          1           0        1.749131    4.099684    0.319639
    165          1           0        1.237422    5.628039    2.382279
    166          1           0        2.896010    6.022213    2.327387
    167          7           0        0.976286    6.716403   -2.531148
    168          6           0        1.049967    6.633388   -3.977896
    169          1           0        2.059533    6.880555   -4.304368
    170          1           0        0.802952    5.621040   -4.296867
    171          1           0        0.344040    7.336756   -4.419372
    172          1           0        0.086315    6.859224   -2.072071
    173         20           0        3.778200    2.111981    5.008910
    174          8           0        1.844931    0.718355    6.097798
    175          1           0        1.478206    0.827477    6.975297
    176          1           0        1.781064   -0.228212    5.931268
 ---------------------------------------------------------------------

 SCF Done:  E(RB3LYP) =  -5333.40383455     A.U. after   46 cycles

 The electronic state is 1-A.
 Alpha  occ. eigenvalues -- -145.45695 -19.17063 -19.15789 -19.14245 -19.12556
 Alpha  occ. eigenvalues --  -19.12409 -19.11011 -19.10635 -19.09797 -19.09781
 Alpha  occ. eigenvalues --  -19.09353 -19.08998 -19.08669 -19.08345 -19.08204
 Alpha  occ. eigenvalues --  -19.08068 -19.07981 -19.07690 -19.07529 -19.05905
 Alpha  occ. eigenvalues --  -19.05078 -19.04320 -18.96508 -18.95573 -15.51632
 Alpha  occ. eigenvalues --  -14.57309 -14.38875 -14.37568 -14.37226 -14.36563
 Alpha  occ. eigenvalues --  -14.35688 -14.35645 -14.35467 -14.34781 -14.34358
 Alpha  occ. eigenvalues --  -14.33861 -14.33149 -14.32859 -14.30860 -14.30083
 Alpha  occ. eigenvalues --  -12.65219 -12.65206 -12.65143 -10.34480 -10.31394
 Alpha  occ. eigenvalues --  -10.31257 -10.29873 -10.29526 -10.28782 -10.28363
 Alpha  occ. eigenvalues --  -10.27911 -10.27564 -10.27326 -10.27228 -10.27221
 Alpha  occ. eigenvalues --  -10.27096 -10.26484 -10.26104 -10.25988 -10.25528
 Alpha  occ. eigenvalues --  -10.25326 -10.25035 -10.25018 -10.24190 -10.24152
 Alpha  occ. eigenvalues --  -10.23849 -10.23773 -10.23672 -10.23500 -10.23471
 Alpha  occ. eigenvalues --  -10.23295 -10.23089 -10.22925 -10.22401 -10.21885
 Alpha  occ. eigenvalues --  -10.21518 -10.20455 -10.20348 -10.19601 -10.19442
 Alpha  occ. eigenvalues --  -10.19060 -10.19018 -10.18904 -10.18580 -10.18495
 Alpha  occ. eigenvalues --  -10.18336 -10.18240 -10.18076 -10.17624 -10.17045
 Alpha  occ. eigenvalues --  -10.16981 -10.16726 -10.16629 -10.16031 -10.15830
 Alpha  occ. eigenvalues --  -10.15630 -10.09489  -1.88384  -1.15807  -1.15616
 Alpha  occ. eigenvalues --   -1.15246  -1.12677  -1.05947  -1.05314  -1.04711
 Alpha  occ. eigenvalues --   -1.04531  -1.03723  -1.03560  -1.03310  -1.03077
 Alpha  occ. eigenvalues --   -1.02835  -1.02542  -1.02528  -1.02151  -1.01803
 Alpha  occ. eigenvalues --   -1.01146  -1.00771  -1.00663  -0.99939  -0.98361
 Alpha  occ. eigenvalues --   -0.97638  -0.95937  -0.93802  -0.93384  -0.93234
 Alpha  occ. eigenvalues --   -0.93101  -0.93004  -0.92399  -0.91906  -0.91778
 Alpha  occ. eigenvalues --   -0.91594  -0.90487  -0.90425  -0.90062  -0.89937
 Alpha  occ. eigenvalues --   -0.89195  -0.88920  -0.88010  -0.86567  -0.85062
 Alpha  occ. eigenvalues --   -0.81854  -0.81449  -0.81066  -0.80777  -0.80006
 Alpha  occ. eigenvalues --   -0.79884  -0.78427  -0.76991  -0.76547  -0.76417
 Alpha  occ. eigenvalues --   -0.75036  -0.74702  -0.74394  -0.73922  -0.73260
 Alpha  occ. eigenvalues --   -0.72686  -0.72268  -0.72212  -0.70973  -0.70688
 Alpha  occ. eigenvalues --   -0.70160  -0.69821  -0.69008  -0.68632  -0.67560
 Alpha  occ. eigenvalues --   -0.66818  -0.66509  -0.65804  -0.64905  -0.64171
 Alpha  occ. eigenvalues --   -0.63214  -0.63063  -0.62585  -0.62306  -0.62037
 Alpha  occ. eigenvalues --   -0.61354  -0.61082  -0.60992  -0.60819  -0.59879
 Alpha  occ. eigenvalues --   -0.59831  -0.59378  -0.59270  -0.59166  -0.58792
 Alpha  occ. eigenvalues --   -0.58204  -0.57418  -0.56900  -0.56877  -0.56604
 Alpha  occ. eigenvalues --   -0.56283  -0.56041  -0.55943  -0.55240  -0.55181
 Alpha  occ. eigenvalues --   -0.55016  -0.54334  -0.53885  -0.53713  -0.53664
 Alpha  occ. eigenvalues --   -0.53371  -0.52947  -0.52807  -0.52438  -0.52030
 Alpha  occ. eigenvalues --   -0.51897  -0.51235  -0.51015  -0.50532  -0.50345
 Alpha  occ. eigenvalues --   -0.50196  -0.49874  -0.49416  -0.49393  -0.48841
 Alpha  occ. eigenvalues --   -0.48610  -0.48516  -0.48257  -0.48034  -0.47308
 Alpha  occ. eigenvalues --   -0.47224  -0.46940  -0.46762  -0.46491  -0.46325
 Alpha  occ. eigenvalues --   -0.46244  -0.45971  -0.45869  -0.45712  -0.45351
 Alpha  occ. eigenvalues --   -0.45187  -0.44989  -0.44771  -0.44468  -0.44400
 Alpha  occ. eigenvalues --   -0.44372  -0.44317  -0.44193  -0.44024  -0.43987
 Alpha  occ. eigenvalues --   -0.43688  -0.43651  -0.43597  -0.43369  -0.43275
 Alpha  occ. eigenvalues --   -0.43050  -0.42933  -0.42733  -0.42555  -0.42378
 Alpha  occ. eigenvalues --   -0.42205  -0.42193  -0.42021  -0.41694  -0.41593
 Alpha  occ. eigenvalues --   -0.41440  -0.41345  -0.41276  -0.41225  -0.40916
 Alpha  occ. eigenvalues --   -0.40820  -0.40674  -0.40633  -0.40552  -0.40305
 Alpha  occ. eigenvalues --   -0.40198  -0.40082  -0.40065  -0.39785  -0.39620
 Alpha  occ. eigenvalues --   -0.39557  -0.39446  -0.39142  -0.39098  -0.38831
 Alpha  occ. eigenvalues --   -0.38764  -0.38513  -0.38489  -0.38263  -0.38093
 Alpha  occ. eigenvalues --   -0.38033  -0.37969  -0.37798  -0.37449  -0.37296
 Alpha  occ. eigenvalues --   -0.37172  -0.37011  -0.36691  -0.36503  -0.36477
 Alpha  occ. eigenvalues --   -0.36298  -0.36152  -0.35786  -0.35677  -0.35543
 Alpha  occ. eigenvalues --   -0.35370  -0.35201  -0.35002  -0.34872  -0.34799
 Alpha  occ. eigenvalues --   -0.34624  -0.34609  -0.33993  -0.33819  -0.33779
 Alpha  occ. eigenvalues --   -0.33431  -0.33384  -0.33330  -0.33274  -0.33194
 Alpha  occ. eigenvalues --   -0.32947  -0.31904  -0.31782  -0.31443  -0.30310
 Alpha  occ. eigenvalues --   -0.29952  -0.29858  -0.29660  -0.29329  -0.28740
 Alpha  occ. eigenvalues --   -0.28654  -0.28169  -0.27805  -0.27520  -0.27482
 Alpha  occ. eigenvalues --   -0.27375  -0.27256  -0.26887  -0.26745  -0.26407
 Alpha  occ. eigenvalues --   -0.26189  -0.26108  -0.25689  -0.25570  -0.25460
 Alpha  occ. eigenvalues --   -0.25402  -0.25318  -0.25212  -0.24899  -0.24704
 Alpha  occ. eigenvalues --   -0.24548  -0.24447  -0.24305  -0.24111  -0.24005
 Alpha  occ. eigenvalues --   -0.23602  -0.23443  -0.23235  -0.22838  -0.22052
 Alpha  occ. eigenvalues --   -0.21947  -0.21792  -0.20939  -0.20476  -0.19868
 Alpha  occ. eigenvalues --   -0.13596  -0.12810  -0.11561
 Alpha virt. eigenvalues --   -0.10688  -0.09021  -0.03395  -0.02934  -0.02242
 Alpha virt. eigenvalues --   -0.01673  -0.01569  -0.00661  -0.00209  -0.00013
 Alpha virt. eigenvalues --    0.00266   0.00310   0.00999   0.01079   0.01249

 Mulliken charges:
               1
     1  C    0.066758
     2  C    0.001806
     3  O   -0.301580
     4  H    0.018069
     5  H    0.014901
     6  H    0.025294
     7  N   -0.133929
     8  C    0.107275
     9  C    0.085817
    10  O   -0.304976
    11  C    0.042194
    12  C    0.120456
    13  O   -0.413699
    14  O   -0.375059
    15  H    0.103261
    16  H   -0.035664
    17  H    0.004947
    18  H   -0.007728
    19  N   -0.118936
    20  C    0.074867
    21  C    0.081390
    22  O   -0.222856
    23  C    0.108930
    24  C    0.016688
    25  C   -0.072512
    26  C    0.057285
    27  N    0.076009
    28  H    0.109223
    29  H   -0.006067
    30  H   -0.004761
    31  H    0.041216
    32  H    0.027852
    33  H   -0.019434
    34  H    0.040209
    35  H    0.040080
    36  H    0.063615
    37  H    0.090384
    38  H    0.177867
    39  H    0.181282
    40  H    0.192229
    41  N   -0.141792
    42  C    0.168121
    43  C    0.053585
    44  O   -0.273016
    45  C    0.055014
    46  C    0.080858
    47  O   -0.420941
    48  O   -0.432279
    49  H    0.096278
    50  H    0.026687
    51  H    0.027598
    52  H    0.023119
    53  N   -0.132859
    54  C    0.231778
    55  C    0.032476
    56  O   -0.264446
    57  H    0.127154
    58  H    0.037018
    59  H    0.036252
    60  N   -0.114097
    61  C    0.042259
    62  C    0.083771
    63  O   -0.272202
    64  C    0.150329
    65  C    0.013499
    66  N   -0.029139
    67  O   -0.281131
    68  H    0.120555
    69  H   -0.011007
    70  H    0.004722
    71  H    0.005696
    72  H    0.116926
    73  H    0.152384
    74  N   -0.103139
    75  C    0.182506
    76  C    0.050147
    77  O   -0.259532
    78  H    0.117226
    79  H    0.013810
    80  H    0.035196
    81  N   -0.115554
    82  C    0.118457
    83  C    0.096657
    84  O   -0.306000
    85  C    0.108122
    86  C   -0.001848
    87  C    0.033897
    88  C   -0.015944
    89  C    0.000903
    90  C   -0.037092
    91  C    0.139096
    92  O   -0.206894
    93  H    0.125267
    94  H    0.014446
    95  H   -0.010091
    96  H    0.021459
    97  H   -0.029080
    98  H   -0.040480
    99  H   -0.020895
   100  H   -0.046614
   101  H    0.176948
   102  N   -0.141696
   103  C    0.171038
   104  C    0.051004
   105  O   -0.296557
   106  C   -0.112132
   107  C    0.036738
   108  C    0.083337
   109  C   -0.049954
   110  H    0.149821
   111  H    0.021212
   112  H    0.001202
   113  H    0.002182
   114  H   -0.008540
   115  H   -0.016194
   116  H    0.019868
   117  H    0.008004
   118  H    0.013318
   119  H    0.010143
   120  H    0.036927
   121  N   -0.126803
   122  C    0.033315
   123  C    0.060370
   124  O   -0.270429
   125  C    0.268540
   126  O   -0.310262
   127  H    0.126825
   128  H    0.017786
   129  H   -0.004202
   130  H    0.021033
   131  H    0.160528
   132  N   -0.120882
   133  C    0.068747
   134  C    0.057776
   135  O   -0.270809
   136  C    0.074356
   137  H    0.137160
   138  H    0.015383
   139  H   -0.009277
   140  H    0.039867
   141  H    0.009493
   142  N   -0.131221
   143  C    0.082033
   144  C    0.039513
   145  O   -0.271125
   146  C    0.082696
   147  H    0.136837
   148  H   -0.005648
   149  H    0.036135
   150  H   -0.010834
   151  H    0.041605
   152  N   -0.153783
   153  C    0.121177
   154  C    0.043275
   155  O   -0.305237
   156  C    0.031047
   157  C    0.126632
   158  C    0.091299
   159  O   -0.406949
   160  O   -0.460652
   161  H    0.121497
   162  H    0.002735
   163  H    0.004828
   164  H    0.020488
   165  H   -0.035718
   166  H   -0.021271
   167  N   -0.120830
   168  C    0.140587
   169  H    0.028513
   170  H    0.033851
   171  H    0.021208
   172  H    0.118189
   173  Ca   1.297118
   174  O   -0.328629
   175  H    0.169999
   176  H    0.195544
 Sum of Mulliken charges =  -0.00000

 Dipole moment (field-independent basis, Debye):
    X=             -4.1023    Y=             23.5369    Z=             16.2534  Tot=             28.8962
 Quadrupole moment (field-independent basis, Debye-Ang):
   XX=           -506.7249   YY=           -628.6794   ZZ=           -455.7373
   XY=            346.5586   XZ=             45.6440   YZ=            -46.5402

 ESP charges:
               1
     1  C   -0.416865
     2  C    0.777498
     3  O   -0.604335
     4  H    0.108946
     5  H    0.096939
     6  H    0.112259
     7  N   -0.819801
     8  C    0.511816
     9  C    0.625764
    10  O   -0.584360
    11  C   -0.372157
    12  C    0.762839
    13  O   -0.742300
    14  O   -0.665553
    15  H    0.341551
    16  H   -0.051527
    17  H    0.101899
    18  H    0.059605
    19  N   -0.848968
    20  C    0.484670
    21  C    0.614906
    22  O   -0.443419
    23  C   -0.467694
    24  C    0.222955
    25  C   -0.073545
    26  C   -0.095350
    27  N   -0.347008
    28  H    0.356955
    29  H   -0.004715
    30  H    0.095678
    31  H    0.174819
    32  H    0.007843
    33  H   -0.034439
    34  H    0.055203
    35  H    0.063034
    36  H    0.116743
    37  H    0.126742
    38  H    0.330710
    39  H    0.336476
    40  H    0.317439
    41  N   -0.688470
    42  C    0.129926
    43  C    0.593474
    44  O   -0.551549
    45  C   -0.252365
    46  C    0.696884
    47  O   -0.686160
    48  O   -0.754168
    49  H    0.235692
    50  H    0.072999
    51  H    0.120739
    52  H    0.083614
    53  N   -0.268175
    54  C   -0.340724
    55  C    0.708290
    56  O   -0.510570
    57  H    0.296433
    58  H    0.140170
    59  H    0.146873
    60  N   -0.587569
    61  C    0.229395
    62  C    0.591711
    63  O   -0.533117
    64  C   -0.342501
    65  C    0.653264
    66  N   -0.769429
    67  O   -0.511864
    68  H    0.309979
    69  H    0.019619
    70  H    0.091493
    71  H    0.109765
    72  H    0.360231
    73  H    0.393173
    74  N   -0.617978
    75  C    0.181445
    76  C    0.559267
    77  O   -0.494224
    78  H    0.315525
    79  H    0.028813
    80  H    0.034568
    81  N   -0.720487
    82  C    0.414921
    83  C    0.348188
    84  O   -0.515761
    85  C   -0.102400
    86  C   -0.059785
    87  C   -0.043910
    88  C   -0.104672
    89  C   -0.282656
    90  C   -0.333014
    91  C    0.428981
    92  O   -0.583917
    93  H    0.334861
    94  H    0.006746
    95  H    0.036281
    96  H    0.082429
    97  H    0.095292
    98  H    0.120370
    99  H    0.159951
   100  H    0.153638
   101  H    0.423353
   102  N   -0.486019
   103  C   -0.092652
   104  C    0.526224
   105  O   -0.545038
   106  C    0.157989
   107  C   -0.106551
   108  C   -0.349729
   109  C    0.005188
   110  H    0.387535
   111  H    0.121440
   112  H    0.040303
   113  H    0.041152
   114  H    0.043324
   115  H    0.064522
   116  H    0.097875
   117  H    0.104184
   118  H    0.033604
   119  H    0.002362
   120  H   -0.036945
   121  N   -0.152904
   122  C   -0.461873
   123  C    0.505931
   124  O   -0.496252
   125  C    0.441732
   126  O   -0.630297
   127  H    0.207427
   128  H    0.166353
   129  H    0.001670
   130  H    0.003671
   131  H    0.381717
   132  N   -0.230939
   133  C    0.150429
   134  C    0.561559
   135  O   -0.542512
   136  C   -0.348714
   137  H    0.212017
   138  H    0.047623
   139  H    0.088013
   140  H    0.094686
   141  H    0.099731
   142  N   -0.596668
   143  C    0.558693
   144  C    0.420608
   145  O   -0.483289
   146  C   -0.277398
   147  H    0.219049
   148  H   -0.077154
   149  H    0.106840
   150  H    0.007815
   151  H    0.090052
   152  N   -0.501068
   153  C   -0.398245
   154  C    0.517266
   155  O   -0.531667
   156  C    0.573560
   157  C   -0.337971
   158  C    0.741548
   159  O   -0.727464
   160  O   -0.777556
   161  H    0.317707
   162  H    0.172737
   163  H   -0.098774
   164  H   -0.021565
   165  H    0.073241
   166  H    0.035170
   167  N   -0.280322
   168  C   -0.092869
   169  H    0.072929
   170  H    0.088414
   171  H    0.071709
   172  H    0.244767
   173  Ca   1.509399
   174  O   -0.770647
   175  H    0.390750
   176  H    0.368429
 Sum of ESP charges =   0.00000

 Normal termination of Gaussian 16 at Tue Sep 17 10:25:42 2019.
