 Gaussian 16, Revision A.03,
 Gaussian 16:  ES64L-G16RevA.03 25-Dec-2016

 ----------------------------------------------------------------------
 #b3lyp/svp scf=(tight,noincore) Test #IOP(5/87=12) Density=Current Pop
 =(MK,readradii) iop(6/33=2) iop(6/42=6)
 ----------------------------------------------------------------------

 -----------------
 Ng-295_loop3_20.0
 -----------------
 Symbolic Z-matrix:
 Charge =  0 Multiplicity = 1

                         Standard orientation:
 ---------------------------------------------------------------------
 Center     Atomic      Atomic             Coordinates (Angstroms)
 Number     Number       Type             X           Y           Z
 ---------------------------------------------------------------------
      1          6           0       11.983758   -3.069958    4.780686
      2          6           0       11.098320   -2.999392    3.548444
      3          8           0       11.130317   -3.918112    2.726721
      4          1           0       11.855139   -4.037886    5.265202
      5          1           0       13.026340   -2.947757    4.487108
      6          1           0       11.705964   -2.277019    5.474717
      7          7           0       10.222789   -1.995087    3.452439
      8          6           0        9.375467   -1.733411    2.305194
      9          6           0       10.107646   -1.005851    1.178664
     10          8           0       10.620276    0.087612    1.365607
     11          6           0        8.101634   -1.033033    2.774683
     12          6           0        7.077870   -0.622688    1.725242
     13          8           0        5.899169   -0.385885    2.064930
     14          8           0        7.413337   -0.580994    0.518667
     15          1           0       10.393167   -1.137210    3.964902
     16          1           0        9.176914   -2.721915    1.887298
     17          1           0        8.311016   -0.115518    3.326158
     18          1           0        7.512466   -1.650734    3.444181
     19          7           0       10.247854   -1.659134    0.019844
     20          6           0       11.227185   -1.199655   -0.946535
     21          6           0       10.741409    0.012323   -1.726618
     22          8           0       11.555199    0.786448   -2.206178
     23          6           0       11.549101   -2.364185   -1.879724
     24          6           0       12.259902   -3.593751   -1.323369
     25          6           0       12.437186   -4.741324   -2.312180
     26          6           0       13.156752   -5.945268   -1.711477
     27          7           0       14.417146   -5.602593   -1.042387
     28          1           0        9.764165   -2.537577   -0.094104
     29          1           0       12.219159   -0.963876   -0.568520
     30          1           0       12.251380   -2.004133   -2.632430
     31          1           0       10.638643   -2.651641   -2.406349
     32          1           0       11.705493   -3.887618   -0.435184
     33          1           0       13.220951   -3.212838   -0.982502
     34          1           0       12.999158   -4.364965   -3.175106
     35          1           0       11.427330   -5.037797   -2.597478
     36          1           0       13.411317   -6.584373   -2.562853
     37          1           0       12.496127   -6.521785   -1.071944
     38          1           0       15.135742   -5.161008   -1.595129
     39          1           0       14.329556   -4.840319   -0.389880
     40          1           0       14.837353   -6.380619   -0.547411
     41          7           0        9.430343    0.265643   -1.769431
     42          6           0        8.817251    1.471563   -2.297613
     43          6           0        8.472077    2.449801   -1.184552
     44          8           0        8.346183    3.632590   -1.498016
     45          6           0        7.565905    1.196365   -3.122476
     46          6           0        6.585183    0.358397   -2.309213
     47          8           0        6.671440   -0.888342   -2.309499
     48          8           0        5.685834    0.947811   -1.680513
     49          1           0        8.845565   -0.509590   -1.517143
     50          1           0        9.548896    1.878793   -2.995439
     51          1           0        7.816207    0.670396   -4.045138
     52          1           0        7.106231    2.147748   -3.391864
     53          7           0        8.282285    2.076560    0.083309
     54          6           0        8.008446    2.960111    1.203152
     55          6           0        6.565514    3.423546    1.396482
     56          8           0        6.322616    4.360015    2.148165
     57          1           0        8.414482    1.092115    0.253876
     58          1           0        8.709188    3.788009    1.100459
     59          1           0        8.215943    2.383037    2.111133
     60          7           0        5.604199    2.929461    0.613697
     61          6           0        4.246822    3.443605    0.659349
     62          6           0        3.102846    2.432768    0.569747
     63          8           0        3.271747    1.254778    0.276641
     64          6           0        4.117038    4.532774   -0.404261
     65          6           0        3.403637    4.046886   -1.660196
     66          7           0        3.805206    2.927976   -2.263424
     67          8           0        2.418533    4.631896   -2.107891
     68          1           0        5.835421    2.254778   -0.090745
     69          1           0        4.156442    3.961060    1.609440
     70          1           0        5.091850    4.924812   -0.701663
     71          1           0        3.513800    5.317168    0.053264
     72          1           0        4.554222    2.351114   -1.902305
     73          1           0        3.367725    2.518987   -3.077142
     74          7           0        1.874541    2.906238    0.768977
     75          6           0        0.627375    2.207365    0.546595
     76          6           0       -0.622334    2.909404    1.050945
     77          8           0       -0.670784    3.350147    2.199421
     78          1           0        1.835748    3.873854    1.076733
     79          1           0        0.712408    1.233703    1.024667
     80          1           0        0.437756    1.990035   -0.508020
     81          7           0       -1.647127    2.930299    0.192886
     82          6           0       -2.943653    3.528093    0.442008
     83          6           0       -4.032630    2.920601   -0.419143
     84          8           0       -3.906192    2.862335   -1.648419
     85          6           0       -2.918063    5.047298    0.283067
     86          6           0       -4.170289    5.836154    0.595697
     87          6           0       -5.057584    6.175486   -0.432924
     88          6           0       -4.414903    6.245960    1.915819
     89          6           0       -6.199130    6.912165   -0.125554
     90          6           0       -5.520368    7.033736    2.247419
     91          6           0       -6.408918    7.344032    1.195233
     92          8           0       -7.550657    8.059611    1.460712
     93          1           0       -1.391682    2.718872   -0.756928
     94          1           0       -3.157110    3.334456    1.502546
     95          1           0       -2.781221    5.085889   -0.794515
     96          1           0       -2.041983    5.467377    0.766925
     97          1           0       -4.761320    5.964973   -1.445452
     98          1           0       -3.868343    5.735766    2.697851
     99          1           0       -6.866524    7.339795   -0.863062
    100          1           0       -5.734350    7.276968    3.278898
    101          1           0       -7.669461    8.484325    2.314412
    102          7           0       -4.965054    2.316753    0.323725
    103          6           0       -5.864522    1.216040    0.034779
    104          6           0       -6.809607    1.415455   -1.145114
    105          8           0       -6.795802    2.485896   -1.739223
    106          6           0       -5.144801   -0.124029    0.030858
    107          6           0       -4.499706   -0.363090    1.394420
    108          6           0       -4.230682   -0.366027   -1.166775
    109          6           0       -3.870127   -1.741914    1.532176
    110          1           0       -4.776351    2.487917    1.303721
    111          1           0       -6.514175    1.358825    0.899223
    112          1           0       -5.976950   -0.829917   -0.039498
    113          1           0       -5.264545   -0.161996    2.146471
    114          1           0       -3.632863    0.284775    1.572617
    115          1           0       -3.451698    0.392204   -1.251447
    116          1           0       -3.976955   -1.420478   -1.128607
    117          1           0       -4.831656   -0.391676   -2.074945
    118          1           0       -3.005391   -2.009761    0.920712
    119          1           0       -3.564269   -1.870903    2.574487
    120          1           0       -4.585797   -2.542225    1.351291
    121          7           0       -7.756582    0.487545   -1.220092
    122          6           0       -8.816761    0.304773   -2.190255
    123          6           0      -10.208058    0.085822   -1.612887
    124          8           0      -11.198034    0.102198   -2.339921
    125          6           0       -8.443797   -0.901397   -3.062122
    126          8           0       -8.261635   -2.133471   -2.406598
    127          1           0       -7.643943   -0.294308   -0.580938
    128          1           0       -8.768210    1.133730   -2.908776
    129          1           0       -7.538478   -0.565128   -3.584158
    130          1           0       -9.306736   -1.065708   -3.696345
    131          1           0       -7.328369   -2.353144   -2.491201
    132          7           0      -10.164288   -0.235331   -0.319811
    133          6           0      -11.287926   -0.576672    0.525660
    134          6           0      -12.558667   -1.075187   -0.146055
    135          8           0      -13.577267   -0.391126   -0.170824
    136          6           0      -11.589502    0.620718    1.408784
    137          1           0       -9.274059   -0.223182    0.173692
    138          1           0      -10.875963   -1.402931    1.097485
    139          1           0      -12.149510    0.416775    2.313770
    140          1           0      -10.640821    1.001728    1.792628
    141          1           0      -11.971034    1.502092    0.873515
    142          7           0      -12.575308   -2.210897   -0.846331
    143          6           0      -11.428966   -3.056743   -1.091577
    144          6           0      -11.474150   -4.308205   -0.217563
    145          8           0      -12.504992   -4.984793   -0.177634
    146          6           0      -11.357356   -3.456428   -2.559236
    147          1           0      -13.500082   -2.519613   -1.121077
    148          1           0      -10.506340   -2.500701   -0.939002
    149          1           0      -12.267208   -3.917209   -2.931726
    150          1           0      -11.124976   -2.563690   -3.141233
    151          1           0      -10.532892   -4.155891   -2.683376
    152          7           0      -10.429423   -4.660965    0.530639
    153          6           0       -9.118624   -4.074461    0.697129
    154          6           0       -8.959047   -3.745572    2.180290
    155          8           0       -8.539098   -2.657205    2.577909
    156          6           0       -8.054788   -5.006872    0.125847
    157          6           0       -6.678322   -4.392726    0.297211
    158          6           0       -5.571554   -5.190035   -0.387669
    159          8           0       -5.415478   -5.185849   -1.631824
    160          8           0       -4.873726   -5.976810    0.294256
    161          1           0      -10.635129   -5.559118    0.948139
    162          1           0       -9.026631   -3.159594    0.116565
    163          1           0       -8.343660   -5.126557   -0.924976
    164          1           0       -8.203386   -6.000216    0.559996
    165          1           0       -6.459582   -4.235224    1.360342
    166          1           0       -6.785431   -3.399025   -0.140722
    167          7           0       -9.267669   -4.777739    2.959382
    168          6           0       -9.306402   -4.646720    4.399879
    169          1           0       -8.804496   -5.500866    4.855715
    170          1           0       -8.798903   -3.728380    4.695102
    171          1           0      -10.343434   -4.613928    4.734726
    172          1           0       -9.650364   -5.635256    2.576617
    173         20           0        4.791736   -1.048276   -0.217981
    174          8           0        5.129959   -3.380218   -1.623170
    175          1           0        4.627040   -3.591533   -2.409630
    176          1           0        5.968808   -3.821456   -1.743752
 ---------------------------------------------------------------------

 SCF Done:  E(RB3LYP) =  -5333.38720372     A.U. after   79 cycles

 The electronic state is 1-A.
 Alpha  occ. eigenvalues -- -145.48639 -19.24007 -19.14138 -19.14059 -19.13391
 Alpha  occ. eigenvalues --  -19.13213 -19.13211 -19.11787 -19.11703 -19.11645
 Alpha  occ. eigenvalues --  -19.10796 -19.10523 -19.10438 -19.08690 -19.08435
 Alpha  occ. eigenvalues --  -19.08231 -19.07954 -19.07871 -19.07715 -19.07120
 Alpha  occ. eigenvalues --  -19.06311 -19.05119 -18.97968 -18.97778 -15.54433
 Alpha  occ. eigenvalues --  -14.57762 -14.39675 -14.39603 -14.38542 -14.36707
 Alpha  occ. eigenvalues --  -14.35915 -14.35023 -14.34767 -14.34671 -14.34538
 Alpha  occ. eigenvalues --  -14.34318 -14.34069 -14.33434 -14.32702 -14.31272
 Alpha  occ. eigenvalues --  -12.68035 -12.68014 -12.67979 -10.36328 -10.32514
 Alpha  occ. eigenvalues --  -10.32070 -10.31623 -10.30977 -10.29969 -10.29792
 Alpha  occ. eigenvalues --  -10.29702 -10.29535 -10.27418 -10.27381 -10.27345
 Alpha  occ. eigenvalues --  -10.27316 -10.27111 -10.27050 -10.27024 -10.26925
 Alpha  occ. eigenvalues --  -10.26855 -10.26573 -10.25307 -10.25292 -10.25194
 Alpha  occ. eigenvalues --  -10.24674 -10.24301 -10.24125 -10.23760 -10.23077
 Alpha  occ. eigenvalues --  -10.22926 -10.22760 -10.22444 -10.22417 -10.22273
 Alpha  occ. eigenvalues --  -10.21748 -10.21478 -10.20826 -10.20747 -10.20205
 Alpha  occ. eigenvalues --  -10.19953 -10.19374 -10.18584 -10.17685 -10.17647
 Alpha  occ. eigenvalues --  -10.17489 -10.17440 -10.17407 -10.17379 -10.17369
 Alpha  occ. eigenvalues --  -10.16983 -10.16394 -10.15672 -10.15634 -10.15541
 Alpha  occ. eigenvalues --  -10.15118 -10.12928  -1.90994  -1.18400  -1.18190
 Alpha  occ. eigenvalues --   -1.17930  -1.13690  -1.09886  -1.07193  -1.06761
 Alpha  occ. eigenvalues --   -1.06685  -1.06288  -1.05957  -1.03996  -1.03353
 Alpha  occ. eigenvalues --   -1.02244  -1.02026  -1.01983  -1.01243  -1.01143
 Alpha  occ. eigenvalues --   -1.01048  -1.00629  -1.00238  -1.00232  -0.99771
 Alpha  occ. eigenvalues --   -0.98480  -0.96644  -0.96381  -0.96178  -0.95984
 Alpha  occ. eigenvalues --   -0.94800  -0.93169  -0.93054  -0.92791  -0.92278
 Alpha  occ. eigenvalues --   -0.92038  -0.91664  -0.91611  -0.90944  -0.90831
 Alpha  occ. eigenvalues --   -0.90186  -0.89433  -0.88135  -0.87640  -0.85400
 Alpha  occ. eigenvalues --   -0.83500  -0.82155  -0.81549  -0.81234  -0.80132
 Alpha  occ. eigenvalues --   -0.79829  -0.78517  -0.78162  -0.77174  -0.76571
 Alpha  occ. eigenvalues --   -0.76563  -0.74996  -0.74362  -0.74004  -0.73514
 Alpha  occ. eigenvalues --   -0.72917  -0.72911  -0.72740  -0.71446  -0.71216
 Alpha  occ. eigenvalues --   -0.70777  -0.70669  -0.69883  -0.69568  -0.67793
 Alpha  occ. eigenvalues --   -0.67057  -0.66208  -0.65919  -0.64997  -0.64686
 Alpha  occ. eigenvalues --   -0.64580  -0.63339  -0.63330  -0.63256  -0.62735
 Alpha  occ. eigenvalues --   -0.62528  -0.62448  -0.61573  -0.61008  -0.60570
 Alpha  occ. eigenvalues --   -0.60065  -0.59560  -0.59370  -0.59100  -0.58892
 Alpha  occ. eigenvalues --   -0.58664  -0.58328  -0.58305  -0.58000  -0.57716
 Alpha  occ. eigenvalues --   -0.57668  -0.57325  -0.56927  -0.56535  -0.56475
 Alpha  occ. eigenvalues --   -0.55320  -0.54945  -0.54695  -0.54210  -0.53858
 Alpha  occ. eigenvalues --   -0.53659  -0.53317  -0.53071  -0.52866  -0.52345
 Alpha  occ. eigenvalues --   -0.52140  -0.52042  -0.51804  -0.51628  -0.51231
 Alpha  occ. eigenvalues --   -0.50916  -0.50813  -0.50572  -0.50485  -0.50031
 Alpha  occ. eigenvalues --   -0.49719  -0.49183  -0.49141  -0.48753  -0.48328
 Alpha  occ. eigenvalues --   -0.48179  -0.47907  -0.47654  -0.47537  -0.47159
 Alpha  occ. eigenvalues --   -0.47075  -0.46806  -0.46643  -0.46592  -0.46545
 Alpha  occ. eigenvalues --   -0.46472  -0.46308  -0.46145  -0.45948  -0.45802
 Alpha  occ. eigenvalues --   -0.45524  -0.45399  -0.44993  -0.44922  -0.44851
 Alpha  occ. eigenvalues --   -0.44623  -0.44534  -0.44465  -0.44318  -0.44191
 Alpha  occ. eigenvalues --   -0.43924  -0.43890  -0.43795  -0.43771  -0.43240
 Alpha  occ. eigenvalues --   -0.42954  -0.42827  -0.42685  -0.42511  -0.42445
 Alpha  occ. eigenvalues --   -0.42209  -0.42171  -0.41858  -0.41575  -0.41426
 Alpha  occ. eigenvalues --   -0.41335  -0.41238  -0.41218  -0.40945  -0.40795
 Alpha  occ. eigenvalues --   -0.40647  -0.40585  -0.40392  -0.40269  -0.40156
 Alpha  occ. eigenvalues --   -0.40035  -0.39539  -0.39449  -0.39417  -0.39225
 Alpha  occ. eigenvalues --   -0.39146  -0.39064  -0.39027  -0.38842  -0.38644
 Alpha  occ. eigenvalues --   -0.38568  -0.38488  -0.38299  -0.38076  -0.37823
 Alpha  occ. eigenvalues --   -0.37581  -0.37539  -0.37014  -0.36777  -0.36649
 Alpha  occ. eigenvalues --   -0.36592  -0.36367  -0.36137  -0.35980  -0.35775
 Alpha  occ. eigenvalues --   -0.35645  -0.35329  -0.35265  -0.35159  -0.35067
 Alpha  occ. eigenvalues --   -0.34993  -0.34982  -0.34597  -0.34443  -0.33697
 Alpha  occ. eigenvalues --   -0.33541  -0.33487  -0.33169  -0.32892  -0.32696
 Alpha  occ. eigenvalues --   -0.32463  -0.32218  -0.32069  -0.31700  -0.31547
 Alpha  occ. eigenvalues --   -0.31277  -0.31166  -0.31158  -0.30652  -0.29992
 Alpha  occ. eigenvalues --   -0.29871  -0.29403  -0.29320  -0.28926  -0.28614
 Alpha  occ. eigenvalues --   -0.28557  -0.28162  -0.28133  -0.27940  -0.27851
 Alpha  occ. eigenvalues --   -0.27349  -0.27306  -0.26985  -0.26257  -0.26205
 Alpha  occ. eigenvalues --   -0.26186  -0.26097  -0.25783  -0.25521  -0.25353
 Alpha  occ. eigenvalues --   -0.24980  -0.24686  -0.24449  -0.24352  -0.24090
 Alpha  occ. eigenvalues --   -0.23397  -0.23264  -0.23245  -0.22768  -0.22548
 Alpha  occ. eigenvalues --   -0.22450  -0.21931  -0.21451  -0.20732  -0.20527
 Alpha  occ. eigenvalues --   -0.15621  -0.14819  -0.11722
 Alpha virt. eigenvalues --   -0.11192  -0.10631  -0.05270  -0.04721  -0.03545
 Alpha virt. eigenvalues --   -0.02702  -0.02551  -0.01576  -0.01424  -0.00695
 Alpha virt. eigenvalues --   -0.00614  -0.00291   0.00039   0.00147   0.00882

 Mulliken charges:
               1
     1  C    0.070150
     2  C    0.019065
     3  O   -0.322397
     4  H    0.047763
     5  H    0.036453
     6  H    0.008543
     7  N   -0.120087
     8  C    0.138208
     9  C    0.086219
    10  O   -0.268420
    11  C    0.100345
    12  C    0.048142
    13  O   -0.407580
    14  O   -0.419876
    15  H    0.131628
    16  H   -0.038259
    17  H    0.032309
    18  H    0.022459
    19  N   -0.124773
    20  C    0.166903
    21  C    0.060401
    22  O   -0.263046
    23  C   -0.028145
    24  C   -0.011859
    25  C   -0.008629
    26  C    0.090922
    27  N    0.139151
    28  H    0.120406
    29  H    0.003787
    30  H    0.017717
    31  H   -0.003833
    32  H    0.012693
    33  H   -0.028698
    34  H    0.033312
    35  H    0.042793
    36  H    0.057481
    37  H    0.072390
    38  H    0.097586
    39  H    0.130934
    40  H    0.115656
    41  N   -0.141299
    42  C    0.097959
    43  C    0.055806
    44  O   -0.286320
    45  C    0.147765
    46  C    0.105625
    47  O   -0.416367
    48  O   -0.437537
    49  H    0.121282
    50  H    0.029528
    51  H    0.001482
    52  H    0.026701
    53  N   -0.176870
    54  C    0.231795
    55  C    0.037957
    56  O   -0.293220
    57  H    0.156807
    58  H    0.048186
    59  H    0.018355
    60  N   -0.133754
    61  C    0.032056
    62  C    0.154915
    63  O   -0.378440
    64  C    0.143749
    65  C   -0.049656
    66  N   -0.061641
    67  O   -0.267523
    68  H    0.140179
    69  H    0.034381
    70  H    0.058815
    71  H    0.007937
    72  H    0.102854
    73  H    0.109417
    74  N   -0.126957
    75  C    0.253505
    76  C    0.008884
    77  O   -0.277032
    78  H    0.144149
    79  H    0.025987
    80  H   -0.001275
    81  N   -0.125125
    82  C    0.090609
    83  C    0.105821
    84  O   -0.273356
    85  C    0.150868
    86  C   -0.079284
    87  C    0.037140
    88  C   -0.015990
    89  C    0.006792
    90  C   -0.037192
    91  C    0.164935
    92  O   -0.228117
    93  H    0.132873
    94  H   -0.013720
    95  H   -0.009325
    96  H    0.006758
    97  H   -0.009300
    98  H   -0.019384
    99  H   -0.015388
   100  H   -0.041820
   101  H    0.175722
   102  N   -0.119812
   103  C    0.100178
   104  C    0.081712
   105  O   -0.224227
   106  C   -0.104207
   107  C    0.024209
   108  C    0.094004
   109  C    0.015697
   110  H    0.123120
   111  H    0.001189
   112  H   -0.016563
   113  H   -0.006807
   114  H   -0.013815
   115  H    0.025748
   116  H    0.024275
   117  H   -0.011170
   118  H    0.011888
   119  H   -0.005272
   120  H    0.030271
   121  N   -0.175514
   122  C    0.087951
   123  C    0.122696
   124  O   -0.253898
   125  C    0.194168
   126  O   -0.306673
   127  H    0.129557
   128  H    0.037343
   129  H    0.018977
   130  H    0.018780
   131  H    0.189518
   132  N   -0.171636
   133  C    0.046474
   134  C    0.061483
   135  O   -0.259618
   136  C    0.114025
   137  H    0.124916
   138  H    0.003178
   139  H    0.010012
   140  H   -0.035200
   141  H    0.033750
   142  N   -0.082937
   143  C    0.019001
   144  C    0.054666
   145  O   -0.294074
   146  C    0.074807
   147  H    0.127696
   148  H    0.017872
   149  H    0.011115
   150  H    0.026308
   151  H    0.010445
   152  N   -0.106224
   153  C    0.053032
   154  C    0.102173
   155  O   -0.288066
   156  C    0.084971
   157  C    0.044113
   158  C    0.045668
   159  O   -0.361647
   160  O   -0.350244
   161  H    0.106467
   162  H    0.002315
   163  H    0.008200
   164  H   -0.028900
   165  H    0.007937
   166  H   -0.056216
   167  N   -0.163023
   168  C    0.116927
   169  H    0.022788
   170  H    0.046309
   171  H    0.022101
   172  H    0.116014
   173  Ca   1.394325
   174  O   -0.304326
   175  H    0.194419
   176  H    0.195760
 Sum of Mulliken charges =  -0.00000

 Dipole moment (field-independent basis, Debye):
    X=             62.8906    Y=            -23.1123    Z=              3.8418  Tot=             67.1131
 Quadrupole moment (field-independent basis, Debye-Ang):
   XX=           -284.1795   YY=           -567.6055   ZZ=           -545.3759
   XY=           -412.4538   XZ=           -104.2256   YZ=             39.4534

 ESP charges:
               1
     1  C   -0.489021
     2  C    0.746985
     3  O   -0.614343
     4  H    0.155169
     5  H    0.133407
     6  H    0.117595
     7  N   -0.566844
     8  C    0.257958
     9  C    0.435811
    10  O   -0.493908
    11  C   -0.404855
    12  C    0.782829
    13  O   -0.746349
    14  O   -0.827728
    15  H    0.302883
    16  H    0.030148
    17  H    0.164262
    18  H    0.109849
    19  N   -0.384865
    20  C   -0.038908
    21  C    0.551948
    22  O   -0.543454
    23  C   -0.253837
    24  C    0.350488
    25  C   -0.157586
    26  C    0.025534
    27  N   -0.182862
    28  H    0.309320
    29  H    0.124961
    30  H    0.071952
    31  H    0.053216
    32  H   -0.089814
    33  H   -0.053526
    34  H    0.049997
    35  H    0.076730
    36  H    0.069082
    37  H    0.095160
    38  H    0.223724
    39  H    0.217731
    40  H    0.220331
    41  N   -0.425083
    42  C    0.110855
    43  C    0.341987
    44  O   -0.538806
    45  C   -0.234896
    46  C    0.818804
    47  O   -0.766959
    48  O   -0.833126
    49  H    0.303354
    50  H    0.108368
    51  H    0.072978
    52  H    0.081053
    53  N    0.175636
    54  C   -0.524123
    55  C    0.750920
    56  O   -0.576477
    57  H    0.028299
    58  H    0.190986
    59  H    0.162266
    60  N   -0.579613
    61  C    0.248724
    62  C    0.421170
    63  O   -0.612773
    64  C   -0.313724
    65  C    0.598172
    66  N   -0.649125
    67  O   -0.573734
    68  H    0.362217
    69  H    0.043666
    70  H    0.150415
    71  H    0.091053
    72  H    0.313025
    73  H    0.326320
    74  N   -0.244614
    75  C   -0.240098
    76  C    0.749121
    77  O   -0.567986
    78  H    0.253715
    79  H    0.119602
    80  H    0.099398
    81  N   -0.662341
    82  C    0.166851
    83  C    0.533812
    84  O   -0.501736
    85  C   -0.176286
    86  C   -0.011872
    87  C   -0.159973
    88  C   -0.109104
    89  C   -0.177647
    90  C   -0.319694
    91  C    0.372100
    92  O   -0.582821
    93  H    0.346969
    94  H    0.047615
    95  H    0.061346
    96  H    0.104752
    97  H    0.160552
    98  H    0.122820
    99  H    0.138939
   100  H    0.151664
   101  H    0.422274
   102  N   -0.367505
   103  C   -0.285293
   104  C    0.706252
   105  O   -0.498463
   106  C    0.316574
   107  C   -0.034359
   108  C   -0.407971
   109  C   -0.163109
   110  H    0.246667
   111  H    0.131686
   112  H   -0.034125
   113  H    0.022792
   114  H    0.008536
   115  H    0.098118
   116  H    0.107005
   117  H    0.117237
   118  H    0.048112
   119  H    0.039485
   120  H    0.058098
   121  N   -0.531198
   122  C   -0.070086
   123  C    0.459104
   124  O   -0.480743
   125  C    0.078244
   126  O   -0.568021
   127  H    0.277419
   128  H    0.124434
   129  H    0.067618
   130  H    0.040558
   131  H    0.400332
   132  N   -0.246990
   133  C    0.356029
   134  C    0.424804
   135  O   -0.510775
   136  C   -0.464267
   137  H    0.155893
   138  H   -0.038734
   139  H    0.122460
   140  H    0.090111
   141  H    0.137123
   142  N   -0.591902
   143  C    0.326009
   144  C    0.482987
   145  O   -0.570518
   146  C   -0.303447
   147  H    0.349121
   148  H    0.216171
   149  H    0.078326
   150  H    0.095137
   151  H    0.073168
   152  N   -0.454538
   153  C   -0.571854
   154  C    0.745158
   155  O   -0.552792
   156  C    0.370420
   157  C   -0.590614
   158  C    0.774063
   159  O   -0.664365
   160  O   -0.643331
   161  H    0.296713
   162  H    0.163105
   163  H    0.010031
   164  H   -0.017577
   165  H    0.133435
   166  H    0.117674
   167  N   -0.389843
   168  C   -0.106368
   169  H    0.071229
   170  H    0.091242
   171  H    0.062261
   172  H    0.319570
   173  Ca   1.715909
   174  O   -0.847167
   175  H    0.438361
   176  H    0.442818
 Sum of ESP charges =   0.00000

 Normal termination of Gaussian 16 at Wed Sep 18 00:07:24 2019.
