 Gaussian 16, Revision A.03,
 Gaussian 16:  ES64L-G16RevA.03 25-Dec-2016

 ----------------------------------------------------------------------
 #b3lyp/svp scf=(tight,noincore) Test #IOP(5/87=12) Density=Current Pop
 =(MK,readradii) iop(6/33=2) iop(6/42=6)
 ----------------------------------------------------------------------

 -----------------
 Ng-295_loop3_13.0
 -----------------
 Symbolic Z-matrix:
 Charge =  0 Multiplicity = 1

                         Standard orientation:
 ---------------------------------------------------------------------
 Center     Atomic      Atomic             Coordinates (Angstroms)
 Number     Number       Type             X           Y           Z
 ---------------------------------------------------------------------
      1          6           0        7.165918   -6.394008    3.922432
      2          6           0        6.141530   -5.740183    2.999316
      3          8           0        5.424300   -6.427711    2.266796
      4          1           0        6.691642   -7.206433    4.472601
      5          1           0        7.990266   -6.790120    3.329288
      6          1           0        7.546827   -5.652989    4.625755
      7          7           0        6.266228   -4.414862    2.912859
      8          6           0        5.754339   -3.651899    1.796008
      9          6           0        6.519407   -3.724518    0.482730
     10          8           0        7.689514   -3.355744    0.411634
     11          6           0        5.565622   -2.221374    2.274531
     12          6           0        4.902606   -1.237228    1.311429
     13          8           0        5.391464   -0.101051    1.177947
     14          8           0        3.870075   -1.622022    0.715430
     15          1           0        6.831598   -3.931378    3.598424
     16          1           0        4.725060   -3.972756    1.640010
     17          1           0        6.560787   -1.866195    2.540793
     18          1           0        4.936235   -2.259080    3.159885
     19          7           0        5.798932   -4.039586   -0.603432
     20          6           0        6.321752   -4.091881   -1.949918
     21          6           0        6.812545   -2.762984   -2.524598
     22          8           0        7.714896   -2.836099   -3.349047
     23          6           0        5.325724   -4.682264   -2.944038
     24          6           0        4.121262   -3.768506   -3.132233
     25          6           0        3.071078   -4.622960   -3.838719
     26          6           0        1.649512   -4.208076   -3.495321
     27          7           0        1.371297   -2.795896   -3.829604
     28          1           0        4.930583   -4.475574   -0.353663
     29          1           0        7.219168   -4.687490   -1.793411
     30          1           0        5.094631   -5.643221   -2.469742
     31          1           0        5.758053   -4.954616   -3.912654
     32          1           0        4.378014   -2.938681   -3.792664
     33          1           0        3.739807   -3.399058   -2.177194
     34          1           0        3.107524   -5.655195   -3.453542
     35          1           0        3.232391   -4.670993   -4.918382
     36          1           0        1.409061   -4.432921   -2.454059
     37          1           0        0.867717   -4.819383   -3.954123
     38          1           0        1.414471   -2.738725   -4.835271
     39          1           0        0.440273   -2.510758   -3.533477
     40          1           0        2.016018   -2.142306   -3.420024
     41          7           0        6.234529   -1.615742   -2.149988
     42          6           0        6.523701   -0.392124   -2.863107
     43          6           0        7.275616    0.738308   -2.169746
     44          8           0        7.579987    1.710869   -2.846269
     45          6           0        5.296353    0.177540   -3.579767
     46          6           0        4.280919    0.396495   -2.467493
     47          8           0        4.469615    1.308304   -1.632749
     48          8           0        3.260302   -0.296755   -2.315353
     49          1           0        5.613195   -1.684447   -1.360417
     50          1           0        7.162506   -0.599958   -3.723532
     51          1           0        4.930117   -0.618384   -4.228903
     52          1           0        5.477950    1.188665   -3.954397
     53          7           0        7.522283    0.590932   -0.870387
     54          6           0        8.347711    1.511364   -0.107055
     55          6           0        7.628595    2.733880    0.424477
     56          8           0        8.205022    3.586107    1.107515
     57          1           0        6.976978   -0.119030   -0.404559
     58          1           0        9.057265    1.860593   -0.850541
     59          1           0        8.755940    1.015131    0.775896
     60          7           0        6.318939    2.827481    0.200555
     61          6           0        5.426084    3.838878    0.744048
     62          6           0        4.452228    3.228076    1.734768
     63          8           0        3.693633    2.350502    1.344258
     64          6           0        4.675935    4.490761   -0.410129
     65          6           0        3.943133    5.777016   -0.055939
     66          7           0        4.379809    6.940254   -0.545011
     67          8           0        2.990063    5.740646    0.716158
     68          1           0        5.867546    2.095376   -0.333362
     69          1           0        5.917929    4.646565    1.285092
     70          1           0        3.875820    3.876552   -0.818374
     71          1           0        5.425138    4.694935   -1.173285
     72          1           0        5.110984    6.829539   -1.233869
     73          1           0        3.813594    7.745282   -0.312352
     74          7           0        4.263306    3.769750    2.941539
     75          6           0        3.278496    3.269615    3.887169
     76          6           0        1.796000    3.415746    3.568027
     77          8           0        0.977298    3.061760    4.406192
     78          1           0        4.673132    4.671435    3.147714
     79          1           0        3.358550    3.796890    4.842455
     80          1           0        3.636813    2.263969    4.099741
     81          7           0        1.367230    3.883787    2.399098
     82          6           0       -0.024846    3.978556    1.985161
     83          6           0       -0.497898    2.620986    1.500471
     84          8           0        0.289447    1.840817    0.955749
     85          6           0       -0.158434    5.076665    0.933632
     86          6           0       -1.530540    5.163425    0.308894
     87          6           0       -1.682541    4.643040   -0.984588
     88          6           0       -2.557855    5.898826    0.908485
     89          6           0       -2.911286    4.778230   -1.631741
     90          6           0       -3.762973    6.108176    0.224700
     91          6           0       -3.947120    5.546814   -1.055091
     92          8           0       -5.115418    5.521171   -1.756820
     93          1           0        2.075179    4.302729    1.809357
     94          1           0       -0.656744    4.262531    2.826744
     95          1           0        0.685871    4.913895    0.266957
     96          1           0        0.057871    5.970840    1.532099
     97          1           0       -0.915495    4.049471   -1.456730
     98          1           0       -2.431445    6.310772    1.897687
     99          1           0       -3.052514    4.422959   -2.646797
    100          1           0       -4.616399    6.605911    0.660042
    101          1           0       -5.845856    5.947535   -1.304742
    102          7           0       -1.767145    2.290344    1.715849
    103          6           0       -2.614173    1.200036    1.277133
    104          6           0       -2.907903    1.285114   -0.216917
    105          8           0       -1.989582    1.484581   -1.006093
    106          6           0       -2.162975   -0.127877    1.882664
    107          6           0       -2.472356   -1.296799    0.951854
    108          6           0       -2.806226   -0.267088    3.249685
    109          6           0       -2.237285   -2.663109    1.577744
    110          1           0       -2.243903    2.945337    2.330329
    111          1           0       -3.524760    1.509963    1.797688
    112          1           0       -1.086803   -0.129120    2.017392
    113          1           0       -1.844173   -1.096552    0.075391
    114          1           0       -3.539763   -1.223523    0.761140
    115          1           0       -2.749439    0.621465    3.873103
    116          1           0       -3.885110   -0.466586    3.252783
    117          1           0       -2.188344   -1.046219    3.697878
    118          1           0       -2.966835   -2.775922    2.382933
    119          1           0       -2.461145   -3.390445    0.796226
    120          1           0       -1.185718   -2.757965    1.834665
    121          7           0       -4.185328    1.100900   -0.553890
    122          6           0       -4.675260    1.115751   -1.915377
    123          6           0       -6.155347    1.447791   -2.044961
    124          8           0       -6.551226    1.756841   -3.159666
    125          6           0       -4.462701   -0.308402   -2.428411
    126          8           0       -4.867752   -1.303113   -1.506791
    127          1           0       -4.781598    0.687227    0.145851
    128          1           0       -4.114626    1.790674   -2.559635
    129          1           0       -3.422173   -0.519775   -2.641067
    130          1           0       -5.021159   -0.314334   -3.362965
    131          1           0       -4.525511   -2.143718   -1.816716
    132          7           0       -6.947954    1.298474   -0.985820
    133          6           0       -8.313228    1.775538   -1.018008
    134          6           0       -9.210517    1.054196   -2.011556
    135          8           0       -9.798151    1.710031   -2.867282
    136          6           0       -8.422797    3.294771   -1.059548
    137          1           0       -6.559112    1.138289   -0.062921
    138          1           0       -8.822565    1.647714   -0.054766
    139          1           0       -7.731667    3.852224   -0.427025
    140          1           0       -8.359484    3.728329   -2.060058
    141          1           0       -9.431230    3.562911   -0.733107
    142          7           0       -9.578136   -0.220438   -1.883624
    143          6           0       -8.716226   -1.255809   -1.351819
    144          6           0       -9.521955   -2.287556   -0.583445
    145          8           0      -10.731215   -2.375436   -0.771512
    146          6           0       -7.863727   -1.858754   -2.462091
    147          1           0      -10.428031   -0.547084   -2.336923
    148          1           0       -8.106784   -0.747967   -0.599437
    149          1           0       -8.510417   -2.472028   -3.091604
    150          1           0       -7.505148   -1.078936   -3.128052
    151          1           0       -7.066215   -2.503474   -2.073619
    152          7           0       -9.048267   -2.962789    0.465259
    153          6           0       -7.710968   -2.831050    1.004868
    154          6           0       -7.690345   -2.431116    2.469323
    155          8           0       -6.954052   -1.499632    2.793528
    156          6           0       -7.005051   -4.145825    0.684794
    157          6           0       -5.545276   -4.142077    1.128915
    158          6           0       -4.937612   -5.516873    0.880560
    159          8           0       -5.034627   -6.448476    1.713690
    160          8           0       -4.342872   -5.823658   -0.167660
    161          1           0       -9.635786   -3.701215    0.827126
    162          1           0       -7.129801   -2.088325    0.451060
    163          1           0       -7.029771   -4.308180   -0.399609
    164          1           0       -7.600662   -4.986647    1.027964
    165          1           0       -5.498314   -3.978232    2.211573
    166          1           0       -5.023055   -3.276650    0.730894
    167          7           0       -8.543809   -2.983807    3.325028
    168          6           0       -8.744467   -2.705920    4.729989
    169          1           0       -8.581597   -3.616267    5.306429
    170          1           0       -8.039363   -1.939905    5.053968
    171          1           0       -9.764022   -2.353355    4.889314
    172          1           0       -9.200551   -3.663789    2.968917
    173         20           0        2.456877    0.497927    0.094553
    174          8           0        1.267881   -1.778993    0.472605
    175          1           0        2.108977   -2.243359    0.539093
    176          1           0        0.644788   -2.456130    0.204013
 ---------------------------------------------------------------------

 SCF Done:  E(RB3LYP) =  -5333.46589879     A.U. after   28 cycles

 The electronic state is 1-A.
 Alpha  occ. eigenvalues -- -145.43934 -19.19968 -19.18129 -19.15956 -19.15021
 Alpha  occ. eigenvalues --  -19.14392 -19.13909 -19.12387 -19.12025 -19.11831
 Alpha  occ. eigenvalues --  -19.11514 -19.11226 -19.10706 -19.10695 -19.10195
 Alpha  occ. eigenvalues --  -19.10129 -19.09653 -19.09310 -19.08832 -19.08667
 Alpha  occ. eigenvalues --  -19.08309 -19.07751 -18.96372 -18.95712 -15.49741
 Alpha  occ. eigenvalues --  -14.54974 -14.40163 -14.39487 -14.39006 -14.38581
 Alpha  occ. eigenvalues --  -14.38218 -14.38096 -14.37400 -14.36838 -14.36438
 Alpha  occ. eigenvalues --  -14.35709 -14.35106 -14.35103 -14.34879 -14.33622
 Alpha  occ. eigenvalues --  -12.63362 -12.63308 -12.63291 -10.33419 -10.33034
 Alpha  occ. eigenvalues --  -10.32394 -10.32278 -10.30975 -10.30200 -10.30131
 Alpha  occ. eigenvalues --  -10.29995 -10.29712 -10.29621 -10.29583 -10.29084
 Alpha  occ. eigenvalues --  -10.28075 -10.27884 -10.27785 -10.27577 -10.27391
 Alpha  occ. eigenvalues --  -10.27159 -10.27011 -10.26774 -10.26418 -10.25993
 Alpha  occ. eigenvalues --  -10.25721 -10.25607 -10.25581 -10.25479 -10.25087
 Alpha  occ. eigenvalues --  -10.24770 -10.24767 -10.24093 -10.23977 -10.23212
 Alpha  occ. eigenvalues --  -10.22914 -10.22775 -10.22354 -10.22039 -10.21671
 Alpha  occ. eigenvalues --  -10.21638 -10.21281 -10.21209 -10.20798 -10.20674
 Alpha  occ. eigenvalues --  -10.20368 -10.20210 -10.20202 -10.19684 -10.18684
 Alpha  occ. eigenvalues --  -10.18459 -10.18354 -10.18103 -10.17387 -10.16331
 Alpha  occ. eigenvalues --  -10.16231 -10.13039  -1.86414  -1.14091  -1.13777
 Alpha  occ. eigenvalues --   -1.13538  -1.10527  -1.08332  -1.06903  -1.06798
 Alpha  occ. eigenvalues --   -1.06624  -1.06586  -1.06093  -1.05632  -1.05343
 Alpha  occ. eigenvalues --   -1.04871  -1.04693  -1.04270  -1.03878  -1.03713
 Alpha  occ. eigenvalues --   -1.02696  -1.02643  -1.02567  -1.01798  -1.01645
 Alpha  occ. eigenvalues --   -1.01203  -0.96249  -0.95935  -0.95896  -0.95524
 Alpha  occ. eigenvalues --   -0.95211  -0.95140  -0.94370  -0.94280  -0.93967
 Alpha  occ. eigenvalues --   -0.93607  -0.93456  -0.92634  -0.92321  -0.91555
 Alpha  occ. eigenvalues --   -0.91414  -0.91149  -0.90687  -0.88429  -0.86992
 Alpha  occ. eigenvalues --   -0.83884  -0.83097  -0.81687  -0.81005  -0.80271
 Alpha  occ. eigenvalues --   -0.80128  -0.79801  -0.79738  -0.77448  -0.77106
 Alpha  occ. eigenvalues --   -0.77033  -0.76634  -0.76296  -0.76083  -0.75746
 Alpha  occ. eigenvalues --   -0.74235  -0.73973  -0.73272  -0.71921  -0.71812
 Alpha  occ. eigenvalues --   -0.71074  -0.70179  -0.69972  -0.68254  -0.68122
 Alpha  occ. eigenvalues --   -0.67902  -0.67529  -0.67193  -0.67063  -0.66117
 Alpha  occ. eigenvalues --   -0.65733  -0.65516  -0.64672  -0.64399  -0.63836
 Alpha  occ. eigenvalues --   -0.63255  -0.62518  -0.62005  -0.61917  -0.61460
 Alpha  occ. eigenvalues --   -0.61045  -0.60796  -0.60454  -0.60242  -0.59917
 Alpha  occ. eigenvalues --   -0.59899  -0.59842  -0.59810  -0.59410  -0.59194
 Alpha  occ. eigenvalues --   -0.58835  -0.58380  -0.58351  -0.57953  -0.57274
 Alpha  occ. eigenvalues --   -0.57151  -0.56767  -0.56418  -0.55869  -0.55809
 Alpha  occ. eigenvalues --   -0.54987  -0.54627  -0.54073  -0.53475  -0.53253
 Alpha  occ. eigenvalues --   -0.53133  -0.52918  -0.52776  -0.52459  -0.52151
 Alpha  occ. eigenvalues --   -0.52024  -0.51523  -0.51151  -0.50993  -0.50854
 Alpha  occ. eigenvalues --   -0.50795  -0.50755  -0.50518  -0.49978  -0.49427
 Alpha  occ. eigenvalues --   -0.49140  -0.49096  -0.48889  -0.48596  -0.48416
 Alpha  occ. eigenvalues --   -0.48316  -0.48183  -0.47982  -0.47792  -0.47505
 Alpha  occ. eigenvalues --   -0.47285  -0.47125  -0.46915  -0.46849  -0.46729
 Alpha  occ. eigenvalues --   -0.46344  -0.46279  -0.46105  -0.46031  -0.45913
 Alpha  occ. eigenvalues --   -0.45697  -0.45616  -0.45417  -0.45324  -0.45160
 Alpha  occ. eigenvalues --   -0.45126  -0.44904  -0.44812  -0.44770  -0.44626
 Alpha  occ. eigenvalues --   -0.44513  -0.44430  -0.44226  -0.43649  -0.43365
 Alpha  occ. eigenvalues --   -0.43298  -0.43236  -0.43087  -0.43039  -0.42873
 Alpha  occ. eigenvalues --   -0.42766  -0.42606  -0.42387  -0.42099  -0.41985
 Alpha  occ. eigenvalues --   -0.41886  -0.41805  -0.41639  -0.41578  -0.41502
 Alpha  occ. eigenvalues --   -0.41443  -0.40954  -0.40884  -0.40665  -0.40618
 Alpha  occ. eigenvalues --   -0.40556  -0.40483  -0.40233  -0.40179  -0.40052
 Alpha  occ. eigenvalues --   -0.39750  -0.39298  -0.39281  -0.39177  -0.39023
 Alpha  occ. eigenvalues --   -0.39007  -0.38897  -0.38685  -0.38595  -0.38175
 Alpha  occ. eigenvalues --   -0.38099  -0.37982  -0.37912  -0.37870  -0.37772
 Alpha  occ. eigenvalues --   -0.37542  -0.37430  -0.37396  -0.37159  -0.36909
 Alpha  occ. eigenvalues --   -0.36847  -0.36612  -0.36258  -0.36165  -0.35940
 Alpha  occ. eigenvalues --   -0.35918  -0.35838  -0.35159  -0.35050  -0.34899
 Alpha  occ. eigenvalues --   -0.34822  -0.34524  -0.34172  -0.32855  -0.32623
 Alpha  occ. eigenvalues --   -0.32042  -0.31510  -0.31333  -0.31321  -0.30760
 Alpha  occ. eigenvalues --   -0.30238  -0.30190  -0.29943  -0.29845  -0.29702
 Alpha  occ. eigenvalues --   -0.29486  -0.29255  -0.28970  -0.28741  -0.28303
 Alpha  occ. eigenvalues --   -0.28197  -0.28140  -0.27854  -0.27711  -0.27523
 Alpha  occ. eigenvalues --   -0.27511  -0.27310  -0.27110  -0.26707  -0.26502
 Alpha  occ. eigenvalues --   -0.26423  -0.26345  -0.26242  -0.26044  -0.25781
 Alpha  occ. eigenvalues --   -0.25692  -0.25394  -0.25352  -0.24720  -0.24504
 Alpha  occ. eigenvalues --   -0.24177  -0.24117  -0.23866  -0.23300  -0.23001
 Alpha  occ. eigenvalues --   -0.15015  -0.13308  -0.10021
 Alpha virt. eigenvalues --   -0.08573  -0.04423  -0.03767  -0.03732  -0.02963
 Alpha virt. eigenvalues --   -0.02209  -0.01944  -0.01556  -0.01401  -0.00968
 Alpha virt. eigenvalues --   -0.00770  -0.00713  -0.00062   0.00242   0.00305

 Mulliken charges:
               1
     1  C    0.046005
     2  C    0.034839
     3  O   -0.294869
     4  H    0.035653
     5  H    0.056501
     6  H   -0.006671
     7  N   -0.126621
     8  C    0.132286
     9  C    0.070789
    10  O   -0.263736
    11  C    0.054835
    12  C    0.100425
    13  O   -0.343103
    14  O   -0.490863
    15  H    0.126942
    16  H   -0.020120
    17  H    0.007438
    18  H    0.024520
    19  N   -0.140929
    20  C    0.160982
    21  C    0.036373
    22  O   -0.257355
    23  C    0.017213
    24  C   -0.033319
    25  C   -0.002118
    26  C    0.020778
    27  N    0.091876
    28  H    0.120999
    29  H    0.026496
    30  H    0.021648
    31  H    0.034697
    32  H    0.038874
    33  H    0.015438
    34  H    0.044740
    35  H    0.034082
    36  H    0.057393
    37  H    0.056000
    38  H    0.157917
    39  H    0.142955
    40  H    0.158220
    41  N   -0.161886
    42  C    0.054643
    43  C    0.067365
    44  O   -0.277844
    45  C    0.177051
    46  C    0.056197
    47  O   -0.398320
    48  O   -0.443413
    49  H    0.165498
    50  H    0.045880
    51  H   -0.035500
    52  H    0.044139
    53  N   -0.171434
    54  C    0.266530
    55  C   -0.000953
    56  O   -0.304256
    57  H    0.123240
    58  H    0.037997
    59  H    0.046392
    60  N   -0.129175
    61  C    0.144399
    62  C    0.149447
    63  O   -0.386350
    64  C    0.112463
    65  C   -0.030465
    66  N   -0.016296
    67  O   -0.296161
    68  H    0.172387
    69  H   -0.007527
    70  H    0.033786
    71  H    0.010589
    72  H    0.138149
    73  H    0.141979
    74  N   -0.138133
    75  C    0.173716
    76  C    0.030846
    77  O   -0.293037
    78  H    0.138165
    79  H    0.041069
    80  H    0.056013
    81  N   -0.112948
    82  C    0.071844
    83  C    0.162130
    84  O   -0.395396
    85  C    0.149700
    86  C   -0.041993
    87  C    0.034484
    88  C   -0.008062
    89  C   -0.031839
    90  C   -0.036799
    91  C    0.143595
    92  O   -0.190294
    93  H    0.141444
    94  H   -0.001703
    95  H    0.003315
    96  H    0.013893
    97  H   -0.018864
    98  H   -0.028980
    99  H   -0.008086
   100  H   -0.041059
   101  H    0.178477
   102  N   -0.111625
   103  C    0.145065
   104  C    0.082611
   105  O   -0.287039
   106  C   -0.094462
   107  C   -0.004828
   108  C    0.037111
   109  C    0.055304
   110  H    0.132768
   111  H   -0.028615
   112  H   -0.007277
   113  H   -0.024153
   114  H    0.003310
   115  H   -0.008944
   116  H    0.033333
   117  H    0.024587
   118  H    0.050895
   119  H    0.025197
   120  H   -0.017653
   121  N   -0.131099
   122  C    0.087202
   123  C    0.093636
   124  O   -0.250366
   125  C    0.234055
   126  O   -0.308887
   127  H    0.146616
   128  H    0.037404
   129  H   -0.019318
   130  H    0.008307
   131  H    0.194621
   132  N   -0.125908
   133  C    0.005561
   134  C    0.076519
   135  O   -0.249178
   136  C    0.075591
   137  H    0.124870
   138  H    0.031576
   139  H   -0.026944
   140  H    0.041096
   141  H    0.009469
   142  N   -0.105379
   143  C   -0.008669
   144  C    0.061728
   145  O   -0.281170
   146  C    0.092093
   147  H    0.134226
   148  H    0.010103
   149  H    0.001053
   150  H    0.026318
   151  H    0.018560
   152  N   -0.089954
   153  C    0.077694
   154  C    0.088104
   155  O   -0.298829
   156  C    0.014791
   157  C    0.079089
   158  C    0.011033
   159  O   -0.367424
   160  O   -0.386057
   161  H    0.120940
   162  H    0.008481
   163  H   -0.007997
   164  H   -0.017603
   165  H   -0.012227
   166  H   -0.057975
   167  N   -0.139776
   168  C    0.119867
   169  H    0.035431
   170  H    0.041539
   171  H    0.023248
   172  H    0.106825
   173  Ca   1.337863
   174  O   -0.324410
   175  H    0.182170
   176  H    0.178647
 Sum of Mulliken charges =  -0.00000

 Dipole moment (field-independent basis, Debye):
    X=              8.5859    Y=             13.4705    Z=             -3.0437  Tot=             16.2615
 Quadrupole moment (field-independent basis, Debye-Ang):
   XX=           -752.0445   YY=           -596.3832   ZZ=           -520.6761
   XY=            -66.6007   XZ=            -32.2467   YZ=             65.0152

 ESP charges:
               1
     1  C   -0.427727
     2  C    0.728904
     3  O   -0.584494
     4  H    0.120548
     5  H    0.144585
     6  H    0.086127
     7  N   -0.706911
     8  C    0.421759
     9  C    0.459999
    10  O   -0.518095
    11  C   -0.463937
    12  C    0.760215
    13  O   -0.604854
    14  O   -0.735438
    15  H    0.356373
    16  H   -0.001733
    17  H    0.099503
    18  H    0.132890
    19  N   -0.284963
    20  C   -0.026972
    21  C    0.576848
    22  O   -0.544395
    23  C   -0.281091
    24  C    0.425955
    25  C   -0.389778
    26  C    0.159717
    27  N   -0.494231
    28  H    0.187285
    29  H    0.113626
    30  H    0.098583
    31  H    0.099414
    32  H    0.000491
    33  H   -0.047113
    34  H    0.113831
    35  H    0.102570
    36  H    0.065036
    37  H    0.072515
    38  H    0.344265
    39  H    0.312314
    40  H    0.307775
    41  N   -0.524570
    42  C    0.234947
    43  C    0.364338
    44  O   -0.515518
    45  C   -0.417200
    46  C    0.853310
    47  O   -0.708797
    48  O   -0.833503
    49  H    0.150214
    50  H    0.108202
    51  H    0.089402
    52  H    0.142174
    53  N   -0.160312
    54  C   -0.468347
    55  C    0.674117
    56  O   -0.590702
    57  H    0.250219
    58  H    0.206252
    59  H    0.192483
    60  N   -0.420008
    61  C    0.161379
    62  C    0.522058
    63  O   -0.594708
    64  C   -0.156073
    65  C    0.630906
    66  N   -0.778007
    67  O   -0.583734
    68  H    0.289144
    69  H    0.022085
    70  H    0.041408
    71  H    0.074690
    72  H    0.371688
    73  H    0.397652
    74  N   -0.405645
    75  C   -0.170349
    76  C    0.549563
    77  O   -0.576873
    78  H    0.312839
    79  H    0.135127
    80  H    0.133751
    81  N   -0.324239
    82  C    0.134191
    83  C    0.618477
    84  O   -0.644242
    85  C   -0.357172
    86  C    0.242402
    87  C   -0.310457
    88  C   -0.219830
    89  C   -0.097689
    90  C   -0.266023
    91  C    0.288619
    92  O   -0.538814
    93  H    0.235141
    94  H    0.047197
    95  H    0.139202
    96  H    0.109692
    97  H    0.179227
    98  H    0.149382
    99  H    0.133948
   100  H    0.138040
   101  H    0.422489
   102  N   -0.562899
   103  C   -0.125822
   104  C    0.796960
   105  O   -0.568087
   106  C    0.322090
   107  C   -0.031052
   108  C   -0.340258
   109  C   -0.254810
   110  H    0.300085
   111  H    0.112290
   112  H    0.023047
   113  H   -0.005401
   114  H    0.008879
   115  H    0.084763
   116  H    0.096848
   117  H    0.062083
   118  H    0.114012
   119  H    0.054970
   120  H    0.049451
   121  N   -0.730498
   122  C    0.126423
   123  C    0.541951
   124  O   -0.520301
   125  C    0.003280
   126  O   -0.488527
   127  H    0.285410
   128  H    0.101394
   129  H    0.050224
   130  H    0.029867
   131  H    0.389439
   132  N   -0.350667
   133  C    0.048454
   134  C    0.723508
   135  O   -0.554887
   136  C   -0.228678
   137  H    0.276497
   138  H    0.070262
   139  H    0.046909
   140  H    0.089298
   141  H    0.065080
   142  N   -0.782153
   143  C    0.494906
   144  C    0.544865
   145  O   -0.567094
   146  C   -0.400678
   147  H    0.368919
   148  H   -0.049898
   149  H    0.080987
   150  H    0.152284
   151  H    0.089589
   152  N   -0.553174
   153  C   -0.389948
   154  C    0.760410
   155  O   -0.587295
   156  C    0.229773
   157  C   -0.769255
   158  C    0.874534
   159  O   -0.692853
   160  O   -0.718289
   161  H    0.342769
   162  H    0.163747
   163  H    0.042118
   164  H    0.020797
   165  H    0.150675
   166  H    0.200720
   167  N   -0.403030
   168  C   -0.097830
   169  H    0.078574
   170  H    0.090543
   171  H    0.068863
   172  H    0.301104
   173  Ca   1.608724
   174  O   -0.848460
   175  H    0.390105
   176  H    0.430826
 Sum of ESP charges =   0.00000

 Normal termination of Gaussian 16 at Tue Sep 17 23:52:50 2019.
