 Gaussian 16, Revision A.03,
 Gaussian 16:  ES64L-G16RevA.03 25-Dec-2016

 ----------------------------------------------------------------------
 #b3lyp/svp scf=(tight,noincore) Test #IOP(5/87=12) Density=Current Pop
 =(MK,readradii) iop(6/33=2) iop(6/42=6)
 ----------------------------------------------------------------------

 -----------------
 Ng-293_loop3_40.0
 -----------------
 Symbolic Z-matrix:
 Charge =  0 Multiplicity = 1

                         Standard orientation:
 ---------------------------------------------------------------------
 Center     Atomic      Atomic             Coordinates (Angstroms)
 Number     Number       Type             X           Y           Z
 ---------------------------------------------------------------------
      1          6           0        9.708979    1.363701    5.667402
      2          6           0        9.610614    1.659063    4.173386
      3          8           0       10.524764    2.148676    3.514820
      4          1           0        9.097978    2.078052    6.219085
      5          1           0        9.351840    0.352949    5.862422
      6          1           0       10.746611    1.450574    5.988303
      7          7           0        8.462035    1.328883    3.586149
      8          6           0        8.082427    1.429140    2.189278
      9          6           0        8.837566    0.536425    1.224796
     10          8           0        8.841345   -0.694367    1.353777
     11          6           0        6.568126    1.198335    2.119122
     12          6           0        5.652293    2.110201    2.921400
     13          8           0        5.927287    3.331985    2.978171
     14          8           0        4.692579    1.600833    3.549408
     15          1           0        7.864244    0.792729    4.185970
     16          1           0        8.244768    2.448286    1.857788
     17          1           0        6.456747    0.156008    2.396155
     18          1           0        6.293337    1.437744    1.087970
     19          7           0        9.335447    1.081309    0.107247
     20          6           0        9.651759    0.393887   -1.127580
     21          6           0        8.468235   -0.422961   -1.622988
     22          8           0        8.529408   -1.375867   -2.394110
     23          6           0       10.912115   -0.441551   -0.938514
     24          6           0       11.950266    0.458788   -0.263952
     25          6           0       13.279905   -0.217960   -0.545861
     26          6           0       14.560931    0.376478    0.036305
     27          7           0       15.644918   -0.609079    0.061791
     28          1           0        9.284793    2.087642    0.072183
     29          1           0        9.793070    1.185986   -1.850360
     30          1           0       11.267756   -0.690847   -1.939249
     31          1           0       10.711389   -1.437993   -0.564466
     32          1           0       11.832911    0.424193    0.823536
     33          1           0       11.924136    1.498531   -0.618988
     34          1           0       13.433029   -0.283631   -1.625139
     35          1           0       13.187292   -1.210820   -0.099710
     36          1           0       14.348193    0.705775    1.050408
     37          1           0       14.863264    1.241265   -0.561222
     38          1           0       15.388482   -1.440325    0.588831
     39          1           0       15.882310   -0.917710   -0.868258
     40          1           0       16.504926   -0.227258    0.417597
     41          7           0        7.257986    0.058732   -1.307917
     42          6           0        5.964376   -0.252225   -1.881136
     43          6           0        4.963191    0.900173   -1.935047
     44          8           0        5.004418    1.814303   -1.121372
     45          6           0        5.414262   -1.326597   -0.948827
     46          6           0        4.114765   -2.018655   -1.302894
     47          8           0        3.711622   -1.959295   -2.487695
     48          8           0        3.515645   -2.645709   -0.406702
     49          1           0        7.169719    0.842252   -0.684696
     50          1           0        6.109827   -0.664039   -2.879010
     51          1           0        5.350144   -0.995295    0.087815
     52          1           0        6.177489   -2.103266   -1.018621
     53          7           0        4.206124    0.972098   -3.032214
     54          6           0        3.361592    2.089621   -3.414977
     55          6           0        1.930734    1.587936   -3.234812
     56          8           0        1.425345    0.824314   -4.049282
     57          1           0        4.147891    0.165401   -3.641270
     58          1           0        3.585253    2.439213   -4.419547
     59          1           0        3.472239    2.866692   -2.665298
     60          7           0        1.199285    2.111992   -2.247316
     61          6           0       -0.041974    1.491425   -1.811574
     62          6           0       -1.154879    2.527867   -1.735205
     63          8           0       -2.281472    2.072305   -1.537843
     64          6           0        0.126809    0.768514   -0.486504
     65          6           0        1.167360   -0.336021   -0.518961
     66          7           0        2.260237   -0.123648    0.224220
     67          8           0        1.061294   -1.262000   -1.316653
     68          1           0        1.662888    2.812477   -1.692976
     69          1           0       -0.496905    0.888893   -2.595980
     70          1           0       -0.794495    0.249535   -0.204085
     71          1           0        0.360111    1.527171    0.259090
     72          1           0        2.433444    0.601497    0.907641
     73          1           0        2.973804   -0.841628    0.259257
     74          7           0       -0.974426    3.822704   -1.957763
     75          6           0       -2.089769    4.752725   -1.988952
     76          6           0       -2.946658    4.758537   -0.718280
     77          8           0       -2.415138    4.687368    0.384182
     78          1           0       -0.072229    4.193830   -2.220832
     79          1           0       -2.769927    4.525791   -2.807968
     80          1           0       -1.663999    5.727731   -2.216728
     81          7           0       -4.274286    4.740499   -0.818168
     82          6           0       -5.331056    4.731040    0.174630
     83          6           0       -5.321295    3.481360    1.033410
     84          8           0       -6.192514    3.252697    1.878153
     85          6           0       -5.484513    6.054932    0.908973
     86          6           0       -5.626721    7.245306   -0.011780
     87          6           0       -4.533929    8.026866   -0.392399
     88          6           0       -6.934252    7.614886   -0.349677
     89          6           0       -4.786406    9.257489   -1.011124
     90          6           0       -7.200117    8.824613   -1.006927
     91          6           0       -6.096224    9.641347   -1.335205
     92          8           0       -6.266544   10.819380   -2.016256
     93          1           0       -4.491091    4.588935   -1.797568
     94          1           0       -6.240865    4.661358   -0.439612
     95          1           0       -4.581891    6.160209    1.514192
     96          1           0       -6.286971    6.035786    1.649915
     97          1           0       -3.509259    7.708985   -0.212670
     98          1           0       -7.704967    6.913743   -0.085677
     99          1           0       -3.999682    9.936738   -1.307750
    100          1           0       -8.204699    9.155963   -1.182772
    101          1           0       -7.157756   10.749973   -2.367146
    102          7           0       -4.360115    2.556169    0.918276
    103          6           0       -4.393441    1.207844    1.466553
    104          6           0       -5.452012    0.322550    0.845439
    105          8           0       -5.211700   -0.812231    0.422211
    106          6           0       -4.242493    1.094700    2.983627
    107          6           0       -2.969628    1.781065    3.469444
    108          6           0       -4.155113   -0.364326    3.420211
    109          6           0       -3.043093    2.107194    4.958619
    110          1           0       -3.627567    2.698242    0.241379
    111          1           0       -3.504275    0.722848    1.072774
    112          1           0       -5.085776    1.564392    3.502148
    113          1           0       -2.718735    2.619146    2.818620
    114          1           0       -2.151036    1.066118    3.388461
    115          1           0       -3.848313   -0.569471    4.450206
    116          1           0       -5.181407   -0.704047    3.340769
    117          1           0       -3.390380   -0.874003    2.828677
    118          1           0       -2.066309    2.421351    5.331311
    119          1           0       -3.806821    2.863183    5.179978
    120          1           0       -3.139138    1.135751    5.425495
    121          7           0       -6.709746    0.747594    0.675601
    122          6           0       -7.718492    0.178108   -0.191242
    123          6           0       -8.307268   -1.144165    0.281555
    124          8           0       -9.054218   -1.764785   -0.474616
    125          6           0       -8.849339    1.193002   -0.385084
    126          8           0       -8.378822    2.491693   -0.679391
    127          1           0       -6.891907    1.660948    1.076726
    128          1           0       -7.310429    0.026084   -1.182490
    129          1           0       -9.288268    1.303623    0.600413
    130          1           0       -9.572944    0.840544   -1.110527
    131          1           0       -9.128782    3.019000   -0.972148
    132          7           0       -8.025791   -1.602500    1.496627
    133          6           0       -8.094382   -2.992532    1.908460
    134          6           0       -7.399999   -3.982085    0.976088
    135          8           0       -7.704723   -5.174357    0.970749
    136          6           0       -9.537674   -3.294988    2.285990
    137          1           0       -7.569382   -0.993319    2.173081
    138          1           0       -7.431695   -3.069109    2.763201
    139          1           0       -9.853296   -2.651499    3.103122
    140          1           0      -10.186481   -3.141081    1.426012
    141          1           0       -9.730224   -4.334510    2.561158
    142          7           0       -6.410381   -3.573387    0.182034
    143          6           0       -5.727928   -4.505682   -0.681206
    144          6           0       -4.642038   -5.340538   -0.029472
    145          8           0       -4.033434   -4.961920    0.968350
    146          6           0       -5.287530   -3.754097   -1.935028
    147          1           0       -6.073150   -2.615720    0.189119
    148          1           0       -6.516558   -5.172980   -1.034160
    149          1           0       -4.778171   -2.808920   -1.770729
    150          1           0       -4.542883   -4.234943   -2.574158
    151          1           0       -6.192608   -3.647037   -2.542953
    152          7           0       -4.325106   -6.436476   -0.726233
    153          6           0       -3.250783   -7.349847   -0.386111
    154          6           0       -3.283558   -7.789360    1.075927
    155          8           0       -2.327054   -7.508658    1.798289
    156          6           0       -1.939121   -6.795773   -0.929659
    157          6           0       -1.884780   -6.541096   -2.428721
    158          6           0       -0.805075   -5.496735   -2.648827
    159          8           0        0.393239   -5.800819   -2.874385
    160          8           0       -1.084054   -4.284551   -2.731775
    161          1           0       -4.831815   -6.711897   -1.553270
    162          1           0       -3.425958   -8.300725   -0.894486
    163          1           0       -1.105530   -7.453622   -0.719755
    164          1           0       -1.659916   -5.918976   -0.341976
    165          1           0       -2.846719   -6.183648   -2.812654
    166          1           0       -1.599057   -7.409219   -3.033142
    167          7           0       -4.382887   -8.436246    1.461044
    168          6           0       -4.679745   -8.810346    2.826227
    169          1           0       -5.271159   -8.024785    3.297433
    170          1           0       -5.243635   -9.743128    2.834058
    171          1           0       -3.748906   -8.943966    3.377567
    172          1           0       -5.155175   -8.539096    0.817001
    173         20           0        1.587981   -3.533428   -2.240404
    174          8           0        0.611627   -3.986694    0.107335
    175          1           0       -0.013625   -4.026206    0.826292
    176          1           0        1.458899   -3.894293    0.528515
 ---------------------------------------------------------------------

 SCF Done:  E(RB3LYP) =  -5333.44080926     A.U. after   32 cycles

 The electronic state is 1-A.
 Alpha  occ. eigenvalues -- -145.39846 -19.16555 -19.14512 -19.13544 -19.10812
 Alpha  occ. eigenvalues --  -19.10717 -19.09815 -19.09633 -19.09515 -19.09086
 Alpha  occ. eigenvalues --  -19.08960 -19.08590 -19.08102 -19.07793 -19.07720
 Alpha  occ. eigenvalues --  -19.07467 -19.06224 -19.06191 -19.05858 -19.05623
 Alpha  occ. eigenvalues --  -19.03342 -19.02538 -18.96766 -18.96402 -15.45756
 Alpha  occ. eigenvalues --  -14.58142 -14.38153 -14.36808 -14.36671 -14.35341
 Alpha  occ. eigenvalues --  -14.35329 -14.34315 -14.34167 -14.33755 -14.33731
 Alpha  occ. eigenvalues --  -14.33493 -14.32946 -14.32888 -14.31502 -14.30744
 Alpha  occ. eigenvalues --  -12.59385 -12.59346 -12.59242 -10.34506 -10.29610
 Alpha  occ. eigenvalues --  -10.29539 -10.29316 -10.28571 -10.28261 -10.28114
 Alpha  occ. eigenvalues --  -10.27964 -10.27273 -10.27165 -10.26705 -10.26575
 Alpha  occ. eigenvalues --  -10.26247 -10.25574 -10.25252 -10.25140 -10.24976
 Alpha  occ. eigenvalues --  -10.24879 -10.24858 -10.24816 -10.24645 -10.24556
 Alpha  occ. eigenvalues --  -10.23628 -10.23539 -10.23432 -10.22414 -10.22289
 Alpha  occ. eigenvalues --  -10.22221 -10.22213 -10.21439 -10.20932 -10.20422
 Alpha  occ. eigenvalues --  -10.19954 -10.19692 -10.19675 -10.19666 -10.19607
 Alpha  occ. eigenvalues --  -10.19605 -10.19410 -10.19234 -10.19110 -10.18947
 Alpha  occ. eigenvalues --  -10.17166 -10.17049 -10.16662 -10.16579 -10.15806
 Alpha  occ. eigenvalues --  -10.15356 -10.15255 -10.15248 -10.15244 -10.14757
 Alpha  occ. eigenvalues --  -10.14752 -10.12674  -1.82477  -1.13610  -1.10264
 Alpha  occ. eigenvalues --   -1.09994  -1.09293  -1.05371  -1.04906  -1.03665
 Alpha  occ. eigenvalues --   -1.03345  -1.02994  -1.02773  -1.02685  -1.02228
 Alpha  occ. eigenvalues --   -1.02082  -1.01993  -1.01391  -1.00958  -1.00896
 Alpha  occ. eigenvalues --   -1.00761  -0.99671  -0.99013  -0.98776  -0.98279
 Alpha  occ. eigenvalues --   -0.98045  -0.94214  -0.93445  -0.92937  -0.92583
 Alpha  occ. eigenvalues --   -0.92492  -0.91780  -0.90933  -0.90873  -0.90687
 Alpha  occ. eigenvalues --   -0.90546  -0.89966  -0.89778  -0.89318  -0.88818
 Alpha  occ. eigenvalues --   -0.88618  -0.88376  -0.87505  -0.86714  -0.85321
 Alpha  occ. eigenvalues --   -0.82046  -0.80939  -0.80511  -0.79799  -0.79278
 Alpha  occ. eigenvalues --   -0.77924  -0.76823  -0.76295  -0.76262  -0.75556
 Alpha  occ. eigenvalues --   -0.74828  -0.74304  -0.74235  -0.73462  -0.73220
 Alpha  occ. eigenvalues --   -0.72795  -0.72607  -0.72083  -0.71892  -0.70589
 Alpha  occ. eigenvalues --   -0.69534  -0.68675  -0.68613  -0.68269  -0.66631
 Alpha  occ. eigenvalues --   -0.66006  -0.65226  -0.64515  -0.64215  -0.63383
 Alpha  occ. eigenvalues --   -0.62827  -0.62219  -0.62007  -0.61670  -0.61203
 Alpha  occ. eigenvalues --   -0.61173  -0.60498  -0.60065  -0.59673  -0.59388
 Alpha  occ. eigenvalues --   -0.59135  -0.58945  -0.58144  -0.57607  -0.57434
 Alpha  occ. eigenvalues --   -0.57115  -0.57040  -0.56795  -0.56661  -0.56512
 Alpha  occ. eigenvalues --   -0.55930  -0.55271  -0.55176  -0.54632  -0.54616
 Alpha  occ. eigenvalues --   -0.54490  -0.54403  -0.54171  -0.53670  -0.53199
 Alpha  occ. eigenvalues --   -0.52669  -0.52493  -0.51746  -0.50947  -0.50914
 Alpha  occ. eigenvalues --   -0.50808  -0.50751  -0.50408  -0.49983  -0.49826
 Alpha  occ. eigenvalues --   -0.49628  -0.49618  -0.49439  -0.49218  -0.48779
 Alpha  occ. eigenvalues --   -0.47917  -0.47488  -0.47385  -0.47308  -0.46738
 Alpha  occ. eigenvalues --   -0.46554  -0.46466  -0.46292  -0.45863  -0.45761
 Alpha  occ. eigenvalues --   -0.45524  -0.45514  -0.45087  -0.44831  -0.44809
 Alpha  occ. eigenvalues --   -0.44645  -0.44452  -0.44238  -0.44177  -0.44095
 Alpha  occ. eigenvalues --   -0.43896  -0.43734  -0.43515  -0.43284  -0.43027
 Alpha  occ. eigenvalues --   -0.43016  -0.42639  -0.42595  -0.42390  -0.42260
 Alpha  occ. eigenvalues --   -0.42161  -0.41961  -0.41851  -0.41694  -0.41497
 Alpha  occ. eigenvalues --   -0.41371  -0.41321  -0.41264  -0.41105  -0.40840
 Alpha  occ. eigenvalues --   -0.40641  -0.40626  -0.40394  -0.40270  -0.40155
 Alpha  occ. eigenvalues --   -0.39998  -0.39763  -0.39633  -0.39481  -0.39305
 Alpha  occ. eigenvalues --   -0.39156  -0.39112  -0.38931  -0.38909  -0.38819
 Alpha  occ. eigenvalues --   -0.38694  -0.38515  -0.38368  -0.38198  -0.38194
 Alpha  occ. eigenvalues --   -0.38092  -0.37815  -0.37664  -0.37607  -0.37537
 Alpha  occ. eigenvalues --   -0.37157  -0.37070  -0.37000  -0.36806  -0.36694
 Alpha  occ. eigenvalues --   -0.36442  -0.36336  -0.36165  -0.35766  -0.35611
 Alpha  occ. eigenvalues --   -0.35581  -0.35333  -0.35220  -0.34722  -0.34618
 Alpha  occ. eigenvalues --   -0.34588  -0.34472  -0.34288  -0.34096  -0.34005
 Alpha  occ. eigenvalues --   -0.33944  -0.33818  -0.33788  -0.33227  -0.33073
 Alpha  occ. eigenvalues --   -0.32984  -0.32626  -0.32376  -0.32285  -0.31993
 Alpha  occ. eigenvalues --   -0.31529  -0.31436  -0.31159  -0.30868  -0.29977
 Alpha  occ. eigenvalues --   -0.29605  -0.29118  -0.28422  -0.28225  -0.27786
 Alpha  occ. eigenvalues --   -0.27693  -0.27512  -0.27438  -0.27415  -0.27248
 Alpha  occ. eigenvalues --   -0.26731  -0.26550  -0.26311  -0.26254  -0.26212
 Alpha  occ. eigenvalues --   -0.25768  -0.25505  -0.25336  -0.25054  -0.24971
 Alpha  occ. eigenvalues --   -0.24706  -0.24596  -0.24422  -0.24105  -0.24004
 Alpha  occ. eigenvalues --   -0.23749  -0.23257  -0.23172  -0.22977  -0.22749
 Alpha  occ. eigenvalues --   -0.22629  -0.22578  -0.22466  -0.22322  -0.21817
 Alpha  occ. eigenvalues --   -0.21522  -0.21263  -0.20797  -0.20438  -0.17755
 Alpha  occ. eigenvalues --   -0.14201  -0.13925  -0.11603
 Alpha virt. eigenvalues --   -0.10658  -0.04636  -0.04301  -0.02105  -0.01520
 Alpha virt. eigenvalues --   -0.01118  -0.00513  -0.00429  -0.00065   0.00517
 Alpha virt. eigenvalues --    0.00806   0.01060   0.02009   0.02203   0.02255

 Mulliken charges:
               1
     1  C    0.038334
     2  C    0.013350
     3  O   -0.322891
     4  H    0.054534
     5  H    0.020456
     6  H    0.008158
     7  N   -0.082067
     8  C    0.139132
     9  C    0.063048
    10  O   -0.294828
    11  C    0.014083
    12  C    0.036549
    13  O   -0.371333
    14  O   -0.375463
    15  H    0.118200
    16  H   -0.035268
    17  H   -0.007580
    18  H    0.012941
    19  N   -0.165874
    20  C    0.110752
    21  C    0.079991
    22  O   -0.281074
    23  C    0.056669
    24  C    0.083926
    25  C   -0.110304
    26  C    0.078451
    27  N    0.111840
    28  H    0.123833
    29  H    0.011130
    30  H   -0.010408
    31  H    0.028238
    32  H    0.043361
    33  H    0.010155
    34  H    0.019740
    35  H    0.015645
    36  H    0.073032
    37  H    0.067161
    38  H    0.163910
    39  H    0.149070
    40  H    0.151917
    41  N   -0.116363
    42  C    0.128264
    43  C    0.080827
    44  O   -0.264273
    45  C    0.062206
    46  C    0.099709
    47  O   -0.431828
    48  O   -0.425370
    49  H    0.109220
    50  H   -0.004435
    51  H    0.027702
    52  H    0.039329
    53  N   -0.155879
    54  C    0.264810
    55  C    0.019675
    56  O   -0.272089
    57  H    0.138463
    58  H    0.030769
    59  H   -0.004998
    60  N   -0.171378
    61  C    0.148541
    62  C    0.047950
    63  O   -0.308112
    64  C    0.101053
    65  C    0.102422
    66  N   -0.059083
    67  O   -0.366927
    68  H    0.127763
    69  H    0.061928
    70  H    0.056614
    71  H   -0.000029
    72  H    0.148312
    73  H    0.130745
    74  N   -0.092270
    75  C    0.226183
    76  C    0.001527
    77  O   -0.281852
    78  H    0.114556
    79  H   -0.000836
    80  H    0.025699
    81  N   -0.138416
    82  C    0.149468
    83  C    0.108430
    84  O   -0.325469
    85  C    0.136500
    86  C   -0.035950
    87  C   -0.011344
    88  C   -0.001644
    89  C   -0.009252
    90  C   -0.035537
    91  C    0.152469
    92  O   -0.194977
    93  H    0.122158
    94  H    0.008360
    95  H    0.009439
    96  H    0.018521
    97  H   -0.011868
    98  H   -0.028860
    99  H   -0.023935
   100  H   -0.041065
   101  H    0.169604
   102  N   -0.104996
   103  C    0.192107
   104  C    0.040276
   105  O   -0.287028
   106  C   -0.118376
   107  C    0.014521
   108  C    0.088952
   109  C    0.050470
   110  H    0.143827
   111  H   -0.000632
   112  H    0.000528
   113  H    0.004536
   114  H   -0.025998
   115  H    0.006404
   116  H   -0.011651
   117  H    0.020638
   118  H    0.005443
   119  H    0.022869
   120  H   -0.013087
   121  N   -0.141150
   122  C    0.123327
   123  C    0.043634
   124  O   -0.278105
   125  C    0.213837
   126  O   -0.313559
   127  H    0.139835
   128  H    0.019997
   129  H   -0.023291
   130  H    0.024098
   131  H    0.170122
   132  N   -0.125585
   133  C    0.086775
   134  C    0.062632
   135  O   -0.301052
   136  C    0.084037
   137  H    0.127475
   138  H    0.022386
   139  H   -0.012534
   140  H    0.025605
   141  H    0.014448
   142  N   -0.127770
   143  C    0.084527
   144  C    0.119211
   145  O   -0.264641
   146  C    0.026498
   147  H    0.135931
   148  H   -0.005837
   149  H    0.032321
   150  H    0.010661
   151  H    0.017738
   152  N   -0.147036
   153  C    0.087174
   154  C    0.078354
   155  O   -0.265188
   156  C    0.031690
   157  C    0.139085
   158  C    0.073099
   159  O   -0.469366
   160  O   -0.406628
   161  H    0.117258
   162  H   -0.016264
   163  H   -0.005371
   164  H    0.018832
   165  H   -0.028838
   166  H   -0.011013
   167  N   -0.147006
   168  C    0.128053
   169  H    0.035108
   170  H    0.007676
   171  H    0.037833
   172  H    0.112448
   173  Ca   1.341634
   174  O   -0.303621
   175  H    0.200427
   176  H    0.175594
 Sum of Mulliken charges =  -0.00000

 Dipole moment (field-independent basis, Debye):
    X=             36.3211    Y=              4.4328    Z=            -12.6671  Tot=             38.7212
 Quadrupole moment (field-independent basis, Debye-Ang):
   XX=            186.7927   YY=           -577.6846   ZZ=           -586.8643
   XY=           -109.8245   XZ=            -48.4096   YZ=            -68.7259

 ESP charges:
               1
     1  C   -0.479255
     2  C    0.795863
     3  O   -0.646867
     4  H    0.145459
     5  H    0.103550
     6  H    0.114523
     7  N   -0.576482
     8  C    0.183159
     9  C    0.427679
    10  O   -0.499435
    11  C   -0.287858
    12  C    0.710670
    13  O   -0.671053
    14  O   -0.677192
    15  H    0.329948
    16  H    0.040401
    17  H    0.068815
    18  H    0.078860
    19  N   -0.605118
    20  C    0.028061
    21  C    0.492839
    22  O   -0.523132
    23  C    0.134546
    24  C   -0.069682
    25  C   -0.066207
    26  C    0.141523
    27  N   -0.308217
    28  H    0.339045
    29  H    0.089608
    30  H   -0.058553
    31  H    0.054219
    32  H    0.097999
    33  H    0.044061
    34  H    0.039754
    35  H    0.012503
    36  H    0.044295
    37  H    0.051273
    38  H    0.300356
    39  H    0.264344
    40  H    0.280826
    41  N   -0.286698
    42  C   -0.203533
    43  C    0.603130
    44  O   -0.508938
    45  C   -0.059326
    46  C    0.651857
    47  O   -0.708955
    48  O   -0.725157
    49  H    0.216423
    50  H    0.111910
    51  H    0.043585
    52  H    0.104825
    53  N   -0.351572
    54  C   -0.132713
    55  C    0.631035
    56  O   -0.531587
    57  H    0.281900
    58  H    0.106565
    59  H    0.069995
    60  N   -0.741469
    61  C    0.324014
    62  C    0.589711
    63  O   -0.548414
    64  C   -0.464479
    65  C    0.826058
    66  N   -0.757136
    67  O   -0.660546
    68  H    0.372737
    69  H    0.078772
    70  H    0.129414
    71  H    0.111663
    72  H    0.375071
    73  H    0.351673
    74  N   -0.468152
    75  C   -0.022618
    76  C    0.537192
    77  O   -0.505191
    78  H    0.307638
    79  H    0.047667
    80  H    0.105363
    81  N   -0.753119
    82  C    0.115634
    83  C    0.436046
    84  O   -0.541958
    85  C   -0.227092
    86  C    0.163979
    87  C   -0.236352
    88  C   -0.091473
    89  C   -0.238946
    90  C   -0.396381
    91  C    0.393129
    92  O   -0.523855
    93  H    0.382436
    94  H    0.096273
    95  H    0.130953
    96  H    0.088166
    97  H    0.179703
    98  H    0.118910
    99  H    0.156496
   100  H    0.177341
   101  H    0.382710
   102  N    0.011782
   103  C   -0.736110
   104  C    0.783326
   105  O   -0.574336
   106  C    0.376608
   107  C    0.264857
   108  C   -0.593253
   109  C   -0.397212
   110  H    0.251893
   111  H    0.214032
   112  H    0.006367
   113  H   -0.078672
   114  H   -0.023909
   115  H    0.157879
   116  H    0.133629
   117  H    0.161329
   118  H    0.099307
   119  H    0.090177
   120  H    0.072082
   121  N   -0.522748
   122  C    0.220560
   123  C    0.298170
   124  O   -0.494643
   125  C    0.160090
   126  O   -0.627264
   127  H    0.315314
   128  H    0.065120
   129  H    0.009449
   130  H    0.034550
   131  H    0.408625
   132  N   -0.382469
   133  C    0.297867
   134  C    0.512306
   135  O   -0.576057
   136  C   -0.304585
   137  H    0.257764
   138  H    0.005974
   139  H    0.059373
   140  H    0.114734
   141  H    0.068748
   142  N   -0.450166
   143  C    0.478918
   144  C    0.383642
   145  O   -0.456992
   146  C   -0.290435
   147  H    0.176660
   148  H   -0.024749
   149  H    0.114904
   150  H    0.060827
   151  H    0.052775
   152  N   -0.569523
   153  C    0.216550
   154  C    0.419893
   155  O   -0.499926
   156  C   -0.018152
   157  C    0.079791
   158  C    0.714938
   159  O   -0.798627
   160  O   -0.732817
   161  H    0.292089
   162  H   -0.032031
   163  H   -0.022176
   164  H    0.060167
   165  H   -0.041226
   166  H   -0.015451
   167  N   -0.328648
   168  C   -0.051110
   169  H    0.078711
   170  H    0.040441
   171  H    0.075909
   172  H    0.265723
   173  Ca   1.617227
   174  O   -0.873160
   175  H    0.465351
   176  H    0.410571
 Sum of ESP charges =   0.00000

 Normal termination of Gaussian 16 at Tue Sep 17 10:19:40 2019.
