 Gaussian 16, Revision A.03,
 Gaussian 16:  ES64L-G16RevA.03 25-Dec-2016

 ----------------------------------------------------------------------
 #b3lyp/svp scf=(tight,noincore) Test #IOP(5/87=12) Density=Current Pop
 =(MK,readradii) iop(6/33=2) iop(6/42=6)
 ----------------------------------------------------------------------

 -----------------
 Ng-293_loop3_56.0
 -----------------
 Symbolic Z-matrix:
 Charge =  0 Multiplicity = 1

                         Standard orientation:
 ---------------------------------------------------------------------
 Center     Atomic      Atomic             Coordinates (Angstroms)
 Number     Number       Type             X           Y           Z
 ---------------------------------------------------------------------
      1          6           0       -9.492583    0.802389    6.562407
      2          6           0       -9.854927    0.811711    5.092604
      3          8           0      -10.962403    1.211539    4.717190
      4          1           0       -8.693205    0.082249    6.733863
      5          1           0       -9.156492    1.795778    6.860991
      6          1           0      -10.366244    0.522347    7.150796
      7          7           0       -9.011675    0.245794    4.229955
      8          6           0       -9.431676    0.078720    2.846523
      9          6           0       -8.167968    0.170231    1.986309
     10          8           0       -7.046880    0.149209    2.500720
     11          6           0       -9.856847   -1.369287    2.651571
     12          6           0      -10.466222   -1.720988    1.309979
     13          8           0      -10.812056   -0.862882    0.474364
     14          8           0      -10.464046   -2.924900    0.969109
     15          1           0       -8.154052   -0.148393    4.582091
     16          1           0      -10.092178    0.884523    2.540387
     17          1           0      -10.640091   -1.522938    3.404578
     18          1           0       -9.074797   -2.112918    2.802268
     19          7           0       -8.364133    0.384757    0.689930
     20          6           0       -7.380267    0.374140   -0.374633
     21          6           0       -6.652994   -0.962341   -0.475588
     22          8           0       -6.949831   -2.010093    0.111015
     23          6           0       -6.467702    1.605003   -0.373061
     24          6           0       -7.163268    2.939707   -0.174682
     25          6           0       -8.150806    3.301429   -1.279591
     26          6           0       -9.004439    4.535463   -0.981311
     27          7           0       -9.932424    4.340218    0.142398
     28          1           0       -9.320460    0.413271    0.380695
     29          1           0       -8.031721    0.288066   -1.238866
     30          1           0       -5.914370    1.630786   -1.318396
     31          1           0       -5.763317    1.495259    0.442659
     32          1           0       -6.440667    3.751861   -0.155876
     33          1           0       -7.658694    2.943098    0.800583
     34          1           0       -8.862437    2.472490   -1.329987
     35          1           0       -7.684490    3.535457   -2.232839
     36          1           0       -9.508213    4.899303   -1.878212
     37          1           0       -8.343537    5.352987   -0.711378
     38          1           0      -10.513366    3.543065   -0.091599
     39          1           0       -9.457586    3.980151    0.951275
     40          1           0      -10.374542    5.204673    0.419074
     41          7           0       -5.592738   -0.991738   -1.282058
     42          6           0       -5.163889   -2.173681   -2.008761
     43          6           0       -4.667306   -3.317367   -1.146330
     44          8           0       -4.988677   -4.469926   -1.455894
     45          6           0       -4.270666   -1.868152   -3.209471
     46          6           0       -3.032352   -1.104502   -2.757898
     47          8           0       -3.223544    0.099330   -2.488951
     48          8           0       -1.865204   -1.536112   -2.914677
     49          1           0       -5.369009   -0.094424   -1.687488
     50          1           0       -6.049716   -2.562225   -2.505595
     51          1           0       -4.851403   -1.374777   -3.983503
     52          1           0       -3.962326   -2.803970   -3.665621
     53          7           0       -4.050912   -3.022377    0.003078
     54          6           0       -3.497376   -4.026907    0.893650
     55          6           0       -2.424090   -4.968800    0.383459
     56          8           0       -2.258803   -6.079496    0.879072
     57          1           0       -3.956164   -2.056659    0.238261
     58          1           0       -4.239270   -4.618524    1.418895
     59          1           0       -3.091269   -3.489280    1.755644
     60          7           0       -1.675368   -4.545084   -0.629498
     61          6           0       -0.559538   -5.333551   -1.120969
     62          6           0        0.703293   -4.504042   -1.328988
     63          8           0        0.707813   -3.296043   -1.522943
     64          6           0       -0.949371   -6.155114   -2.342429
     65          6           0       -1.840902   -7.358241   -2.047542
     66          7           0       -3.104773   -7.328579   -2.457846
     67          8           0       -1.347030   -8.332102   -1.475718
     68          1           0       -1.697051   -3.589645   -0.964261
     69          1           0       -0.321608   -6.059908   -0.345343
     70          1           0       -0.070691   -6.510809   -2.877127
     71          1           0       -1.332805   -5.582147   -3.191538
     72          1           0       -3.385125   -6.509273   -2.974703
     73          1           0       -3.710556   -8.130792   -2.374894
     74          7           0        1.830938   -5.209452   -1.192556
     75          6           0        3.144095   -4.713026   -1.557495
     76          6           0        3.877105   -4.100922   -0.371482
     77          8           0        3.292747   -4.001178    0.705308
     78          1           0        1.752984   -6.187107   -0.940732
     79          1           0        3.043915   -3.961889   -2.336441
     80          1           0        3.793995   -5.527233   -1.874189
     81          7           0        5.150283   -3.878986   -0.708916
     82          6           0        6.158601   -3.328515    0.174926
     83          6           0        5.887845   -1.910802    0.666641
     84          8           0        6.770913   -1.401025    1.351344
     85          6           0        6.311875   -4.299378    1.335974
     86          6           0        7.670381   -4.666916    1.885862
     87          6           0        8.176877   -4.118508    3.077713
     88          6           0        8.480598   -5.539099    1.161813
     89          6           0        9.443776   -4.391775    3.602681
     90          6           0        9.756640   -5.842750    1.658616
     91          6           0       10.229505   -5.306078    2.873516
     92          8           0       11.483375   -5.625691    3.295128
     93          1           0        5.463911   -3.926355   -1.663794
     94          1           0        7.105732   -3.290952   -0.367689
     95          1           0        5.881674   -5.283732    1.139828
     96          1           0        5.710176   -3.941844    2.171634
     97          1           0        7.601422   -3.361446    3.586741
     98          1           0        8.102446   -5.896991    0.210858
     99          1           0        9.751432   -3.936811    4.521895
    100          1           0       10.356066   -6.496723    1.046156
    101          1           0       12.012510   -6.059533    2.614102
    102          7           0        4.765393   -1.275702    0.341452
    103          6           0        4.392911    0.130189    0.440086
    104          6           0        5.350362    1.134141   -0.172423
    105          8           0        4.872438    1.996226   -0.916734
    106          6           0        3.926927    0.487203    1.842298
    107          6           0        3.073444   -0.565194    2.551471
    108          6           0        3.321105    1.885941    1.904862
    109          6           0        1.727380   -0.705375    1.860992
    110          1           0        4.088977   -1.821837   -0.173036
    111          1           0        3.470071    0.219199   -0.136579
    112          1           0        4.762119    0.434013    2.543601
    113          1           0        2.847675   -0.208977    3.553189
    114          1           0        3.537217   -1.561344    2.551721
    115          1           0        4.023341    2.670879    1.658820
    116          1           0        2.427573    1.958969    1.280389
    117          1           0        2.909830    2.109410    2.893707
    118          1           0        1.832712   -1.270634    0.928529
    119          1           0        1.025223   -1.182282    2.541680
    120          1           0        1.244089    0.252041    1.725766
    121          7           0        6.639219    1.060781    0.165313
    122          6           0        7.640458    1.899299   -0.467545
    123          6           0        7.355637    3.392599   -0.296281
    124          8           0        7.584637    4.194666   -1.193748
    125          6           0        9.009548    1.403953   -0.010682
    126          8           0        9.048703    1.630531    1.376664
    127          1           0        6.996815    0.321423    0.748816
    128          1           0        7.545202    1.743653   -1.544857
    129          1           0        9.814401    2.016177   -0.420551
    130          1           0        9.181779    0.358747   -0.243877
    131          1           0        9.650518    0.991874    1.760377
    132          7           0        6.986444    3.683409    0.953129
    133          6           0        6.770830    5.029923    1.454339
    134          6           0        5.656416    5.891759    0.865849
    135          8           0        5.447402    7.033819    1.259564
    136          6           0        8.152225    5.686301    1.439628
    137          1           0        6.781734    2.910650    1.571220
    138          1           0        6.627067    4.916181    2.531648
    139          1           0        8.390114    6.174973    0.499677
    140          1           0        8.164530    6.532133    2.118241
    141          1           0        8.964816    5.026190    1.733823
    142          7           0        4.868801    5.314737   -0.034878
    143          6           0        3.793067    5.958134   -0.769273
    144          6           0        2.355831    5.557321   -0.441243
    145          8           0        2.052794    4.628287    0.292218
    146          6           0        4.111564    5.901254   -2.255551
    147          1           0        5.024182    4.331254   -0.265569
    148          1           0        3.870233    7.021861   -0.592272
    149          1           0        4.796887    5.075660   -2.452598
    150          1           0        3.160981    5.835211   -2.791118
    151          1           0        4.675863    6.771830   -2.585497
    152          7           0        1.412537    6.271040   -1.059387
    153          6           0       -0.010003    6.175689   -0.853740
    154          6           0       -0.454476    6.449768    0.581016
    155          8           0       -1.630306    6.358989    0.936377
    156          6           0       -0.580259    4.930659   -1.517147
    157          6           0       -0.298763    4.724344   -3.003348
    158          6           0       -0.618491    3.375815   -3.622900
    159          8           0        0.323572    2.659859   -4.035967
    160          8           0       -1.794401    2.977005   -3.702185
    161          1           0        1.781553    7.075454   -1.551774
    162          1           0       -0.445231    7.044062   -1.345984
    163          1           0       -1.671186    4.937163   -1.430909
    164          1           0       -0.234072    4.035494   -1.003597
    165          1           0        0.775857    4.853694   -3.113619
    166          1           0       -0.792068    5.477203   -3.634817
    167          7           0        0.452102    6.976549    1.404132
    168          6           0        0.199513    7.252618    2.803162
    169          1           0       -0.842035    7.546580    2.932975
    170          1           0        0.400084    6.357879    3.392543
    171          1           0        0.849175    8.062184    3.137680
    172          1           0        1.391324    7.143998    1.080986
    173         20           0       -0.489317    0.209104   -4.127136
    174          8           0        1.150095    0.457276   -6.120886
    175          1           0        2.088505    0.255715   -6.099460
    176          1           0        1.111589    1.400912   -6.277948
 ---------------------------------------------------------------------

 SCF Done:  E(RB3LYP) =  -5333.38315244     A.U. after   27 cycles

 The electronic state is 1-A.
 Alpha  occ. eigenvalues -- -145.48622 -19.24605 -19.17124 -19.15482 -19.13811
 Alpha  occ. eigenvalues --  -19.12912 -19.11847 -19.11741 -19.10424 -19.10287
 Alpha  occ. eigenvalues --  -19.09472 -19.08914 -19.08817 -19.08493 -19.07230
 Alpha  occ. eigenvalues --  -19.06926 -19.06916 -19.06910 -19.06547 -19.06512
 Alpha  occ. eigenvalues --  -19.05900 -19.04548 -18.96656 -18.94462 -15.54555
 Alpha  occ. eigenvalues --  -14.55317 -14.40098 -14.38797 -14.37614 -14.36793
 Alpha  occ. eigenvalues --  -14.36585 -14.35885 -14.34953 -14.34735 -14.33555
 Alpha  occ. eigenvalues --  -14.33469 -14.33252 -14.32796 -14.31217 -14.30867
 Alpha  occ. eigenvalues --  -12.68197 -12.68129 -12.68035 -10.32685 -10.32008
 Alpha  occ. eigenvalues --  -10.31791 -10.30248 -10.29925 -10.29046 -10.28829
 Alpha  occ. eigenvalues --  -10.28148 -10.27736 -10.27298 -10.27190 -10.26693
 Alpha  occ. eigenvalues --  -10.26461 -10.26401 -10.26265 -10.26133 -10.26120
 Alpha  occ. eigenvalues --  -10.25792 -10.25568 -10.25557 -10.25044 -10.24234
 Alpha  occ. eigenvalues --  -10.24200 -10.24160 -10.23962 -10.23744 -10.23656
 Alpha  occ. eigenvalues --  -10.23141 -10.22697 -10.22641 -10.21755 -10.21523
 Alpha  occ. eigenvalues --  -10.20725 -10.20644 -10.20524 -10.20186 -10.20112
 Alpha  occ. eigenvalues --  -10.20025 -10.19869 -10.19820 -10.19386 -10.19350
 Alpha  occ. eigenvalues --  -10.19003 -10.18951 -10.18293 -10.18115 -10.17816
 Alpha  occ. eigenvalues --  -10.17672 -10.17336 -10.17070 -10.16483 -10.16371
 Alpha  occ. eigenvalues --  -10.15509 -10.11155  -1.91142  -1.18946  -1.18415
 Alpha  occ. eigenvalues --   -1.17886  -1.10911  -1.10372  -1.06875  -1.05965
 Alpha  occ. eigenvalues --   -1.05756  -1.04906  -1.04456  -1.04134  -1.03946
 Alpha  occ. eigenvalues --   -1.03281  -1.02916  -1.02745  -1.01939  -1.01483
 Alpha  occ. eigenvalues --   -1.00646  -1.00207  -0.99302  -0.99186  -0.98611
 Alpha  occ. eigenvalues --   -0.97675  -0.97545  -0.95381  -0.94295  -0.94020
 Alpha  occ. eigenvalues --   -0.93914  -0.92815  -0.92697  -0.92071  -0.91349
 Alpha  occ. eigenvalues --   -0.90891  -0.90608  -0.90555  -0.89872  -0.89375
 Alpha  occ. eigenvalues --   -0.89005  -0.87973  -0.87173  -0.86602  -0.86152
 Alpha  occ. eigenvalues --   -0.82885  -0.81544  -0.80430  -0.80409  -0.79800
 Alpha  occ. eigenvalues --   -0.78967  -0.78741  -0.77589  -0.77261  -0.76536
 Alpha  occ. eigenvalues --   -0.75780  -0.75382  -0.74808  -0.74622  -0.73301
 Alpha  occ. eigenvalues --   -0.73275  -0.73024  -0.71660  -0.71449  -0.70788
 Alpha  occ. eigenvalues --   -0.69477  -0.69054  -0.68564  -0.68087  -0.67596
 Alpha  occ. eigenvalues --   -0.67196  -0.66795  -0.66225  -0.65025  -0.64747
 Alpha  occ. eigenvalues --   -0.64353  -0.63976  -0.63531  -0.63370  -0.62786
 Alpha  occ. eigenvalues --   -0.62482  -0.62191  -0.61481  -0.60676  -0.60454
 Alpha  occ. eigenvalues --   -0.60087  -0.60034  -0.59485  -0.59058  -0.58703
 Alpha  occ. eigenvalues --   -0.58077  -0.58002  -0.57751  -0.57720  -0.57278
 Alpha  occ. eigenvalues --   -0.56759  -0.56522  -0.56290  -0.56025  -0.55872
 Alpha  occ. eigenvalues --   -0.55573  -0.54894  -0.54399  -0.54272  -0.53927
 Alpha  occ. eigenvalues --   -0.53176  -0.53163  -0.52843  -0.52519  -0.52153
 Alpha  occ. eigenvalues --   -0.51729  -0.51528  -0.51147  -0.51006  -0.50858
 Alpha  occ. eigenvalues --   -0.50265  -0.49945  -0.49711  -0.49542  -0.49402
 Alpha  occ. eigenvalues --   -0.48996  -0.48867  -0.48436  -0.48374  -0.48181
 Alpha  occ. eigenvalues --   -0.48138  -0.47788  -0.47459  -0.47289  -0.46719
 Alpha  occ. eigenvalues --   -0.46535  -0.46411  -0.46132  -0.46049  -0.45703
 Alpha  occ. eigenvalues --   -0.45605  -0.45483  -0.45409  -0.45243  -0.45003
 Alpha  occ. eigenvalues --   -0.44808  -0.44746  -0.44681  -0.44621  -0.44366
 Alpha  occ. eigenvalues --   -0.44337  -0.44031  -0.43772  -0.43398  -0.43308
 Alpha  occ. eigenvalues --   -0.43256  -0.43062  -0.42881  -0.42713  -0.42566
 Alpha  occ. eigenvalues --   -0.42435  -0.42230  -0.42087  -0.42001  -0.41929
 Alpha  occ. eigenvalues --   -0.41895  -0.41852  -0.41811  -0.41436  -0.41293
 Alpha  occ. eigenvalues --   -0.41058  -0.41007  -0.40890  -0.40740  -0.40675
 Alpha  occ. eigenvalues --   -0.40590  -0.40538  -0.40470  -0.40008  -0.39946
 Alpha  occ. eigenvalues --   -0.39856  -0.39848  -0.39577  -0.39016  -0.38988
 Alpha  occ. eigenvalues --   -0.38835  -0.38778  -0.38583  -0.38322  -0.38077
 Alpha  occ. eigenvalues --   -0.38006  -0.37946  -0.37881  -0.37780  -0.37692
 Alpha  occ. eigenvalues --   -0.37627  -0.37420  -0.37268  -0.36992  -0.36860
 Alpha  occ. eigenvalues --   -0.36686  -0.36407  -0.36343  -0.36179  -0.36154
 Alpha  occ. eigenvalues --   -0.35912  -0.35838  -0.35457  -0.35430  -0.35234
 Alpha  occ. eigenvalues --   -0.35132  -0.35081  -0.34658  -0.34533  -0.34193
 Alpha  occ. eigenvalues --   -0.34102  -0.33955  -0.33929  -0.33419  -0.33190
 Alpha  occ. eigenvalues --   -0.32948  -0.32887  -0.32612  -0.32163  -0.31477
 Alpha  occ. eigenvalues --   -0.31138  -0.31120  -0.30214  -0.29805  -0.29412
 Alpha  occ. eigenvalues --   -0.28692  -0.28503  -0.28349  -0.27919  -0.27915
 Alpha  occ. eigenvalues --   -0.27496  -0.27300  -0.26963  -0.26936  -0.26603
 Alpha  occ. eigenvalues --   -0.26480  -0.26298  -0.26162  -0.26087  -0.25476
 Alpha  occ. eigenvalues --   -0.25438  -0.25078  -0.25031  -0.24742  -0.24636
 Alpha  occ. eigenvalues --   -0.24317  -0.24245  -0.24111  -0.24063  -0.23347
 Alpha  occ. eigenvalues --   -0.23231  -0.23006  -0.22724  -0.22621  -0.22484
 Alpha  occ. eigenvalues --   -0.22400  -0.22047  -0.21528  -0.21079  -0.20299
 Alpha  occ. eigenvalues --   -0.14130  -0.12945  -0.10291
 Alpha virt. eigenvalues --   -0.09280  -0.07331  -0.03126  -0.02286  -0.02056
 Alpha virt. eigenvalues --   -0.01954  -0.01610  -0.01550  -0.01252  -0.01048
 Alpha virt. eigenvalues --   -0.00610  -0.00130   0.00682   0.00718   0.00937

 Mulliken charges:
               1
     1  C    0.078764
     2  C   -0.001635
     3  O   -0.325383
     4  H   -0.003757
     5  H    0.020075
     6  H    0.033954
     7  N   -0.115919
     8  C    0.121250
     9  C    0.040205
    10  O   -0.310253
    11  C    0.081579
    12  C    0.046395
    13  O   -0.407517
    14  O   -0.353889
    15  H    0.115761
    16  H   -0.037773
    17  H    0.006464
    18  H    0.012354
    19  N   -0.118308
    20  C    0.089182
    21  C    0.060956
    22  O   -0.224399
    23  C    0.093132
    24  C    0.010653
    25  C   -0.038106
    26  C    0.028125
    27  N    0.095595
    28  H    0.073615
    29  H    0.011890
    30  H    0.016431
    31  H    0.037958
    32  H    0.016330
    33  H   -0.011085
    34  H    0.031046
    35  H    0.046567
    36  H    0.068894
    37  H    0.047219
    38  H    0.184350
    39  H    0.168122
    40  H    0.184829
    41  N   -0.133545
    42  C    0.086853
    43  C    0.077865
    44  O   -0.278084
    45  C    0.107632
    46  C    0.076015
    47  O   -0.350372
    48  O   -0.477851
    49  H    0.114097
    50  H    0.012549
    51  H    0.009632
    52  H   -0.010762
    53  N   -0.123183
    54  C    0.227664
    55  C    0.037638
    56  O   -0.269496
    57  H    0.128722
    58  H    0.037230
    59  H    0.017924
    60  N   -0.138781
    61  C    0.082699
    62  C    0.086256
    63  O   -0.281785
    64  C    0.107214
    65  C    0.016947
    66  N   -0.013359
    67  O   -0.276022
    68  H    0.124988
    69  H    0.032776
    70  H   -0.019923
    71  H   -0.032924
    72  H    0.119341
    73  H    0.132692
    74  N   -0.123328
    75  C    0.185546
    76  C    0.039540
    77  O   -0.233149
    78  H    0.137412
    79  H    0.005283
    80  H    0.020134
    81  N   -0.155212
    82  C    0.116265
    83  C    0.070675
    84  O   -0.310692
    85  C    0.138161
    86  C   -0.034862
    87  C    0.011570
    88  C   -0.023043
    89  C   -0.022859
    90  C   -0.036363
    91  C    0.195443
    92  O   -0.205108
    93  H    0.123542
    94  H    0.019026
    95  H    0.016695
    96  H    0.014921
    97  H   -0.023194
    98  H   -0.047203
    99  H   -0.027333
   100  H   -0.045080
   101  H    0.177348
   102  N   -0.085571
   103  C    0.173906
   104  C    0.060283
   105  O   -0.282247
   106  C   -0.112780
   107  C    0.020256
   108  C    0.085180
   109  C    0.001317
   110  H    0.132100
   111  H   -0.008377
   112  H   -0.011600
   113  H   -0.001284
   114  H    0.015309
   115  H   -0.004524
   116  H    0.027802
   117  H   -0.003573
   118  H    0.008813
   119  H    0.005198
   120  H   -0.002914
   121  N   -0.138856
   122  C    0.095096
   123  C    0.056646
   124  O   -0.258271
   125  C    0.237432
   126  O   -0.315081
   127  H    0.131428
   128  H   -0.000027
   129  H    0.011370
   130  H    0.009284
   131  H    0.169158
   132  N   -0.145621
   133  C    0.067158
   134  C    0.089017
   135  O   -0.280895
   136  C    0.045088
   137  H    0.135009
   138  H    0.021540
   139  H    0.020724
   140  H    0.008991
   141  H    0.014473
   142  N   -0.123972
   143  C    0.073905
   144  C    0.053768
   145  O   -0.235874
   146  C    0.040876
   147  H    0.163312
   148  H    0.005316
   149  H    0.033031
   150  H    0.006775
   151  H    0.013941
   152  N   -0.157272
   153  C    0.118477
   154  C    0.064845
   155  O   -0.285230
   156  C    0.051026
   157  C    0.094680
   158  C    0.061466
   159  O   -0.487735
   160  O   -0.353256
   161  H    0.117759
   162  H    0.008449
   163  H    0.018710
   164  H    0.013773
   165  H   -0.021580
   166  H   -0.009134
   167  N   -0.140701
   168  C    0.130119
   169  H    0.034801
   170  H    0.029964
   171  H    0.015127
   172  H    0.115740
   173  Ca   1.387337
   174  O   -0.328642
   175  H    0.202266
   176  H    0.208519
 Sum of Mulliken charges =  -0.00000

 Dipole moment (field-independent basis, Debye):
    X=             20.2216    Y=             18.5759    Z=            -19.6700  Tot=             33.7769
 Quadrupole moment (field-independent basis, Debye-Ang):
   XX=           -624.8932   YY=           -576.1054   ZZ=           -487.1258
   XY=           -296.5784   XZ=             37.3507   YZ=             31.7156

 ESP charges:
               1
     1  C   -0.441836
     2  C    0.722497
     3  O   -0.603707
     4  H    0.105550
     5  H    0.103000
     6  H    0.133100
     7  N   -0.742463
     8  C    0.640371
     9  C    0.312215
    10  O   -0.533486
    11  C   -0.537251
    12  C    0.725236
    13  O   -0.718039
    14  O   -0.652102
    15  H    0.351242
    16  H   -0.118535
    17  H    0.131614
    18  H    0.147582
    19  N   -0.167952
    20  C    0.086362
    21  C    0.488116
    22  O   -0.442115
    23  C   -0.531161
    24  C    0.285307
    25  C   -0.370551
    26  C    0.218996
    27  N   -0.486775
    28  H    0.149187
    29  H    0.091474
    30  H    0.175306
    31  H    0.181239
    32  H    0.013985
    33  H   -0.065323
    34  H    0.086544
    35  H    0.146215
    36  H    0.052234
    37  H    0.034363
    38  H    0.350028
    39  H    0.346347
    40  H    0.356168
    41  N   -0.473255
    42  C    0.149979
    43  C    0.384204
    44  O   -0.497151
    45  C   -0.247582
    46  C    0.693915
    47  O   -0.684959
    48  O   -0.806733
    49  H    0.256592
    50  H    0.063795
    51  H    0.092362
    52  H    0.057733
    53  N   -0.035342
    54  C   -0.369625
    55  C    0.560974
    56  O   -0.488311
    57  H    0.208967
    58  H    0.162035
    59  H    0.132572
    60  N   -0.383250
    61  C    0.106040
    62  C    0.507615
    63  O   -0.481468
    64  C   -0.180700
    65  C    0.551905
    66  N   -0.642520
    67  O   -0.535382
    68  H    0.218139
    69  H    0.046093
    70  H    0.027983
    71  H    0.073054
    72  H    0.291003
    73  H    0.365344
    74  N   -0.417171
    75  C   -0.068810
    76  C    0.697344
    77  O   -0.515810
    78  H    0.307139
    79  H    0.042553
    80  H    0.071863
    81  N   -0.651993
    82  C    0.190854
    83  C    0.367621
    84  O   -0.477080
    85  C   -0.207401
    86  C   -0.001557
    87  C   -0.122762
    88  C   -0.064336
    89  C   -0.294144
    90  C   -0.401413
    91  C    0.467327
    92  O   -0.566123
    93  H    0.319683
    94  H    0.081419
    95  H    0.110717
    96  H    0.119917
    97  H    0.131251
    98  H    0.114951
    99  H    0.178515
   100  H    0.154935
   101  H    0.407175
   102  N   -0.416722
   103  C   -0.040450
   104  C    0.465466
   105  O   -0.558635
   106  C    0.274874
   107  C    0.001045
   108  C   -0.265076
   109  C   -0.128412
   110  H    0.286099
   111  H    0.077884
   112  H   -0.054781
   113  H    0.005153
   114  H    0.020466
   115  H   -0.025509
   116  H    0.084656
   117  H    0.087291
   118  H   -0.013567
   119  H    0.053876
   120  H    0.038272
   121  N   -0.111148
   122  C   -0.241210
   123  C    0.624221
   124  O   -0.572668
   125  C    0.132947
   126  O   -0.625607
   127  H    0.179744
   128  H    0.089603
   129  H    0.059374
   130  H    0.046016
   131  H    0.422957
   132  N   -0.042259
   133  C   -0.050994
   134  C    0.559961
   135  O   -0.544893
   136  C   -0.181028
   137  H    0.142689
   138  H    0.086413
   139  H    0.079475
   140  H    0.047942
   141  H    0.048356
   142  N   -0.610401
   143  C    0.642513
   144  C    0.269420
   145  O   -0.420367
   146  C   -0.194485
   147  H    0.239570
   148  H   -0.069622
   149  H    0.071002
   150  H   -0.019865
   151  H    0.050041
   152  N   -0.325040
   153  C   -0.246161
   154  C    0.533498
   155  O   -0.524549
   156  C    0.209584
   157  C    0.018880
   158  C    0.708739
   159  O   -0.860521
   160  O   -0.691096
   161  H    0.232427
   162  H    0.124812
   163  H   -0.030681
   164  H   -0.012252
   165  H    0.003238
   166  H   -0.015647
   167  N   -0.271322
   168  C   -0.126654
   169  H    0.081412
   170  H    0.087614
   171  H    0.077146
   172  H    0.214620
   173  Ca   1.631561
   174  O   -0.782344
   175  H    0.425837
   176  H    0.415602
 Sum of ESP charges =   0.00000

 Normal termination of Gaussian 16 at Tue Sep 17 12:09:24 2019.
