 Gaussian 16, Revision A.03,
 Gaussian 16:  ES64L-G16RevA.03 25-Dec-2016

 ----------------------------------------------------------------------
 #b3lyp/svp scf=(tight,noincore) Test #IOP(5/87=12) Density=Current Pop
 =(MK,readradii) iop(6/33=2) iop(6/42=6)
 ----------------------------------------------------------------------

 -----------------
 Ng-293_loop3_29.0
 -----------------
 Symbolic Z-matrix:
 Charge =  0 Multiplicity = 1

                         Standard orientation:
 ---------------------------------------------------------------------
 Center     Atomic      Atomic             Coordinates (Angstroms)
 Number     Number       Type             X           Y           Z
 ---------------------------------------------------------------------
      1          6           0        8.254017    6.691586    4.127447
      2          6           0        7.527211    5.455042    3.618318
      3          8           0        7.931500    4.294288    3.742419
      4          1           0        8.008810    7.543474    3.493503
      5          1           0        7.943539    6.900795    5.151003
      6          1           0        9.330051    6.517629    4.101576
      7          7           0        6.365993    5.702773    3.010124
      8          6           0        5.606124    4.789007    2.184575
      9          6           0        6.519686    4.014002    1.231857
     10          8           0        7.146838    4.671837    0.399731
     11          6           0        4.797806    3.864324    3.083566
     12          6           0        3.893720    4.766662    3.924050
     13          8           0        2.809697    5.084351    3.379469
     14          8           0        4.280156    5.047260    5.076930
     15          1           0        6.013417    6.644155    3.062946
     16          1           0        4.896013    5.373160    1.594315
     17          1           0        5.413601    3.291963    3.767451
     18          1           0        4.197202    3.169725    2.493390
     19          7           0        6.738037    2.711734    1.355231
     20          6           0        7.587090    1.863180    0.544389
     21          6           0        7.329904    1.659631   -0.933387
     22          8           0        8.295065    1.612262   -1.700407
     23          6           0        7.784832    0.513672    1.241473
     24          6           0        6.535958   -0.365751    1.193225
     25          6           0        5.171705    0.176057    1.597401
     26          6           0        3.967235   -0.741958    1.418236
     27          7           0        3.658551   -1.006061    0.001951
     28          1           0        6.212820    2.267355    2.104012
     29          1           0        8.514006    2.441482    0.561508
     30          1           0        8.060476    0.666222    2.286054
     31          1           0        8.561455   -0.022788    0.708212
     32          1           0        6.699594   -1.227080    1.831845
     33          1           0        6.461152   -0.778089    0.176474
     34          1           0        4.951838    1.040548    0.970094
     35          1           0        5.186598    0.607818    2.602618
     36          1           0        3.101650   -0.344339    1.937044
     37          1           0        4.110510   -1.673541    1.957610
     38          1           0        4.470721   -1.332867   -0.501615
     39          1           0        2.904848   -1.677296   -0.091723
     40          1           0        3.336463   -0.133573   -0.384344
     41          7           0        6.056631    1.625326   -1.339097
     42          6           0        5.614427    1.507446   -2.708572
     43          6           0        4.099728    1.643460   -2.717792
     44          8           0        3.507874    1.355113   -1.680890
     45          6           0        6.086412    0.235133   -3.410105
     46          6           0        5.425492   -1.069528   -2.971648
     47          8           0        5.566857   -1.588959   -1.840981
     48          8           0        4.697859   -1.684463   -3.773524
     49          1           0        5.301212    1.820306   -0.693401
     50          1           0        6.090592    2.348501   -3.202123
     51          1           0        7.157191    0.111318   -3.241871
     52          1           0        5.933297    0.296241   -4.479928
     53          7           0        3.477906    2.279096   -3.723329
     54          6           0        2.053808    2.436306   -3.933403
     55          6           0        1.341275    1.093107   -3.837948
     56          8           0        1.754452    0.103858   -4.433575
     57          1           0        3.990908    2.704912   -4.474601
     58          1           0        1.850603    2.851762   -4.909264
     59          1           0        1.607405    3.140724   -3.220017
     60          7           0        0.155186    1.198340   -3.221735
     61          6           0       -0.831142    0.138083   -3.169640
     62          6           0       -2.215137    0.659539   -3.520842
     63          8           0       -3.217121    0.107372   -3.043307
     64          6           0       -0.878842   -0.696883   -1.891690
     65          6           0        0.455512   -1.376807   -1.601511
     66          7           0        0.837437   -2.334339   -2.440894
     67          8           0        1.017792   -1.157949   -0.529670
     68          1           0       -0.071195    2.127243   -2.891749
     69          1           0       -0.586652   -0.586914   -3.943916
     70          1           0       -1.616408   -1.480759   -2.068138
     71          1           0       -1.215759   -0.074734   -1.061921
     72          1           0        0.309002   -2.492102   -3.290875
     73          1           0        1.747620   -2.752963   -2.299043
     74          7           0       -2.248516    1.656972   -4.407472
     75          6           0       -3.465123    2.421121   -4.577895
     76          6           0       -3.962203    2.950762   -3.236668
     77          8           0       -3.174463    3.238182   -2.336193
     78          1           0       -1.397180    2.019507   -4.820624
     79          1           0       -4.240146    1.813725   -5.042878
     80          1           0       -3.314126    3.091981   -5.420301
     81          7           0       -5.272483    3.068637   -3.029131
     82          6           0       -6.015324    3.263168   -1.799275
     83          6           0       -5.850614    2.082892   -0.836354
     84          8           0       -6.865865    1.559616   -0.388640
     85          6           0       -5.798743    4.639641   -1.195856
     86          6           0       -6.997866    5.166210   -0.443973
     87          6           0       -7.187363    4.700412    0.865730
     88          6           0       -7.886225    6.055408   -1.068507
     89          6           0       -8.328591    5.134338    1.542344
     90          6           0       -9.018697    6.499000   -0.386426
     91          6           0       -9.121452    6.152149    0.976452
     92          8           0      -10.079983    6.738423    1.749563
     93          1           0       -5.744060    3.238399   -3.909015
     94          1           0       -7.056877    3.164101   -2.095844
     95          1           0       -5.525528    5.417789   -1.911566
     96          1           0       -4.911326    4.719744   -0.564053
     97          1           0       -6.445056    4.014212    1.255616
     98          1           0       -7.735044    6.300231   -2.109135
     99          1           0       -8.540430    4.763106    2.537789
    100          1           0       -9.734710    7.079521   -0.960813
    101          1           0      -10.516508    7.437506    1.249535
    102          7           0       -4.629667    1.616441   -0.577292
    103          6           0       -4.267391    0.503594    0.279229
    104          6           0       -4.834824   -0.816584   -0.227575
    105          8           0       -4.043441   -1.734475   -0.439446
    106          6           0       -4.619007    0.737587    1.745487
    107          6           0       -4.123897    2.067058    2.296823
    108          6           0       -4.197614   -0.389115    2.696417
    109          6           0       -2.612276    2.249829    2.113256
    110          1           0       -3.879089    2.250474   -0.833485
    111          1           0       -3.188358    0.428327    0.165550
    112          1           0       -5.709861    0.732533    1.672594
    113          1           0       -4.356397    2.236464    3.339006
    114          1           0       -4.409774    2.955773    1.732412
    115          1           0       -4.730134   -1.322940    2.511502
    116          1           0       -3.136273   -0.565062    2.496422
    117          1           0       -4.370053   -0.141057    3.741134
    118          1           0       -2.085219    1.350629    2.456258
    119          1           0       -2.335550    2.422978    1.071411
    120          1           0       -2.285389    3.104134    2.694898
    121          7           0       -6.151308   -1.016442   -0.271450
    122          6           0       -6.824111   -2.231150   -0.686203
    123          6           0       -6.351166   -3.448699    0.086712
    124          8           0       -6.102994   -4.489616   -0.519096
    125          6           0       -8.337201   -2.033216   -0.642856
    126          8           0       -8.676363   -1.895602    0.717780
    127          1           0       -6.746595   -0.249731   -0.014959
    128          1           0       -6.537785   -2.460070   -1.709391
    129          1           0       -8.903303   -2.815256   -1.152015
    130          1           0       -8.590077   -1.134167   -1.205231
    131          1           0       -9.609962   -2.099256    0.872108
    132          7           0       -6.139257   -3.240593    1.391199
    133          6           0       -5.483112   -4.045019    2.402373
    134          6           0       -4.193093   -4.790716    2.075132
    135          8           0       -3.882886   -5.846890    2.603968
    136          6           0       -6.428989   -4.969917    3.174566
    137          1           0       -6.375602   -2.327086    1.764355
    138          1           0       -5.146347   -3.306848    3.118608
    139          1           0       -6.732869   -5.812558    2.553750
    140          1           0       -5.884556   -5.367420    4.029425
    141          1           0       -7.323583   -4.492523    3.562246
    142          7           0       -3.378439   -4.285433    1.139221
    143          6           0       -2.173282   -4.920168    0.642021
    144          6           0       -1.057526   -4.574466    1.627404
    145          8           0       -0.887461   -3.482098    2.167412
    146          6           0       -1.805080   -4.554969   -0.794349
    147          1           0       -3.637380   -3.398311    0.735657
    148          1           0       -2.401916   -5.981234    0.597684
    149          1           0       -2.139630   -3.541210   -1.008053
    150          1           0       -0.759071   -4.668734   -1.061414
    151          1           0       -2.407524   -5.241437   -1.395948
    152          7           0       -0.133188   -5.540225    1.762710
    153          6           0        1.154156   -5.422433    2.400652
    154          6           0        1.115223   -5.067976    3.884750
    155          8           0        2.097574   -4.624087    4.471306
    156          6           0        2.053169   -4.526734    1.553953
    157          6           0        2.235424   -5.020311    0.122812
    158          6           0        3.269784   -4.189184   -0.625338
    159          8           0        4.437052   -4.035548   -0.187638
    160          8           0        3.027845   -3.824291   -1.797268
    161          1           0       -0.298148   -6.323736    1.144083
    162          1           0        1.537744   -6.443427    2.347443
    163          1           0        3.055997   -4.360283    1.939739
    164          1           0        1.668730   -3.511610    1.454306
    165          1           0        1.245485   -4.944021   -0.328630
    166          1           0        2.521216   -6.066575    0.014855
    167          7           0       -0.046398   -4.987235    4.523356
    168          6           0       -0.222031   -4.372357    5.820923
    169          1           0        0.049671   -3.318386    5.763104
    170          1           0       -1.264209   -4.462539    6.127789
    171          1           0        0.416738   -4.872179    6.550110
    172          1           0       -0.886796   -5.284611    4.035711
    173         20           0        5.533536   -4.272908   -2.511661
    174          8           0        6.962304   -6.173544   -3.744586
    175          1           0        7.869903   -6.267374   -3.441173
    176          1           0        6.781284   -6.967650   -4.245612
 ---------------------------------------------------------------------

 SCF Done:  E(RB3LYP) =  -5333.43975422     A.U. after   28 cycles

 The electronic state is 1-A.
 Alpha  occ. eigenvalues -- -145.49205 -19.26243 -19.16697 -19.14970 -19.13650
 Alpha  occ. eigenvalues --  -19.13523 -19.12691 -19.12118 -19.11736 -19.11169
 Alpha  occ. eigenvalues --  -19.11156 -19.10063 -19.09946 -19.09214 -19.09202
 Alpha  occ. eigenvalues --  -19.08676 -19.08362 -19.08156 -19.07981 -19.06990
 Alpha  occ. eigenvalues --  -19.04667 -19.03916 -18.98645 -18.98521 -15.55118
 Alpha  occ. eigenvalues --  -14.40834 -14.39454 -14.39235 -14.38793 -14.38730
 Alpha  occ. eigenvalues --  -14.36219 -14.35511 -14.34965 -14.34923 -14.34652
 Alpha  occ. eigenvalues --  -14.33818 -14.33081 -14.32854 -14.32098 -14.29771
 Alpha  occ. eigenvalues --  -12.68729 -12.68702 -12.68616 -10.32362 -10.32097
 Alpha  occ. eigenvalues --  -10.31269 -10.30967 -10.30327 -10.30220 -10.28635
 Alpha  occ. eigenvalues --  -10.28597 -10.27906 -10.27584 -10.27529 -10.27302
 Alpha  occ. eigenvalues --  -10.26997 -10.26995 -10.26605 -10.26249 -10.26066
 Alpha  occ. eigenvalues --  -10.25946 -10.25811 -10.25242 -10.24949 -10.23790
 Alpha  occ. eigenvalues --  -10.23693 -10.23604 -10.23603 -10.23159 -10.23153
 Alpha  occ. eigenvalues --  -10.23089 -10.22855 -10.20742 -10.20375 -10.20192
 Alpha  occ. eigenvalues --  -10.19924 -10.19876 -10.19871 -10.19690 -10.19596
 Alpha  occ. eigenvalues --  -10.19425 -10.19351 -10.19349 -10.19341 -10.19335
 Alpha  occ. eigenvalues --  -10.18712 -10.18521 -10.18372 -10.18132 -10.17979
 Alpha  occ. eigenvalues --  -10.17969 -10.17611 -10.17379 -10.16958 -10.16797
 Alpha  occ. eigenvalues --  -10.14864 -10.10991  -1.91774  -1.19343  -1.19123
 Alpha  occ. eigenvalues --   -1.18563  -1.11893  -1.07142  -1.06832  -1.06537
 Alpha  occ. eigenvalues --   -1.05399  -1.05330  -1.04978  -1.04480  -1.04256
 Alpha  occ. eigenvalues --   -1.03524  -1.02670  -1.02602  -1.02518  -1.01612
 Alpha  occ. eigenvalues --   -1.01101  -1.00864  -1.00491  -0.98407  -0.97810
 Alpha  occ. eigenvalues --   -0.96387  -0.96354  -0.95704  -0.95538  -0.95390
 Alpha  occ. eigenvalues --   -0.94765  -0.93560  -0.92732  -0.92647  -0.92470
 Alpha  occ. eigenvalues --   -0.92264  -0.91822  -0.91440  -0.89869  -0.89712
 Alpha  occ. eigenvalues --   -0.88883  -0.88830  -0.86556  -0.85821  -0.83235
 Alpha  occ. eigenvalues --   -0.82338  -0.81550  -0.80587  -0.80176  -0.80002
 Alpha  occ. eigenvalues --   -0.79009  -0.78261  -0.77004  -0.76895  -0.75986
 Alpha  occ. eigenvalues --   -0.75344  -0.75274  -0.75222  -0.74357  -0.73227
 Alpha  occ. eigenvalues --   -0.73167  -0.72863  -0.70846  -0.69910  -0.69284
 Alpha  occ. eigenvalues --   -0.68671  -0.67936  -0.67303  -0.67082  -0.66588
 Alpha  occ. eigenvalues --   -0.65697  -0.65315  -0.64447  -0.63925  -0.63663
 Alpha  occ. eigenvalues --   -0.63470  -0.63196  -0.62763  -0.62602  -0.61799
 Alpha  occ. eigenvalues --   -0.61652  -0.60607  -0.60141  -0.59688  -0.59392
 Alpha  occ. eigenvalues --   -0.59281  -0.58856  -0.58845  -0.58509  -0.58206
 Alpha  occ. eigenvalues --   -0.58052  -0.57598  -0.57217  -0.56878  -0.56388
 Alpha  occ. eigenvalues --   -0.56345  -0.56141  -0.55885  -0.55563  -0.55401
 Alpha  occ. eigenvalues --   -0.55321  -0.54978  -0.54499  -0.53982  -0.53483
 Alpha  occ. eigenvalues --   -0.53393  -0.53311  -0.53126  -0.52833  -0.52722
 Alpha  occ. eigenvalues --   -0.51900  -0.51788  -0.51480  -0.51236  -0.50553
 Alpha  occ. eigenvalues --   -0.50247  -0.50093  -0.49421  -0.49125  -0.48965
 Alpha  occ. eigenvalues --   -0.48807  -0.48609  -0.48540  -0.48154  -0.48070
 Alpha  occ. eigenvalues --   -0.47894  -0.47687  -0.47569  -0.47464  -0.46979
 Alpha  occ. eigenvalues --   -0.46754  -0.46420  -0.46207  -0.45999  -0.45909
 Alpha  occ. eigenvalues --   -0.45854  -0.45681  -0.45212  -0.45096  -0.45068
 Alpha  occ. eigenvalues --   -0.44983  -0.44827  -0.44362  -0.44195  -0.44028
 Alpha  occ. eigenvalues --   -0.43818  -0.43690  -0.43649  -0.43638  -0.43585
 Alpha  occ. eigenvalues --   -0.43490  -0.43288  -0.43207  -0.42816  -0.42646
 Alpha  occ. eigenvalues --   -0.42484  -0.42389  -0.42128  -0.41968  -0.41812
 Alpha  occ. eigenvalues --   -0.41761  -0.41601  -0.41581  -0.41216  -0.41137
 Alpha  occ. eigenvalues --   -0.41038  -0.40893  -0.40750  -0.40692  -0.40671
 Alpha  occ. eigenvalues --   -0.40571  -0.40458  -0.40254  -0.40026  -0.39969
 Alpha  occ. eigenvalues --   -0.39896  -0.39865  -0.39732  -0.39490  -0.39258
 Alpha  occ. eigenvalues --   -0.39248  -0.39027  -0.38675  -0.38285  -0.38157
 Alpha  occ. eigenvalues --   -0.38020  -0.37964  -0.37838  -0.37687  -0.37577
 Alpha  occ. eigenvalues --   -0.37466  -0.37240  -0.37192  -0.36899  -0.36862
 Alpha  occ. eigenvalues --   -0.36796  -0.36651  -0.36172  -0.36156  -0.36133
 Alpha  occ. eigenvalues --   -0.35937  -0.35806  -0.35635  -0.35376  -0.35147
 Alpha  occ. eigenvalues --   -0.34962  -0.34785  -0.34358  -0.34327  -0.34183
 Alpha  occ. eigenvalues --   -0.34036  -0.33908  -0.33776  -0.33647  -0.33275
 Alpha  occ. eigenvalues --   -0.33244  -0.32816  -0.32440  -0.31301  -0.31230
 Alpha  occ. eigenvalues --   -0.30706  -0.30505  -0.30374  -0.30079  -0.29951
 Alpha  occ. eigenvalues --   -0.29729  -0.29588  -0.29489  -0.29385  -0.29249
 Alpha  occ. eigenvalues --   -0.29141  -0.28127  -0.28050  -0.27969  -0.27728
 Alpha  occ. eigenvalues --   -0.27233  -0.27164  -0.27055  -0.26926  -0.26832
 Alpha  occ. eigenvalues --   -0.26633  -0.26446  -0.26140  -0.26032  -0.25695
 Alpha  occ. eigenvalues --   -0.25345  -0.24975  -0.24665  -0.24577  -0.24153
 Alpha  occ. eigenvalues --   -0.23776  -0.23569  -0.23114  -0.23051  -0.22730
 Alpha  occ. eigenvalues --   -0.22499  -0.22050  -0.21203  -0.19963  -0.19645
 Alpha  occ. eigenvalues --   -0.15645  -0.14315  -0.13207
 Alpha virt. eigenvalues --   -0.12370  -0.03891  -0.03422  -0.02659  -0.02321
 Alpha virt. eigenvalues --   -0.02043  -0.01529  -0.01194  -0.00675  -0.00569
 Alpha virt. eigenvalues --   -0.00019   0.00516   0.00851   0.00998   0.01409

 Mulliken charges:
               1
     1  C    0.048154
     2  C    0.049271
     3  O   -0.311325
     4  H    0.002611
     5  H    0.045994
     6  H    0.022727
     7  N   -0.094660
     8  C    0.077853
     9  C    0.051541
    10  O   -0.300708
    11  C    0.059842
    12  C    0.048673
    13  O   -0.355426
    14  O   -0.328906
    15  H    0.113289
    16  H    0.006185
    17  H    0.006865
    18  H   -0.036123
    19  N   -0.112392
    20  C    0.122855
    21  C    0.081094
    22  O   -0.282944
    23  C    0.087786
    24  C   -0.043984
    25  C   -0.047476
    26  C    0.075946
    27  N    0.043960
    28  H    0.124500
    29  H    0.022989
    30  H    0.028853
    31  H    0.002768
    32  H   -0.008316
    33  H    0.010935
    34  H   -0.013113
    35  H    0.039931
    36  H    0.049443
    37  H    0.038339
    38  H    0.174894
    39  H    0.180143
    40  H    0.159254
    41  N   -0.145896
    42  C    0.074487
    43  C    0.140277
    44  O   -0.322882
    45  C    0.162006
    46  C    0.024512
    47  O   -0.428349
    48  O   -0.355046
    49  H    0.143121
    50  H    0.013984
    51  H    0.034647
    52  H   -0.006431
    53  N   -0.104026
    54  C    0.188662
    55  C    0.036721
    56  O   -0.251079
    57  H    0.128354
    58  H    0.028829
    59  H    0.019845
    60  N   -0.156813
    61  C    0.062757
    62  C    0.061859
    63  O   -0.259930
    64  C    0.134349
    65  C    0.019430
    66  N   -0.031591
    67  O   -0.301701
    68  H    0.129886
    69  H    0.017794
    70  H    0.050845
    71  H    0.015140
    72  H    0.111648
    73  H    0.138981
    74  N   -0.121241
    75  C    0.199821
    76  C    0.062845
    77  O   -0.311655
    78  H    0.117778
    79  H    0.015375
    80  H    0.028484
    81  N   -0.109727
    82  C    0.159564
    83  C    0.064352
    84  O   -0.296625
    85  C    0.141164
    86  C   -0.080313
    87  C    0.034289
    88  C   -0.003739
    89  C    0.000777
    90  C   -0.050185
    91  C    0.167303
    92  O   -0.196269
    93  H    0.121297
    94  H    0.004696
    95  H   -0.021061
    96  H    0.015525
    97  H   -0.022964
    98  H   -0.042544
    99  H   -0.015032
   100  H   -0.029483
   101  H    0.173680
   102  N   -0.114911
   103  C    0.156330
   104  C    0.088945
   105  O   -0.293492
   106  C   -0.104602
   107  C    0.032390
   108  C    0.094141
   109  C   -0.025738
   110  H    0.146659
   111  H   -0.007593
   112  H   -0.009070
   113  H    0.007186
   114  H   -0.001187
   115  H   -0.044850
   116  H    0.038685
   117  H    0.012769
   118  H    0.017650
   119  H    0.003785
   120  H    0.028278
   121  N   -0.125788
   122  C    0.106791
   123  C    0.048945
   124  O   -0.263076
   125  C    0.222072
   126  O   -0.315883
   127  H    0.145113
   128  H    0.010553
   129  H    0.011119
   130  H    0.002278
   131  H    0.174090
   132  N   -0.121674
   133  C    0.046789
   134  C    0.052551
   135  O   -0.284695
   136  C    0.096526
   137  H    0.131909
   138  H    0.027667
   139  H    0.020772
   140  H    0.015850
   141  H   -0.011478
   142  N   -0.121763
   143  C    0.065962
   144  C    0.059698
   145  O   -0.264444
   146  C    0.054439
   147  H    0.140776
   148  H    0.001109
   149  H    0.050819
   150  H    0.011126
   151  H    0.022797
   152  N   -0.155210
   153  C    0.160542
   154  C    0.059036
   155  O   -0.286237
   156  C   -0.012352
   157  C    0.127832
   158  C    0.051002
   159  O   -0.432670
   160  O   -0.423185
   161  H    0.112250
   162  H   -0.005517
   163  H    0.033459
   164  H    0.026337
   165  H   -0.030270
   166  H   -0.015703
   167  N   -0.131488
   168  C    0.144970
   169  H    0.032118
   170  H    0.010471
   171  H    0.024094
   172  H    0.124063
   173  Ca   1.261092
   174  O   -0.310428
   175  H    0.184866
   176  H    0.192777
 Sum of Mulliken charges =  -0.00000

 Dipole moment (field-independent basis, Debye):
    X=             -8.1149    Y=            -17.7877    Z=            -28.8665  Tot=             34.8644
 Quadrupole moment (field-independent basis, Debye-Ang):
   XX=           -494.1004   YY=           -508.0762   ZZ=           -554.9448
   XY=           -217.6351   XZ=            -79.2715   YZ=            -32.1720

 ESP charges:
               1
     1  C   -0.454971
     2  C    0.830940
     3  O   -0.632999
     4  H    0.090380
     5  H    0.125042
     6  H    0.116182
     7  N   -0.588731
     8  C    0.146476
     9  C    0.231100
    10  O   -0.525805
    11  C   -0.276778
    12  C    0.729038
    13  O   -0.651184
    14  O   -0.633642
    15  H    0.328108
    16  H    0.090319
    17  H    0.101250
    18  H    0.007507
    19  N    0.185634
    20  C   -0.363815
    21  C    0.687260
    22  O   -0.556369
    23  C   -0.132812
    24  C   -0.045762
    25  C    0.176106
    26  C   -0.348972
    27  N    0.420367
    28  H    0.090946
    29  H    0.152114
    30  H    0.080805
    31  H    0.080348
    32  H    0.004081
    33  H    0.019193
    34  H   -0.026436
    35  H    0.025130
    36  H    0.127582
    37  H    0.117712
    38  H    0.194491
    39  H    0.083146
    40  H    0.092783
    41  N   -0.338420
    42  C   -0.000926
    43  C    0.611569
    44  O   -0.433195
    45  C   -0.172310
    46  C    0.651238
    47  O   -0.763579
    48  O   -0.683545
    49  H    0.149916
    50  H    0.063595
    51  H    0.091738
    52  H    0.047384
    53  N   -0.519351
    54  C    0.028193
    55  C    0.532731
    56  O   -0.480545
    57  H    0.324010
    58  H    0.089780
    59  H    0.054054
    60  N   -0.821745
    61  C    0.645026
    62  C    0.326583
    63  O   -0.446246
    64  C   -0.289725
    65  C    0.791091
    66  N   -0.740995
    67  O   -0.655737
    68  H    0.361204
    69  H   -0.066525
    70  H    0.028374
    71  H    0.069588
    72  H    0.330004
    73  H    0.413551
    74  N   -0.444317
    75  C    0.039145
    76  C    0.443918
    77  O   -0.510509
    78  H    0.301881
    79  H    0.067610
    80  H    0.081482
    81  N   -0.582370
    82  C    0.314347
    83  C    0.366227
    84  O   -0.537168
    85  C   -0.058402
    86  C   -0.100170
    87  C   -0.068092
    88  C   -0.070768
    89  C   -0.244822
    90  C   -0.355391
    91  C    0.398303
    92  O   -0.543258
    93  H    0.302187
    94  H    0.044842
    95  H    0.052958
    96  H    0.074797
    97  H    0.091986
    98  H    0.103183
    99  H    0.162025
   100  H    0.161536
   101  H    0.401773
   102  N   -0.342740
   103  C   -0.053579
   104  C    0.455723
   105  O   -0.474788
   106  C    0.027993
   107  C    0.049730
   108  C   -0.261252
   109  C   -0.185648
   110  H    0.315641
   111  H    0.146128
   112  H   -0.003185
   113  H    0.022967
   114  H   -0.001384
   115  H    0.047820
   116  H    0.063951
   117  H    0.102564
   118  H    0.052116
   119  H    0.027688
   120  H    0.077945
   121  N   -0.169140
   122  C   -0.329846
   123  C    0.713160
   124  O   -0.560905
   125  C    0.261887
   126  O   -0.653039
   127  H    0.322772
   128  H    0.129255
   129  H    0.027524
   130  H    0.014118
   131  H    0.423549
   132  N   -0.570372
   133  C    0.359641
   134  C    0.525745
   135  O   -0.572360
   136  C   -0.315120
   137  H    0.304841
   138  H   -0.004025
   139  H    0.090693
   140  H    0.074564
   141  H    0.072890
   142  N   -0.470543
   143  C    0.573361
   144  C    0.318348
   145  O   -0.437700
   146  C   -0.301973
   147  H    0.117104
   148  H   -0.041092
   149  H    0.128705
   150  H    0.021574
   151  H    0.069380
   152  N   -0.598922
   153  C   -0.098394
   154  C    0.386469
   155  O   -0.496750
   156  C    0.093217
   157  C   -0.006556
   158  C    0.574056
   159  O   -0.741261
   160  O   -0.738077
   161  H    0.316241
   162  H    0.131600
   163  H   -0.016307
   164  H    0.119025
   165  H    0.020112
   166  H    0.002331
   167  N   -0.151529
   168  C   -0.271989
   169  H    0.137935
   170  H    0.110120
   171  H    0.104255
   172  H    0.237625
   173  Ca   1.530433
   174  O   -0.890164
   175  H    0.411487
   176  H    0.458881
 Sum of ESP charges =  -0.00000

 Normal termination of Gaussian 16 at Tue Sep 17 00:43:05 2019.
