 Gaussian 16, Revision A.03,
 Gaussian 16:  ES64L-G16RevA.03 25-Dec-2016

 ----------------------------------------------------------------------
 #b3lyp/svp scf=(tight,noincore) Test #IOP(5/87=12) Density=Current Pop
 =(MK,readradii) iop(6/33=2) iop(6/42=6)
 ----------------------------------------------------------------------

 -----------------
 Ng-293_loop3_34.0
 -----------------
 Symbolic Z-matrix:
 Charge =  0 Multiplicity = 1

                         Standard orientation:
 ---------------------------------------------------------------------
 Center     Atomic      Atomic             Coordinates (Angstroms)
 Number     Number       Type             X           Y           Z
 ---------------------------------------------------------------------
      1          6           0        8.328915    1.986736    5.646898
      2          6           0        9.096305    2.202320    4.343044
      3          8           0       10.069290    1.505799    4.083122
      4          1           0        8.672233    1.067756    6.121899
      5          1           0        8.504700    2.828950    6.316662
      6          1           0        7.263121    1.908842    5.433198
      7          7           0        8.715981    3.201635    3.553599
      8          6           0        9.229881    3.380589    2.207314
      9          6           0        8.784138    2.354301    1.179430
     10          8           0        7.642825    1.889633    1.210869
     11          6           0        9.011864    4.783122    1.634367
     12          6           0        7.575637    5.252204    1.525673
     13          8           0        7.317223    6.327274    2.108379
     14          8           0        6.856349    4.676426    0.670743
     15          1           0        7.800110    3.543291    3.816378
     16          1           0       10.315984    3.328691    2.190424
     17          1           0        9.442130    4.934014    0.644618
     18          1           0        9.485962    5.489996    2.323178
     19          7           0        9.622612    2.000650    0.203934
     20          6           0        9.532972    0.972573   -0.814605
     21          6           0        8.406565    0.980298   -1.838592
     22          8           0        8.723545    0.694572   -2.993055
     23          6           0        9.604248   -0.376329   -0.097121
     24          6           0       10.029932   -1.462682   -1.084912
     25          6           0       10.172348   -2.765845   -0.308715
     26          6           0       10.474819   -3.974255   -1.183277
     27          7           0       10.404888   -5.253446   -0.464821
     28          1           0       10.378620    2.677679    0.160532
     29          1           0       10.462270    1.112608   -1.368407
     30          1           0        8.694679   -0.662310    0.415323
     31          1           0       10.434995   -0.307308    0.618977
     32          1           0       10.972809   -1.321359   -1.610184
     33          1           0        9.221702   -1.675632   -1.787703
     34          1           0        9.227924   -2.956004    0.201973
     35          1           0       10.968577   -2.729796    0.432311
     36          1           0       11.415772   -3.808332   -1.694723
     37          1           0        9.730268   -4.065541   -1.977953
     38          1           0        9.456792   -5.322603   -0.112074
     39          1           0       10.630252   -6.068745   -1.022493
     40          1           0       11.020334   -5.309086    0.341859
     41          7           0        7.181253    1.128028   -1.346163
     42          6           0        5.993551    0.604742   -1.998033
     43          6           0        4.827129    1.427845   -1.469488
     44          8           0        4.479887    1.333517   -0.293977
     45          6           0        5.934040   -0.896371   -1.751215
     46          6           0        4.826533   -1.707686   -2.400212
     47          8           0        3.965851   -1.214273   -3.151990
     48          8           0        4.919664   -2.957752   -2.303980
     49          1           0        7.087649    1.366581   -0.365994
     50          1           0        6.051992    0.720981   -3.079132
     51          1           0        5.831618   -1.055771   -0.671770
     52          1           0        6.903058   -1.355145   -1.942870
     53          7           0        4.348784    2.344326   -2.327712
     54          6           0        3.103372    3.058651   -2.180778
     55          6           0        2.008543    2.039250   -1.908070
     56          8           0        2.068745    0.920401   -2.426002
     57          1           0        4.788157    2.429212   -3.227681
     58          1           0        2.816068    3.630878   -3.065319
     59          1           0        3.198377    3.668972   -1.286137
     60          7           0        0.999965    2.481620   -1.143035
     61          6           0       -0.103255    1.613214   -0.778512
     62          6           0       -1.413967    2.393535   -0.859352
     63          8           0       -2.454208    1.834200   -1.166177
     64          6           0       -0.020664    1.000840    0.611875
     65          6           0        1.145235    0.182145    1.131413
     66          7           0        2.015867    0.795439    1.940654
     67          8           0        1.264657   -1.024555    0.908227
     68          1           0        0.982085    3.421308   -0.763344
     69          1           0       -0.248994    0.840839   -1.536535
     70          1           0       -0.965588    0.498229    0.824950
     71          1           0       -0.139496    1.846647    1.289215
     72          1           0        1.955325    1.755864    2.248582
     73          1           0        2.860326    0.307755    2.188146
     74          7           0       -1.412189    3.710991   -0.642773
     75          6           0       -2.510069    4.634795   -0.876960
     76          6           0       -3.722988    4.389147   -0.001126
     77          8           0       -3.624220    4.205121    1.207998
     78          1           0       -0.581169    4.167520   -0.312339
     79          1           0       -2.796652    4.642759   -1.929151
     80          1           0       -2.109298    5.627447   -0.677897
     81          7           0       -4.888709    4.283178   -0.640238
     82          6           0       -6.145216    3.838706   -0.067668
     83          6           0       -6.081161    2.475853    0.601306
     84          8           0       -7.093322    2.078659    1.181623
     85          6           0       -6.861291    4.910181    0.747058
     86          6           0       -7.196304    6.228956    0.089869
     87          6           0       -6.822320    7.440225    0.677375
     88          6           0       -7.889469    6.259174   -1.130831
     89          6           0       -6.992022    8.649554   -0.007990
     90          6           0       -8.195389    7.481110   -1.727393
     91          6           0       -7.750762    8.712882   -1.195467
     92          8           0       -8.137919    9.837211   -1.861119
     93          1           0       -4.870936    4.513681   -1.626520
     94          1           0       -6.663862    3.587150   -0.994180
     95          1           0       -6.228289    5.185106    1.590043
     96          1           0       -7.731888    4.519474    1.263206
     97          1           0       -6.389740    7.450684    1.659244
     98          1           0       -8.204830    5.328357   -1.587151
     99          1           0       -6.649453    9.563489    0.467688
    100          1           0       -8.825901    7.392353   -2.597494
    101          1           0       -8.469869    9.552583   -2.717271
    102          7           0       -4.987918    1.752754    0.376477
    103          6           0       -4.710410    0.362660    0.675188
    104          6           0       -5.562284   -0.664087   -0.061222
    105          8           0       -5.179682   -1.771622   -0.438689
    106          6           0       -4.692082    0.209328    2.194613
    107          6           0       -3.662182    1.101301    2.862887
    108          6           0       -4.577711   -1.260613    2.627155
    109          6           0       -4.223475    1.757140    4.120434
    110          1           0       -4.244631    2.235298   -0.118271
    111          1           0       -3.705220    0.226584    0.290511
    112          1           0       -5.682433    0.504863    2.558018
    113          1           0       -3.297545    1.954013    2.293307
    114          1           0       -2.744331    0.580777    3.164557
    115          1           0       -4.025418   -1.282508    3.567524
    116          1           0       -5.539964   -1.754228    2.763949
    117          1           0       -3.995502   -1.795132    1.879945
    118          1           0       -5.049991    2.427139    3.898232
    119          1           0       -4.572122    0.981167    4.801618
    120          1           0       -3.379658    2.231653    4.608706
    121          7           0       -6.863821   -0.406081   -0.238517
    122          6           0       -7.702009   -1.190648   -1.129075
    123          6           0       -8.038814   -2.585590   -0.632385
    124          8           0       -8.231947   -3.519636   -1.413127
    125          6           0       -8.903634   -0.295336   -1.428265
    126          8           0       -8.430860    0.897069   -2.008571
    127          1           0       -7.177943    0.481812    0.119777
    128          1           0       -7.152367   -1.297940   -2.062339
    129          1           0       -9.396033   -0.164433   -0.456716
    130          1           0       -9.604788   -0.759220   -2.118117
    131          1           0       -9.217065    1.376607   -2.262392
    132          7           0       -7.920198   -2.816892    0.678084
    133          6           0       -7.952724   -4.100012    1.350873
    134          6           0       -6.912888   -5.108323    0.859395
    135          8           0       -7.001661   -6.304590    1.123904
    136          6           0       -9.376055   -4.648327    1.390633
    137          1           0       -7.759096   -2.016867    1.273320
    138          1           0       -7.600657   -3.822364    2.337970
    139          1           0       -9.871323   -4.662575    0.421248
    140          1           0       -9.487759   -5.682587    1.725340
    141          1           0       -9.983875   -4.067549    2.095368
    142          7           0       -5.778068   -4.587439    0.379852
    143          6           0       -4.673787   -5.408555   -0.059618
    144          6           0       -3.361025   -5.253152    0.700056
    145          8           0       -3.048976   -4.192543    1.243226
    146          6           0       -4.496947   -5.041355   -1.527369
    147          1           0       -5.741708   -3.625915    0.077281
    148          1           0       -4.926266   -6.473408   -0.080645
    149          1           0       -3.524292   -5.329276   -1.921251
    150          1           0       -5.299166   -5.417983   -2.169550
    151          1           0       -4.678347   -3.973267   -1.601412
    152          7           0       -2.489372   -6.257338    0.582874
    153          6           0       -1.158608   -6.301112    1.164211
    154          6           0       -1.015370   -6.054708    2.655206
    155          8           0        0.057032   -5.979340    3.248984
    156          6           0       -0.193932   -5.392245    0.404633
    157          6           0        0.140483   -6.087916   -0.914878
    158          6           0        0.941277   -5.119435   -1.774398
    159          8           0        2.067597   -4.748443   -1.380867
    160          8           0        0.493083   -4.638227   -2.837630
    161          1           0       -2.789972   -7.139412    0.215471
    162          1           0       -0.782747   -7.315138    1.125728
    163          1           0        0.699898   -5.187879    0.989955
    164          1           0       -0.591736   -4.385555    0.250593
    165          1           0       -0.715010   -6.438684   -1.480292
    166          1           0        0.719202   -6.979061   -0.666394
    167          7           0       -2.173092   -5.996192    3.315779
    168          6           0       -2.370921   -6.020993    4.750020
    169          1           0       -1.684961   -6.739012    5.198672
    170          1           0       -2.178827   -5.030241    5.160658
    171          1           0       -3.397287   -6.313696    4.970301
    172          1           0       -2.986043   -5.824525    2.738075
    173         20           0        2.568125   -3.312342   -3.678362
    174          8           0        1.040521   -1.569606   -4.908686
    175          1           0        0.190147   -1.599001   -5.350841
    176          1           0        1.306420   -0.657493   -4.946738
 ---------------------------------------------------------------------

 SCF Done:  E(RB3LYP) =  -5333.39726054     A.U. after   34 cycles

 The electronic state is 1-A.
 Alpha  occ. eigenvalues -- -145.43013 -19.20100 -19.17211 -19.14921 -19.12833
 Alpha  occ. eigenvalues --  -19.11631 -19.10482 -19.09680 -19.09577 -19.08626
 Alpha  occ. eigenvalues --  -19.08227 -19.07726 -19.07392 -19.06943 -19.06596
 Alpha  occ. eigenvalues --  -19.06074 -19.06047 -19.05938 -19.05352 -19.05319
 Alpha  occ. eigenvalues --  -19.05288 -19.03828 -18.95244 -18.95119 -15.48983
 Alpha  occ. eigenvalues --  -14.57192 -14.39210 -14.38003 -14.37168 -14.35140
 Alpha  occ. eigenvalues --  -14.34812 -14.34724 -14.34255 -14.33645 -14.33017
 Alpha  occ. eigenvalues --  -14.32348 -14.31970 -14.31511 -14.31466 -14.31337
 Alpha  occ. eigenvalues --  -12.62612 -12.62531 -12.62481 -10.33477 -10.31196
 Alpha  occ. eigenvalues --  -10.30509 -10.29218 -10.28582 -10.27984 -10.27599
 Alpha  occ. eigenvalues --  -10.26807 -10.26559 -10.26200 -10.26160 -10.25995
 Alpha  occ. eigenvalues --  -10.25932 -10.25930 -10.25850 -10.25176 -10.25171
 Alpha  occ. eigenvalues --  -10.24973 -10.24712 -10.24702 -10.24693 -10.24272
 Alpha  occ. eigenvalues --  -10.23574 -10.23046 -10.22771 -10.22632 -10.22532
 Alpha  occ. eigenvalues --  -10.22520 -10.22403 -10.21043 -10.21000 -10.20493
 Alpha  occ. eigenvalues --  -10.20149 -10.19913 -10.19785 -10.19749 -10.19744
 Alpha  occ. eigenvalues --  -10.19712 -10.19680 -10.19452 -10.19226 -10.19113
 Alpha  occ. eigenvalues --  -10.17434 -10.16637 -10.16340 -10.16146 -10.15874
 Alpha  occ. eigenvalues --  -10.15855 -10.15453 -10.15139 -10.15125 -10.14894
 Alpha  occ. eigenvalues --  -10.14708 -10.11320  -1.85707  -1.13404  -1.12868
 Alpha  occ. eigenvalues --   -1.12591  -1.12340  -1.06613  -1.06046  -1.05983
 Alpha  occ. eigenvalues --   -1.04984  -1.03867  -1.03261  -1.02639  -1.02592
 Alpha  occ. eigenvalues --   -1.01657  -1.01463  -1.01061  -1.00678  -0.99795
 Alpha  occ. eigenvalues --   -0.99775  -0.99682  -0.99380  -0.98759  -0.98719
 Alpha  occ. eigenvalues --   -0.98364  -0.95708  -0.94919  -0.93210  -0.92618
 Alpha  occ. eigenvalues --   -0.91877  -0.91336  -0.90737  -0.90291  -0.90140
 Alpha  occ. eigenvalues --   -0.90115  -0.89536  -0.89442  -0.89073  -0.88684
 Alpha  occ. eigenvalues --   -0.87922  -0.87769  -0.87729  -0.86792  -0.85668
 Alpha  occ. eigenvalues --   -0.81054  -0.80909  -0.80066  -0.80066  -0.79247
 Alpha  occ. eigenvalues --   -0.77827  -0.77233  -0.76543  -0.76291  -0.75213
 Alpha  occ. eigenvalues --   -0.75101  -0.74755  -0.73980  -0.73502  -0.73191
 Alpha  occ. eigenvalues --   -0.72581  -0.72426  -0.71784  -0.70798  -0.70689
 Alpha  occ. eigenvalues --   -0.69152  -0.68746  -0.68354  -0.67030  -0.66898
 Alpha  occ. eigenvalues --   -0.66703  -0.65704  -0.64757  -0.64097  -0.63332
 Alpha  occ. eigenvalues --   -0.62767  -0.62691  -0.62600  -0.61802  -0.61232
 Alpha  occ. eigenvalues --   -0.60933  -0.60631  -0.60370  -0.60061  -0.59858
 Alpha  occ. eigenvalues --   -0.59215  -0.59151  -0.58923  -0.58321  -0.57905
 Alpha  occ. eigenvalues --   -0.57196  -0.56689  -0.56660  -0.56427  -0.55892
 Alpha  occ. eigenvalues --   -0.55858  -0.55455  -0.55353  -0.55246  -0.55210
 Alpha  occ. eigenvalues --   -0.55001  -0.54565  -0.54191  -0.53349  -0.53110
 Alpha  occ. eigenvalues --   -0.52759  -0.52407  -0.52049  -0.51905  -0.51307
 Alpha  occ. eigenvalues --   -0.50989  -0.50731  -0.50185  -0.50056  -0.49951
 Alpha  occ. eigenvalues --   -0.48945  -0.48683  -0.48205  -0.48066  -0.47897
 Alpha  occ. eigenvalues --   -0.47887  -0.47690  -0.47409  -0.47180  -0.46989
 Alpha  occ. eigenvalues --   -0.46882  -0.46822  -0.46591  -0.46185  -0.45953
 Alpha  occ. eigenvalues --   -0.45819  -0.45775  -0.45531  -0.45283  -0.44942
 Alpha  occ. eigenvalues --   -0.44870  -0.44552  -0.44318  -0.44048  -0.43906
 Alpha  occ. eigenvalues --   -0.43838  -0.43660  -0.43520  -0.43414  -0.43195
 Alpha  occ. eigenvalues --   -0.43014  -0.42896  -0.42616  -0.42572  -0.42244
 Alpha  occ. eigenvalues --   -0.42179  -0.41939  -0.41797  -0.41743  -0.41494
 Alpha  occ. eigenvalues --   -0.41313  -0.41275  -0.41064  -0.41023  -0.40884
 Alpha  occ. eigenvalues --   -0.40702  -0.40640  -0.40490  -0.40283  -0.40145
 Alpha  occ. eigenvalues --   -0.40023  -0.39818  -0.39641  -0.39295  -0.39225
 Alpha  occ. eigenvalues --   -0.39172  -0.38987  -0.38817  -0.38775  -0.38716
 Alpha  occ. eigenvalues --   -0.38593  -0.38304  -0.38179  -0.37882  -0.37793
 Alpha  occ. eigenvalues --   -0.37727  -0.37541  -0.37518  -0.37463  -0.37280
 Alpha  occ. eigenvalues --   -0.37224  -0.37149  -0.37077  -0.36688  -0.36495
 Alpha  occ. eigenvalues --   -0.36455  -0.36186  -0.36057  -0.36012  -0.35955
 Alpha  occ. eigenvalues --   -0.35898  -0.35441  -0.35366  -0.35293  -0.35005
 Alpha  occ. eigenvalues --   -0.34847  -0.34727  -0.34720  -0.34692  -0.34481
 Alpha  occ. eigenvalues --   -0.34468  -0.34250  -0.33990  -0.33651  -0.33509
 Alpha  occ. eigenvalues --   -0.32811  -0.32777  -0.32435  -0.32218  -0.32101
 Alpha  occ. eigenvalues --   -0.31937  -0.31560  -0.30951  -0.30880  -0.30482
 Alpha  occ. eigenvalues --   -0.30231  -0.30087  -0.29570  -0.29279  -0.29042
 Alpha  occ. eigenvalues --   -0.27540  -0.27103  -0.26979  -0.26635  -0.26608
 Alpha  occ. eigenvalues --   -0.26543  -0.26379  -0.26173  -0.26073  -0.25846
 Alpha  occ. eigenvalues --   -0.25750  -0.25627  -0.25355  -0.24412  -0.24294
 Alpha  occ. eigenvalues --   -0.24095  -0.23786  -0.23775  -0.23712  -0.23487
 Alpha  occ. eigenvalues --   -0.23316  -0.23242  -0.22969  -0.22808  -0.22525
 Alpha  occ. eigenvalues --   -0.22495  -0.22154  -0.22003  -0.21993  -0.21849
 Alpha  occ. eigenvalues --   -0.21371  -0.21314  -0.21224  -0.20867  -0.19798
 Alpha  occ. eigenvalues --   -0.12728  -0.12201  -0.10586
 Alpha virt. eigenvalues --   -0.09659  -0.06561  -0.03510  -0.03242  -0.02518
 Alpha virt. eigenvalues --   -0.01850  -0.01202  -0.00795  -0.00409   0.00289
 Alpha virt. eigenvalues --    0.00358   0.00855   0.01361   0.01739   0.01847

 Mulliken charges:
               1
     1  C    0.045122
     2  C    0.002375
     3  O   -0.306882
     4  H    0.015335
     5  H    0.034601
     6  H    0.025198
     7  N   -0.086745
     8  C    0.126604
     9  C    0.081143
    10  O   -0.299178
    11  C    0.088083
    12  C    0.009634
    13  O   -0.375589
    14  O   -0.387890
    15  H    0.131833
    16  H   -0.026172
    17  H   -0.020814
    18  H   -0.021731
    19  N   -0.109671
    20  C    0.125892
    21  C    0.082870
    22  O   -0.300406
    23  C    0.039078
    24  C    0.020377
    25  C   -0.053265
    26  C    0.044383
    27  N    0.103005
    28  H    0.115244
    29  H   -0.019450
    30  H    0.032345
    31  H    0.011670
    32  H    0.005824
    33  H    0.030814
    34  H    0.021695
    35  H    0.015409
    36  H    0.062824
    37  H    0.059911
    38  H    0.177561
    39  H    0.157484
    40  H    0.159491
    41  N   -0.120818
    42  C    0.112749
    43  C    0.148877
    44  O   -0.273171
    45  C    0.076619
    46  C    0.132353
    47  O   -0.438890
    48  O   -0.436380
    49  H    0.157678
    50  H   -0.024123
    51  H    0.024517
    52  H   -0.019394
    53  N   -0.124968
    54  C    0.211694
    55  C    0.032263
    56  O   -0.267932
    57  H    0.116165
    58  H    0.030510
    59  H    0.035359
    60  N   -0.148449
    61  C    0.144443
    62  C    0.061959
    63  O   -0.278903
    64  C    0.068844
    65  C    0.073711
    66  N   -0.049097
    67  O   -0.245002
    68  H    0.106217
    69  H    0.034454
    70  H    0.042180
    71  H   -0.041316
    72  H    0.110270
    73  H    0.139699
    74  N   -0.128607
    75  C    0.214343
    76  C    0.026591
    77  O   -0.255022
    78  H    0.113326
    79  H    0.001229
    80  H    0.034141
    81  N   -0.159280
    82  C    0.124170
    83  C    0.076076
    84  O   -0.322067
    85  C    0.194936
    86  C   -0.044726
    87  C    0.000887
    88  C   -0.027112
    89  C   -0.049775
    90  C   -0.058749
    91  C    0.202463
    92  O   -0.185121
    93  H    0.126495
    94  H    0.012910
    95  H   -0.004889
    96  H    0.026350
    97  H   -0.023944
    98  H   -0.039756
    99  H   -0.016696
   100  H   -0.043781
   101  H    0.175211
   102  N   -0.109595
   103  C    0.164910
   104  C    0.073872
   105  O   -0.280960
   106  C   -0.138879
   107  C    0.017540
   108  C    0.092210
   109  C    0.017174
   110  H    0.139862
   111  H    0.019266
   112  H    0.003468
   113  H   -0.000745
   114  H   -0.005614
   115  H    0.000509
   116  H   -0.024612
   117  H    0.045335
   118  H    0.022453
   119  H   -0.008634
   120  H   -0.002363
   121  N   -0.159042
   122  C    0.124377
   123  C    0.062967
   124  O   -0.275741
   125  C    0.201930
   126  O   -0.293695
   127  H    0.132408
   128  H    0.018771
   129  H   -0.006224
   130  H    0.011212
   131  H    0.162424
   132  N   -0.148122
   133  C    0.089414
   134  C    0.075868
   135  O   -0.285899
   136  C    0.070115
   137  H    0.120357
   138  H    0.018504
   139  H    0.024394
   140  H    0.020129
   141  H   -0.012831
   142  N   -0.137164
   143  C    0.093734
   144  C    0.082396
   145  O   -0.260245
   146  C    0.035091
   147  H    0.157726
   148  H   -0.001441
   149  H    0.011979
   150  H    0.016703
   151  H    0.020241
   152  N   -0.128440
   153  C    0.092428
   154  C    0.048252
   155  O   -0.272244
   156  C    0.022867
   157  C    0.115114
   158  C    0.069270
   159  O   -0.399768
   160  O   -0.457608
   161  H    0.117351
   162  H    0.001387
   163  H    0.041866
   164  H    0.034810
   165  H   -0.033463
   166  H   -0.017715
   167  N   -0.145147
   168  C    0.142224
   169  H    0.022415
   170  H    0.024840
   171  H    0.010931
   172  H    0.110931
   173  Ca   1.346856
   174  O   -0.315672
   175  H    0.194106
   176  H    0.199139
 Sum of Mulliken charges =  -0.00000

 Dipole moment (field-independent basis, Debye):
    X=              9.0291    Y=            -17.3233    Z=            -18.9188  Tot=             27.1945
 Quadrupole moment (field-independent basis, Debye-Ang):
   XX=           -364.7926   YY=           -556.6444   ZZ=           -504.2414
   XY=           -344.5161   XZ=            -48.8105   YZ=            -16.6877

 ESP charges:
               1
     1  C   -0.471895
     2  C    0.787114
     3  O   -0.621840
     4  H    0.118580
     5  H    0.121472
     6  H    0.117242
     7  N   -0.572649
     8  C    0.181496
     9  C    0.375896
    10  O   -0.496812
    11  C   -0.157015
    12  C    0.753064
    13  O   -0.702742
    14  O   -0.707057
    15  H    0.303415
    16  H    0.019883
    17  H    0.039713
    18  H    0.014056
    19  N   -0.466130
    20  C    0.082356
    21  C    0.562584
    22  O   -0.583288
    23  C   -0.072444
    24  C   -0.113649
    25  C    0.031501
    26  C    0.216857
    27  N   -0.439593
    28  H    0.282128
    29  H    0.064132
    30  H    0.091092
    31  H    0.066360
    32  H    0.054679
    33  H    0.027357
    34  H   -0.001935
    35  H    0.001292
    36  H    0.029430
    37  H    0.033453
    38  H    0.331502
    39  H    0.312451
    40  H    0.305898
    41  N   -0.346956
    42  C   -0.386818
    43  C    0.703769
    44  O   -0.481352
    45  C   -0.080795
    46  C    0.797571
    47  O   -0.784084
    48  O   -0.801485
    49  H    0.329197
    50  H    0.154771
    51  H    0.068592
    52  H    0.095488
    53  N   -0.365448
    54  C   -0.232111
    55  C    0.593208
    56  O   -0.458544
    57  H    0.293270
    58  H    0.131783
    59  H    0.128100
    60  N   -0.637516
    61  C    0.150920
    62  C    0.669622
    63  O   -0.557324
    64  C   -0.155359
    65  C    0.763975
    66  N   -0.851923
    67  O   -0.565404
    68  H    0.288688
    69  H    0.049496
    70  H    0.021483
    71  H   -0.001413
    72  H    0.376481
    73  H    0.391158
    74  N   -0.473852
    75  C   -0.249238
    76  C    0.625499
    77  O   -0.502276
    78  H    0.345287
    79  H    0.116681
    80  H    0.143834
    81  N   -0.562305
    82  C   -0.013964
    83  C    0.513788
    84  O   -0.528012
    85  C   -0.118461
    86  C   -0.026435
    87  C   -0.022473
    88  C   -0.020288
    89  C   -0.384231
    90  C   -0.442310
    91  C    0.481997
    92  O   -0.534007
    93  H    0.321366
    94  H    0.112203
    95  H    0.101516
    96  H    0.079070
    97  H    0.107078
    98  H    0.102383
    99  H    0.184295
   100  H    0.166654
   101  H    0.390677
   102  N   -0.368626
   103  C   -0.494069
   104  C    0.873701
   105  O   -0.673164
   106  C    0.247183
   107  C    0.501320
   108  C   -0.418320
   109  C   -0.362007
   110  H    0.325341
   111  H    0.189610
   112  H   -0.009013
   113  H   -0.110656
   114  H   -0.088327
   115  H    0.084329
   116  H    0.085545
   117  H    0.100795
   118  H    0.083075
   119  H    0.042770
   120  H    0.065911
   121  N   -0.435009
   122  C    0.000743
   123  C    0.356618
   124  O   -0.493735
   125  C    0.154774
   126  O   -0.583235
   127  H    0.271733
   128  H    0.123402
   129  H    0.011344
   130  H    0.042653
   131  H    0.395511
   132  N   -0.280554
   133  C    0.034458
   134  C    0.722577
   135  O   -0.587566
   136  C   -0.293364
   137  H    0.237572
   138  H    0.079126
   139  H    0.114543
   140  H    0.086386
   141  H    0.061749
   142  N   -0.819654
   143  C    0.620671
   144  C    0.318168
   145  O   -0.434658
   146  C   -0.335488
   147  H    0.413250
   148  H   -0.067902
   149  H    0.050089
   150  H    0.083015
   151  H    0.124409
   152  N   -0.491845
   153  C   -0.484866
   154  C    0.509980
   155  O   -0.514120
   156  C    0.431423
   157  C   -0.025826
   158  C    0.514213
   159  O   -0.668452
   160  O   -0.735236
   161  H    0.338567
   162  H    0.203683
   163  H   -0.040306
   164  H    0.030670
   165  H    0.017235
   166  H   -0.024034
   167  N   -0.184690
   168  C   -0.226730
   169  H    0.097614
   170  H    0.104099
   171  H    0.091729
   172  H    0.237431
   173  Ca   1.608573
   174  O   -0.834798
   175  H    0.441953
   176  H    0.423241
 Sum of ESP charges =   0.00000

 Normal termination of Gaussian 16 at Tue Sep 17 10:20:46 2019.
