 Gaussian 16, Revision A.03,
 Gaussian 16:  ES64L-G16RevA.03 25-Dec-2016

 ----------------------------------------------------------------------
 #b3lyp/svp scf=(tight,noincore) Test #IOP(5/87=12) Density=Current Pop
 =(MK,readradii) iop(6/33=2) iop(6/42=6)
 ----------------------------------------------------------------------

 -----------------
 Ng-293_loop3_70.0
 -----------------
 Symbolic Z-matrix:
 Charge =  0 Multiplicity = 1

                         Standard orientation:
 ---------------------------------------------------------------------
 Center     Atomic      Atomic             Coordinates (Angstroms)
 Number     Number       Type             X           Y           Z
 ---------------------------------------------------------------------
      1          6           0        8.901451    2.220484    4.586319
      2          6           0        8.978249    2.160289    3.065965
      3          8           0       10.039171    1.806018    2.558189
      4          1           0        8.076368    2.868682    4.882953
      5          1           0        8.735859    1.218040    4.982394
      6          1           0        9.836180    2.618443    4.982714
      7          7           0        7.906186    2.521064    2.355243
      8          6           0        7.855146    2.417588    0.912888
      9          6           0        8.185495    0.997053    0.478896
     10          8           0        7.545995    0.090450    1.021309
     11          6           0        6.422996    2.841444    0.582900
     12          6           0        6.118828    4.299701    0.882016
     13          8           0        6.977685    5.208454    0.763133
     14          8           0        4.980965    4.556820    1.332856
     15          1           0        7.157586    2.829630    2.959796
     16          1           0        8.510493    3.158092    0.456847
     17          1           0        5.685020    2.222728    1.090326
     18          1           0        6.330085    2.759195   -0.498350
     19          7           0        9.134728    0.860745   -0.444833
     20          6           0        9.381970   -0.309020   -1.268193
     21          6           0        8.148132   -0.931994   -1.892492
     22          8           0        8.055260   -0.879851   -3.117055
     23          6           0       10.170495   -1.409032   -0.551602
     24          6           0       11.489106   -0.817691   -0.054632
     25          6           0       12.086488   -1.802415    0.939578
     26          6           0       12.801641   -1.091559    2.092028
     27          7           0       12.046423   -0.166974    2.936532
     28          1           0        9.541329    1.721826   -0.763447
     29          1           0       10.114993   -0.025574   -2.022337
     30          1           0       10.383437   -2.201622   -1.273169
     31          1           0        9.641323   -1.870068    0.274003
     32          1           0       11.404375    0.196399    0.342282
     33          1           0       12.182041   -0.668389   -0.882249
     34          1           0       12.837707   -2.282773    0.326042
     35          1           0       11.440280   -2.627711    1.260984
     36          1           0       13.636006   -0.517869    1.694518
     37          1           0       13.158697   -1.943259    2.676423
     38          1           0       11.388506   -0.598218    3.577917
     39          1           0       12.644095    0.380414    3.551882
     40          1           0       11.584019    0.513274    2.349723
     41          7           0        7.252122   -1.645885   -1.191760
     42          6           0        5.995288   -2.143023   -1.713413
     43          6           0        4.892715   -1.349190   -1.029993
     44          8           0        4.317965   -1.698190   -0.000254
     45          6           0        5.828654   -3.642430   -1.451856
     46          6           0        4.666174   -4.326895   -2.148454
     47          8           0        4.005456   -3.577771   -2.907970
     48          8           0        4.444466   -5.549563   -2.030014
     49          1           0        7.522307   -1.833427   -0.242746
     50          1           0        5.886821   -2.019850   -2.786942
     51          1           0        5.886320   -3.829537   -0.372706
     52          1           0        6.775409   -4.105193   -1.699256
     53          7           0        4.517849   -0.267492   -1.721082
     54          6           0        3.651985    0.818571   -1.302937
     55          6           0        2.163912    0.562355   -1.512203
     56          8           0        1.703652    0.354804   -2.641974
     57          1           0        4.887875   -0.181235   -2.661636
     58          1           0        3.865904    1.651899   -1.970698
     59          1           0        3.890162    1.118023   -0.281027
     60          7           0        1.409512    0.556795   -0.423511
     61          6           0       -0.021999    0.351776   -0.482178
     62          6           0       -0.839150    1.544365   -0.973802
     63          8           0       -2.023158    1.377903   -1.274659
     64          6           0       -0.650779   -0.099332    0.836964
     65          6           0       -0.057630   -1.324091    1.500018
     66          7           0        0.951576   -1.271763    2.374126
     67          8           0       -0.451016   -2.445406    1.166402
     68          1           0        1.907471    0.513739    0.455912
     69          1           0       -0.108775   -0.472566   -1.195922
     70          1           0       -1.697024   -0.331306    0.626825
     71          1           0       -0.572125    0.684583    1.586759
     72          1           0        1.490801   -0.442887    2.531930
     73          1           0        1.382350   -2.131788    2.693953
     74          7           0       -0.262493    2.737257   -1.087275
     75          6           0       -0.914058    3.859988   -1.730889
     76          6           0       -1.949662    4.529826   -0.838566
     77          8           0       -1.698467    4.742070    0.340906
     78          1           0        0.744775    2.721950   -1.124387
     79          1           0       -1.358685    3.523327   -2.657963
     80          1           0       -0.187638    4.632641   -1.979529
     81          7           0       -3.122503    4.873122   -1.378003
     82          6           0       -4.360346    5.154422   -0.684018
     83          6           0       -4.916790    3.989470    0.125523
     84          8           0       -6.049716    4.123459    0.572543
     85          6           0       -4.222005    6.405289    0.170144
     86          6           0       -3.742359    7.622639   -0.595165
     87          6           0       -2.460541    8.191247   -0.564703
     88          6           0       -4.706684    8.146877   -1.461683
     89          6           0       -2.164229    9.326367   -1.324836
     90          6           0       -4.399636    9.280521   -2.212730
     91          6           0       -3.163448    9.953585   -2.100373
     92          8           0       -2.796018   10.995469   -2.904658
     93          1           0       -3.261252    4.672541   -2.369273
     94          1           0       -5.188759    5.432428   -1.343900
     95          1           0       -3.541452    6.150607    0.986530
     96          1           0       -5.163541    6.588698    0.685190
     97          1           0       -1.687592    7.683248    0.002296
     98          1           0       -5.682770    7.694688   -1.603388
     99          1           0       -1.159371    9.705640   -1.361050
    100          1           0       -5.072042    9.644364   -2.976986
    101          1           0       -3.457487   11.255189   -3.544662
    102          7           0       -4.146054    2.925338    0.395688
    103          6           0       -4.439099    1.770311    1.225771
    104          6           0       -5.615875    0.875433    0.853090
    105          8           0       -5.443181   -0.329094    0.739543
    106          6           0       -4.390530    2.065240    2.724156
    107          6           0       -3.223237    2.998008    3.015139
    108          6           0       -4.283356    0.793307    3.546591
    109          6           0       -3.255803    3.482883    4.464151
    110          1           0       -3.297553    3.038908   -0.126278
    111          1           0       -3.592078    1.103696    1.085130
    112          1           0       -5.320120    2.601445    2.930182
    113          1           0       -3.129447    3.838230    2.336368
    114          1           0       -2.254784    2.498380    2.989257
    115          1           0       -4.414555    0.958118    4.608912
    116          1           0       -5.066911    0.086358    3.279074
    117          1           0       -3.373037    0.227900    3.314570
    118          1           0       -3.977589    4.237758    4.801329
    119          1           0       -3.225448    2.649939    5.173505
    120          1           0       -2.306846    3.965920    4.675945
    121          7           0       -6.777159    1.457534    0.536899
    122          6           0       -7.703646    0.840177   -0.394654
    123          6           0       -8.367703   -0.474727   -0.021615
    124          8           0       -8.934520   -1.208001   -0.835696
    125          6           0       -8.670710    1.978019   -0.729024
    126          8           0       -8.040676    2.858281   -1.638746
    127          1           0       -6.899739    2.439718    0.709203
    128          1           0       -7.210456    0.608110   -1.334340
    129          1           0       -8.976517    2.570769    0.135863
    130          1           0       -9.497936    1.633988   -1.337250
    131          1           0       -8.434990    3.697213   -1.388727
    132          7           0       -8.475687   -0.795102    1.264658
    133          6           0       -8.694812   -2.061102    1.945340
    134          6           0       -8.192358   -3.334607    1.287826
    135          8           0       -8.911209   -4.336523    1.292169
    136          6           0      -10.198885   -2.103576    2.207941
    137          1           0       -8.080707   -0.045795    1.811129
    138          1           0       -8.147840   -2.017816    2.879925
    139          1           0      -10.509673   -2.955367    2.822078
    140          1           0      -10.533905   -1.174534    2.666682
    141          1           0      -10.778187   -2.093363    1.287232
    142          7           0       -7.023611   -3.253556    0.657301
    143          6           0       -6.489847   -4.132979   -0.358431
    144          6           0       -5.149163   -4.700599    0.089313
    145          8           0       -4.402277   -3.995075    0.774147
    146          6           0       -6.403955   -3.567368   -1.776883
    147          1           0       -6.555702   -2.358685    0.689969
    148          1           0       -7.164046   -4.979740   -0.480709
    149          1           0       -5.692533   -4.142547   -2.369798
    150          1           0       -7.400694   -3.583852   -2.219644
    151          1           0       -6.031851   -2.548824   -1.665944
    152          7           0       -4.933093   -5.985006   -0.220544
    153          6           0       -3.732606   -6.746481    0.064213
    154          6           0       -3.473814   -7.017127    1.530493
    155          8           0       -2.335471   -7.010488    2.002437
    156          6           0       -2.526521   -6.313496   -0.762396
    157          6           0       -2.698820   -6.040238   -2.253417
    158          6           0       -1.319203   -5.657775   -2.798007
    159          8           0       -0.698615   -6.553343   -3.390653
    160          8           0       -0.859276   -4.523893   -2.574002
    161          1           0       -5.561217   -6.359330   -0.903876
    162          1           0       -3.860619   -7.726224   -0.405912
    163          1           0       -1.826409   -7.155244   -0.735866
    164          1           0       -1.989633   -5.469053   -0.324142
    165          1           0       -3.225733   -5.100367   -2.391635
    166          1           0       -3.091983   -6.873107   -2.826612
    167          7           0       -4.544834   -7.290256    2.300503
    168          6           0       -4.672457   -7.362730    3.738300
    169          1           0       -5.489859   -6.719464    4.062477
    170          1           0       -4.880551   -8.391537    4.033933
    171          1           0       -3.744240   -7.031316    4.203123
    172          1           0       -5.392946   -7.097363    1.793158
    173         20           0        1.667403   -4.535270   -2.710991
    174          8           0        2.009818   -3.165748   -0.548825
    175          1           0        1.403769   -2.935596    0.149698
    176          1           0        2.766969   -2.592495   -0.403898
 ---------------------------------------------------------------------

 SCF Done:  E(RB3LYP) =  -5333.43424756     A.U. after   21 cycles

 The electronic state is 1-A.
 Alpha  occ. eigenvalues -- -145.43826 -19.16082 -19.15041 -19.13372 -19.12444
 Alpha  occ. eigenvalues --  -19.12136 -19.11607 -19.11419 -19.11417 -19.10936
 Alpha  occ. eigenvalues --  -19.10438 -19.10343 -19.10149 -19.09851 -19.08602
 Alpha  occ. eigenvalues --  -19.07433 -19.07203 -19.07081 -19.06619 -19.06280
 Alpha  occ. eigenvalues --  -19.06147 -19.04526 -18.97130 -18.96964 -15.49775
 Alpha  occ. eigenvalues --  -14.55491 -14.38740 -14.38553 -14.37539 -14.37393
 Alpha  occ. eigenvalues --  -14.37360 -14.37183 -14.36953 -14.36656 -14.35461
 Alpha  occ. eigenvalues --  -14.34218 -14.34201 -14.33436 -14.32492 -14.32148
 Alpha  occ. eigenvalues --  -12.63409 -12.63361 -12.63251 -10.34387 -10.31128
 Alpha  occ. eigenvalues --  -10.30167 -10.30074 -10.30067 -10.30017 -10.29994
 Alpha  occ. eigenvalues --  -10.29989 -10.29804 -10.28730 -10.27928 -10.27659
 Alpha  occ. eigenvalues --  -10.27118 -10.26932 -10.26694 -10.25805 -10.25738
 Alpha  occ. eigenvalues --  -10.25607 -10.25575 -10.25200 -10.24899 -10.24885
 Alpha  occ. eigenvalues --  -10.24776 -10.24428 -10.23821 -10.23816 -10.23809
 Alpha  occ. eigenvalues --  -10.23338 -10.22681 -10.22626 -10.22570 -10.22301
 Alpha  occ. eigenvalues --  -10.21939 -10.21636 -10.21468 -10.20591 -10.20297
 Alpha  occ. eigenvalues --  -10.18844 -10.18732 -10.18723 -10.18650 -10.18535
 Alpha  occ. eigenvalues --  -10.18483 -10.18326 -10.18273 -10.17662 -10.16854
 Alpha  occ. eigenvalues --  -10.16755 -10.16251 -10.16251 -10.15494 -10.15394
 Alpha  occ. eigenvalues --  -10.15262 -10.14847  -1.86399  -1.14155  -1.13833
 Alpha  occ. eigenvalues --   -1.13164  -1.11091  -1.06024  -1.05371  -1.05073
 Alpha  occ. eigenvalues --   -1.04634  -1.04488  -1.04407  -1.03883  -1.03575
 Alpha  occ. eigenvalues --   -1.03496  -1.03437  -1.02839  -1.02464  -1.01468
 Alpha  occ. eigenvalues --   -1.01036  -1.00770  -1.00259  -1.00100  -0.99094
 Alpha  occ. eigenvalues --   -0.98654  -0.95641  -0.95203  -0.94245  -0.94025
 Alpha  occ. eigenvalues --   -0.93927  -0.93539  -0.92906  -0.92425  -0.92336
 Alpha  occ. eigenvalues --   -0.91730  -0.91721  -0.91281  -0.91027  -0.90281
 Alpha  occ. eigenvalues --   -0.90193  -0.89166  -0.88934  -0.88614  -0.84599
 Alpha  occ. eigenvalues --   -0.83760  -0.81559  -0.81346  -0.81221  -0.79522
 Alpha  occ. eigenvalues --   -0.79373  -0.78561  -0.77617  -0.76910  -0.76849
 Alpha  occ. eigenvalues --   -0.75557  -0.74995  -0.74929  -0.73847  -0.73838
 Alpha  occ. eigenvalues --   -0.73736  -0.73148  -0.72359  -0.71377  -0.71271
 Alpha  occ. eigenvalues --   -0.70291  -0.69684  -0.69458  -0.68642  -0.67552
 Alpha  occ. eigenvalues --   -0.67523  -0.66417  -0.65850  -0.64707  -0.64113
 Alpha  occ. eigenvalues --   -0.63898  -0.63093  -0.62900  -0.62242  -0.61809
 Alpha  occ. eigenvalues --   -0.61658  -0.61458  -0.61276  -0.60487  -0.60436
 Alpha  occ. eigenvalues --   -0.59899  -0.59788  -0.59652  -0.59357  -0.59312
 Alpha  occ. eigenvalues --   -0.58246  -0.57769  -0.57294  -0.57158  -0.57018
 Alpha  occ. eigenvalues --   -0.56603  -0.56102  -0.55946  -0.55263  -0.55184
 Alpha  occ. eigenvalues --   -0.55008  -0.54918  -0.54688  -0.54624  -0.54227
 Alpha  occ. eigenvalues --   -0.54026  -0.53762  -0.53424  -0.52988  -0.52491
 Alpha  occ. eigenvalues --   -0.52278  -0.52227  -0.51853  -0.51266  -0.51154
 Alpha  occ. eigenvalues --   -0.51131  -0.50536  -0.50468  -0.50278  -0.49863
 Alpha  occ. eigenvalues --   -0.49786  -0.49526  -0.49368  -0.49251  -0.48260
 Alpha  occ. eigenvalues --   -0.47933  -0.47694  -0.47103  -0.46986  -0.46859
 Alpha  occ. eigenvalues --   -0.46604  -0.46366  -0.46273  -0.45897  -0.45800
 Alpha  occ. eigenvalues --   -0.45593  -0.45252  -0.45036  -0.45006  -0.44708
 Alpha  occ. eigenvalues --   -0.44566  -0.44367  -0.44157  -0.44092  -0.43993
 Alpha  occ. eigenvalues --   -0.43880  -0.43833  -0.43645  -0.43465  -0.43349
 Alpha  occ. eigenvalues --   -0.43236  -0.43149  -0.43043  -0.42914  -0.42782
 Alpha  occ. eigenvalues --   -0.42718  -0.42476  -0.42452  -0.42375  -0.42190
 Alpha  occ. eigenvalues --   -0.42084  -0.41832  -0.41655  -0.41344  -0.41314
 Alpha  occ. eigenvalues --   -0.41176  -0.41075  -0.40877  -0.40769  -0.40591
 Alpha  occ. eigenvalues --   -0.40433  -0.40339  -0.40168  -0.40133  -0.40063
 Alpha  occ. eigenvalues --   -0.39825  -0.39615  -0.39480  -0.39348  -0.39211
 Alpha  occ. eigenvalues --   -0.39061  -0.38864  -0.38845  -0.38771  -0.38673
 Alpha  occ. eigenvalues --   -0.38446  -0.38315  -0.38213  -0.38053  -0.37867
 Alpha  occ. eigenvalues --   -0.37801  -0.37646  -0.37330  -0.37217  -0.36845
 Alpha  occ. eigenvalues --   -0.36803  -0.36557  -0.36448  -0.36288  -0.36099
 Alpha  occ. eigenvalues --   -0.35956  -0.35432  -0.35336  -0.35111  -0.34940
 Alpha  occ. eigenvalues --   -0.34651  -0.34581  -0.34369  -0.33642  -0.33308
 Alpha  occ. eigenvalues --   -0.33274  -0.33200  -0.32930  -0.32912  -0.32909
 Alpha  occ. eigenvalues --   -0.32461  -0.32305  -0.32049  -0.31932  -0.31291
 Alpha  occ. eigenvalues --   -0.30670  -0.30659  -0.30074  -0.29798  -0.29719
 Alpha  occ. eigenvalues --   -0.29549  -0.29272  -0.29006  -0.28722  -0.28580
 Alpha  occ. eigenvalues --   -0.28495  -0.27855  -0.27810  -0.27241  -0.27011
 Alpha  occ. eigenvalues --   -0.26804  -0.26753  -0.26308  -0.26241  -0.26181
 Alpha  occ. eigenvalues --   -0.25799  -0.25649  -0.25595  -0.25560  -0.25314
 Alpha  occ. eigenvalues --   -0.25296  -0.25223  -0.24566  -0.23842  -0.23571
 Alpha  occ. eigenvalues --   -0.23480  -0.23219  -0.23016  -0.22837  -0.22779
 Alpha  occ. eigenvalues --   -0.22192  -0.22012  -0.21896  -0.21841  -0.20384
 Alpha  occ. eigenvalues --   -0.15574  -0.14627  -0.12361
 Alpha virt. eigenvalues --   -0.08100  -0.03606  -0.03462  -0.01703  -0.01418
 Alpha virt. eigenvalues --   -0.01387  -0.01140  -0.01022  -0.00890  -0.00822
 Alpha virt. eigenvalues --   -0.00510  -0.00274   0.00400   0.00745   0.00861

 Mulliken charges:
               1
     1  C    0.046503
     2  C    0.046985
     3  O   -0.385958
     4  H    0.034923
     5  H    0.029727
     6  H    0.022145
     7  N   -0.082710
     8  C    0.135813
     9  C    0.060768
    10  O   -0.304462
    11  C    0.039834
    12  C   -0.008688
    13  O   -0.381286
    14  O   -0.385071
    15  H    0.149094
    16  H   -0.016113
    17  H   -0.006984
    18  H   -0.015556
    19  N   -0.097095
    20  C    0.135740
    21  C    0.064938
    22  O   -0.268194
    23  C    0.007741
    24  C   -0.032440
    25  C    0.025426
    26  C    0.010371
    27  N    0.093521
    28  H    0.133160
    29  H   -0.002778
    30  H    0.029911
    31  H    0.006877
    32  H   -0.003016
    33  H    0.012867
    34  H    0.038536
    35  H    0.040245
    36  H    0.060453
    37  H    0.060319
    38  H    0.182800
    39  H    0.184457
    40  H    0.173874
    41  N   -0.115447
    42  C    0.101745
    43  C    0.114754
    44  O   -0.327677
    45  C    0.070534
    46  C    0.127706
    47  O   -0.482177
    48  O   -0.357239
    49  H    0.128289
    50  H    0.029656
    51  H    0.003474
    52  H   -0.005604
    53  N   -0.119215
    54  C    0.219652
    55  C   -0.003777
    56  O   -0.279667
    57  H    0.141840
    58  H    0.036077
    59  H    0.027885
    60  N   -0.141417
    61  C    0.124597
    62  C    0.075742
    63  O   -0.293108
    64  C    0.053866
    65  C   -0.005090
    66  N   -0.036604
    67  O   -0.257583
    68  H    0.115646
    69  H    0.047620
    70  H    0.102125
    71  H    0.006281
    72  H    0.109761
    73  H    0.139714
    74  N   -0.089830
    75  C    0.231296
    76  C   -0.000389
    77  O   -0.260754
    78  H    0.130800
    79  H    0.003695
    80  H    0.045433
    81  N   -0.122787
    82  C    0.090101
    83  C    0.079089
    84  O   -0.326161
    85  C    0.130264
    86  C   -0.008125
    87  C    0.012191
    88  C   -0.025876
    89  C   -0.030729
    90  C   -0.054574
    91  C    0.180863
    92  O   -0.201380
    93  H    0.134188
    94  H    0.017186
    95  H    0.010150
    96  H    0.009664
    97  H   -0.009476
    98  H   -0.026443
    99  H   -0.019581
   100  H   -0.048984
   101  H    0.172930
   102  N   -0.102623
   103  C    0.202645
   104  C    0.068571
   105  O   -0.255744
   106  C   -0.114310
   107  C    0.039246
   108  C    0.081629
   109  C    0.013716
   110  H    0.136226
   111  H   -0.018652
   112  H   -0.011039
   113  H    0.020605
   114  H   -0.023550
   115  H    0.011016
   116  H    0.004289
   117  H    0.005339
   118  H    0.008690
   119  H   -0.005683
   120  H   -0.009056
   121  N   -0.138121
   122  C    0.117402
   123  C    0.017442
   124  O   -0.278206
   125  C    0.209419
   126  O   -0.313249
   127  H    0.132901
   128  H    0.027927
   129  H   -0.000193
   130  H    0.007578
   131  H    0.157252
   132  N   -0.101476
   133  C    0.077073
   134  C    0.057214
   135  O   -0.278875
   136  C    0.094522
   137  H    0.101121
   138  H    0.016500
   139  H    0.016966
   140  H   -0.027665
   141  H    0.019777
   142  N   -0.102891
   143  C    0.059923
   144  C    0.065544
   145  O   -0.258446
   146  C    0.070671
   147  H    0.135857
   148  H   -0.011683
   149  H    0.003205
   150  H    0.039311
   151  H    0.024885
   152  N   -0.135579
   153  C    0.136404
   154  C    0.068001
   155  O   -0.267088
   156  C   -0.041696
   157  C    0.134530
   158  C    0.050810
   159  O   -0.372950
   160  O   -0.466206
   161  H    0.117845
   162  H    0.008373
   163  H    0.000550
   164  H    0.038492
   165  H    0.001185
   166  H   -0.019180
   167  N   -0.151440
   168  C    0.134454
   169  H    0.023252
   170  H    0.017139
   171  H    0.037263
   172  H    0.103787
   173  Ca   1.377164
   174  O   -0.358343
   175  H    0.179879
   176  H    0.178561
 Sum of Mulliken charges =  -0.00000

 Dipole moment (field-independent basis, Debye):
    X=             30.5486    Y=             -0.5754    Z=              8.4273  Tot=             31.6949
 Quadrupole moment (field-independent basis, Debye-Ang):
   XX=           -170.2133   YY=           -679.4989   ZZ=           -513.9701
   XY=           -144.9882   XZ=            117.3266   YZ=            -53.8136

 ESP charges:
               1
     1  C   -0.545289
     2  C    0.791899
     3  O   -0.717251
     4  H    0.156453
     5  H    0.126201
     6  H    0.145964
     7  N   -0.571460
     8  C    0.376931
     9  C    0.500198
    10  O   -0.553528
    11  C   -0.618194
    12  C    0.797951
    13  O   -0.705444
    14  O   -0.710100
    15  H    0.350773
    16  H   -0.010236
    17  H    0.148183
    18  H    0.129648
    19  N   -0.544713
    20  C    0.107355
    21  C    0.521550
    22  O   -0.555482
    23  C   -0.219500
    24  C    0.302227
    25  C   -0.134202
    26  C   -0.010471
    27  N   -0.306978
    28  H    0.321755
    29  H    0.071756
    30  H    0.066734
    31  H    0.035121
    32  H   -0.059982
    33  H   -0.023696
    34  H    0.054801
    35  H    0.081549
    36  H    0.073029
    37  H    0.071733
    38  H    0.325313
    39  H    0.300892
    40  H    0.357410
    41  N   -0.466951
    42  C    0.125858
    43  C    0.582429
    44  O   -0.545809
    45  C   -0.155205
    46  C    0.704803
    47  O   -0.754239
    48  O   -0.678456
    49  H    0.321074
    50  H    0.086893
    51  H    0.023734
    52  H    0.070317
    53  N   -0.340474
    54  C   -0.246080
    55  C    0.606948
    56  O   -0.525833
    57  H    0.276283
    58  H    0.156996
    59  H    0.117326
    60  N   -0.530486
    61  C   -0.108052
    62  C    0.635771
    63  O   -0.521207
    64  C   -0.219257
    65  C    0.747952
    66  N   -0.843508
    67  O   -0.536110
    68  H    0.307399
    69  H    0.157512
    70  H    0.095941
    71  H    0.082432
    72  H    0.371340
    73  H    0.389629
    74  N   -0.437863
    75  C   -0.052022
    76  C    0.656758
    77  O   -0.553829
    78  H    0.306623
    79  H    0.065852
    80  H    0.110550
    81  N   -0.723150
    82  C    0.474788
    83  C    0.203644
    84  O   -0.515364
    85  C   -0.254430
    86  C    0.126029
    87  C   -0.236854
    88  C   -0.129681
    89  C   -0.201841
    90  C   -0.329137
    91  C    0.373493
    92  O   -0.560242
    93  H    0.336425
    94  H   -0.006333
    95  H    0.115655
    96  H    0.072830
    97  H    0.176285
    98  H    0.135808
    99  H    0.153032
   100  H    0.132664
   101  H    0.418319
   102  N   -0.022328
   103  C   -0.321657
   104  C    0.795364
   105  O   -0.576734
   106  C    0.132108
   107  C    0.204280
   108  C   -0.337405
   109  C   -0.320075
   110  H    0.091182
   111  H    0.150991
   112  H    0.006926
   113  H    0.005509
   114  H   -0.024255
   115  H    0.089368
   116  H    0.097038
   117  H    0.078426
   118  H    0.066684
   119  H    0.068662
   120  H    0.068183
   121  N   -0.716817
   122  C    0.374678
   123  C    0.109786
   124  O   -0.462093
   125  C   -0.026747
   126  O   -0.572094
   127  H    0.387461
   128  H    0.096347
   129  H    0.051684
   130  H    0.090401
   131  H    0.396913
   132  N   -0.153783
   133  C    0.227824
   134  C    0.612014
   135  O   -0.560322
   136  C   -0.351428
   137  H    0.157436
   138  H    0.019991
   139  H    0.082487
   140  H    0.052826
   141  H    0.131316
   142  N   -0.713359
   143  C    0.649952
   144  C    0.421979
   145  O   -0.445398
   146  C   -0.332816
   147  H    0.255907
   148  H   -0.068879
   149  H    0.033360
   150  H    0.096115
   151  H    0.097606
   152  N   -0.577593
   153  C   -0.156165
   154  C    0.560443
   155  O   -0.535712
   156  C    0.350792
   157  C   -0.133181
   158  C    0.678788
   159  O   -0.701795
   160  O   -0.740887
   161  H    0.305539
   162  H    0.087335
   163  H   -0.068983
   164  H   -0.038040
   165  H    0.031999
   166  H    0.035900
   167  N   -0.361603
   168  C    0.007193
   169  H    0.055452
   170  H    0.024650
   171  H    0.074597
   172  H    0.242265
   173  Ca   1.540062
   174  O   -0.780313
   175  H    0.398175
   176  H    0.330586
 Sum of ESP charges =  -0.00000

 Normal termination of Gaussian 16 at Tue Sep 17 18:22:32 2019.
