 Gaussian 16, Revision A.03,
 Gaussian 16:  ES64L-G16RevA.03 25-Dec-2016

 ----------------------------------------------------------------------
 #b3lyp/svp scf=(tight,noincore,xqc) Test #IOP(5/87=12) Density=Current
  Pop=(MK,readradii) iop(6/33=2) iop(6/42=6)
 ----------------------------------------------------------------------

 -----------------
 Ng-293_loop3_12.0
 -----------------
 Symbolic Z-matrix:
 Charge =  0 Multiplicity = 1

                         Standard orientation:
 ---------------------------------------------------------------------
 Center     Atomic      Atomic             Coordinates (Angstroms)
 Number     Number       Type             X           Y           Z
 ---------------------------------------------------------------------
      1          6           0        9.068467   -3.042495   -6.416981
      2          6           0        9.320698   -2.988377   -4.908289
      3          8           0       10.465669   -2.793028   -4.508187
      4          1           0        9.160090   -4.072127   -6.762915
      5          1           0        8.064476   -2.675130   -6.631686
      6          1           0        9.801508   -2.420881   -6.931153
      7          7           0        8.262400   -3.090264   -4.100934
      8          6           0        8.259653   -3.256145   -2.661428
      9          6           0        7.067934   -2.476913   -2.133409
     10          8           0        5.998557   -2.343684   -2.735308
     11          6           0        8.243195   -4.740110   -2.323678
     12          6           0        8.317823   -4.908154   -0.814111
     13          8           0        8.900721   -4.044009   -0.122314
     14          8           0        7.705591   -5.898792   -0.376953
     15          1           0        7.349469   -3.121965   -4.538144
     16          1           0        9.196487   -2.770726   -2.402177
     17          1           0        9.131758   -5.175464   -2.788891
     18          1           0        7.434255   -5.277807   -2.811425
     19          7           0        7.283210   -1.793373   -1.001231
     20          6           0        6.346845   -1.059110   -0.174261
     21          6           0        5.140003   -1.797611    0.389254
     22          8           0        4.937676   -2.951727    0.006136
     23          6           0        5.915151    0.272576   -0.768274
     24          6           0        7.116747    1.125317   -1.162608
     25          6           0        8.065063    1.592291   -0.055932
     26          6           0        9.555630    1.445233   -0.330680
     27          7           0       10.166951    2.432070   -1.232256
     28          1           0        8.213841   -1.895377   -0.633372
     29          1           0        6.879636   -0.802190    0.743958
     30          1           0        5.344560    0.980475   -0.163372
     31          1           0        5.280123    0.090803   -1.644058
     32          1           0        6.783524    1.999927   -1.706778
     33          1           0        7.708838    0.555547   -1.875483
     34          1           0        7.982760    0.883996    0.773854
     35          1           0        7.860999    2.595883    0.307467
     36          1           0        9.581446    0.491199   -0.862518
     37          1           0       10.076356    1.318522    0.620418
     38          1           0       11.021531    2.060223   -1.613731
     39          1           0        9.561941    2.819784   -1.936628
     40          1           0       10.592390    3.123821   -0.614533
     41          7           0        4.265285   -1.215275    1.211964
     42          6           0        3.345289   -2.091591    1.921173
     43          6           0        2.372501   -2.888680    1.059701
     44          8           0        2.083549   -4.013278    1.445429
     45          6           0        2.689682   -1.322621    3.061465
     46          6           0        3.617251   -0.765809    4.138162
     47          8           0        4.674523   -1.338741    4.471517
     48          8           0        3.394973    0.318938    4.724008
     49          1           0        4.560790   -0.343954    1.620470
     50          1           0        3.974656   -2.815043    2.439838
     51          1           0        2.001965   -1.953966    3.630190
     52          1           0        2.129383   -0.486922    2.661249
     53          7           0        1.921814   -2.274374   -0.046468
     54          6           0        1.226038   -2.820934   -1.186147
     55          6           0        0.003969   -3.706702   -0.990029
     56          8           0       -0.871452   -3.783579   -1.855435
     57          1           0        2.062770   -1.279381   -0.064365
     58          1           0        1.964311   -3.389979   -1.757847
     59          1           0        1.045865   -1.978232   -1.851797
     60          7           0       -0.124971   -4.451369    0.109946
     61          6           0       -1.156919   -5.426705    0.383079
     62          6           0       -2.397206   -4.814770    1.033790
     63          8           0       -2.236154   -3.997407    1.937383
     64          6           0       -0.564431   -6.614940    1.122237
     65          6           0       -1.244624   -6.936031    2.448713
     66          7           0       -0.594355   -6.745122    3.594838
     67          8           0       -2.388074   -7.383295    2.510170
     68          1           0        0.559220   -4.313979    0.838716
     69          1           0       -1.440456   -5.888403   -0.564097
     70          1           0        0.495976   -6.484166    1.333980
     71          1           0       -0.555493   -7.521587    0.510589
     72          1           0        0.376743   -6.468094    3.612845
     73          1           0       -0.979253   -7.211122    4.409453
     74          7           0       -3.579980   -5.246481    0.605337
     75          6           0       -4.857351   -4.626938    0.917570
     76          6           0       -5.397074   -3.612875   -0.076500
     77          8           0       -5.076813   -3.497246   -1.255891
     78          1           0       -3.566119   -5.990367   -0.082370
     79          1           0       -4.918039   -4.248974    1.935441
     80          1           0       -5.481559   -5.529556    0.929629
     81          7           0       -6.395960   -2.840584    0.343967
     82          6           0       -7.170750   -1.817817   -0.324575
     83          6           0       -6.430933   -0.552404   -0.757127
     84          8           0       -6.831601    0.197474   -1.631740
     85          6           0       -8.133397   -2.384217   -1.355692
     86          6           0       -8.959708   -3.562851   -0.903441
     87          6           0       -8.546720   -4.832735   -1.328805
     88          6           0      -10.079106   -3.476265   -0.072747
     89          6           0       -9.334940   -5.941910   -0.994979
     90          6           0      -10.868709   -4.585723    0.251180
     91          6           0      -10.501864   -5.867464   -0.207803
     92          8           0      -11.390705   -6.891959   -0.054267
     93          1           0       -6.791376   -3.178214    1.216981
     94          1           0       -7.865850   -1.428902    0.417974
     95          1           0       -7.565429   -2.703091   -2.234004
     96          1           0       -8.808606   -1.601286   -1.677734
     97          1           0       -7.684492   -5.003232   -1.949445
     98          1           0      -10.358853   -2.515001    0.352946
     99          1           0       -9.015404   -6.900226   -1.396011
    100          1           0      -11.824347   -4.423958    0.723501
    101          1           0      -12.165644   -6.712389    0.473107
    102          7           0       -5.253308   -0.408815   -0.127777
    103          6           0       -4.312251    0.687238   -0.199748
    104          6           0       -4.907616    2.033864    0.178190
    105          8           0       -4.616890    2.562300    1.243664
    106          6           0       -3.543323    0.819512   -1.513009
    107          6           0       -2.917296   -0.511625   -1.905776
    108          6           0       -2.432283    1.848300   -1.303765
    109          6           0       -1.978954   -0.511197   -3.107613
    110          1           0       -5.095547   -1.017079    0.655501
    111          1           0       -3.562243    0.607495    0.586656
    112          1           0       -4.152483    1.112283   -2.365599
    113          1           0       -3.751613   -1.122981   -2.246451
    114          1           0       -2.439611   -0.970663   -1.040155
    115          1           0       -2.088845    2.289788   -2.243201
    116          1           0       -2.712529    2.712975   -0.703516
    117          1           0       -1.549363    1.476678   -0.790200
    118          1           0       -1.027193   -0.043940   -2.829725
    119          1           0       -1.758326   -1.495382   -3.524389
    120          1           0       -2.472122    0.045568   -3.903163
    121          7           0       -5.833455    2.622901   -0.588138
    122          6           0       -6.484659    3.905631   -0.453097
    123          6           0       -5.659450    5.127282   -0.835719
    124          8           0       -5.766729    6.072641   -0.070024
    125          6           0       -7.747176    3.902393   -1.306935
    126          8           0       -7.517730    3.520158   -2.641195
    127          1           0       -6.183786    2.025008   -1.330157
    128          1           0       -6.850303    3.984093    0.565455
    129          1           0       -8.206575    4.884896   -1.210293
    130          1           0       -8.381841    3.118157   -0.902860
    131          1           0       -8.331800    3.668461   -3.137779
    132          7           0       -5.042422    5.094312   -2.022011
    133          6           0       -4.124631    6.056662   -2.591960
    134          6           0       -3.206238    6.780151   -1.629869
    135          8           0       -3.222249    8.003635   -1.551573
    136          6           0       -4.886739    6.997140   -3.522548
    137          1           0       -5.182132    4.257709   -2.564392
    138          1           0       -3.475640    5.545795   -3.314472
    139          1           0       -4.271405    7.855493   -3.774527
    140          1           0       -5.185990    6.435733   -4.404064
    141          1           0       -5.738532    7.397589   -2.970561
    142          7           0       -2.394748    6.036763   -0.863345
    143          6           0       -1.578242    6.564415    0.209502
    144          6           0       -0.142542    6.064999    0.134337
    145          8           0        0.106544    4.994153   -0.395045
    146          6           0       -2.168331    6.098830    1.537630
    147          1           0       -2.184871    5.077606   -1.107616
    148          1           0       -1.481786    7.657193    0.215223
    149          1           0       -3.240071    6.254817    1.662695
    150          1           0       -2.042620    5.026349    1.722514
    151          1           0       -1.693407    6.751476    2.270775
    152          7           0        0.780439    6.895915    0.617953
    153          6           0        2.221041    6.719409    0.553054
    154          6           0        2.827531    6.692682   -0.844070
    155          8           0        4.015887    6.406840   -1.012011
    156          6           0        2.570424    5.553441    1.487158
    157          6           0        2.146550    5.678841    2.946852
    158          6           0        2.652845    4.648720    3.935951
    159          8           0        2.753279    4.965209    5.135095
    160          8           0        2.973272    3.477987    3.611588
    161          1           0        0.457603    7.773078    1.001569
    162          1           0        2.593906    7.632605    1.010159
    163          1           0        3.655694    5.517140    1.467887
    164          1           0        2.094775    4.678845    1.053409
    165          1           0        1.058247    5.627236    2.888256
    166          1           0        2.444787    6.660825    3.321502
    167          7           0        2.104467    7.197937   -1.838352
    168          6           0        2.402941    6.965971   -3.237068
    169          1           0        3.466710    6.756623   -3.351409
    170          1           0        1.825044    6.114351   -3.596583
    171          1           0        2.143505    7.852214   -3.816122
    172          1           0        1.144317    7.485689   -1.722552
    173         20           0        3.057665    2.383890    6.035228
    174          8           0        1.829393    0.529167    7.411509
    175          1           0        1.104906    0.314259    6.821905
    176          1           0        1.854811   -0.193098    8.044824
 ---------------------------------------------------------------------

 SCF Done:  E(RB3LYP) =  -5333.28544168     A.U. after   33 cycles
 SCF Done:  E(RB3LYP) =  -5333.32587863     a.u. after    9 cycles

 The electronic state is 1-A.
 Alpha  occ. eigenvalues -- -145.47746 -19.22819 -19.16297 -19.14432 -19.11454
 Alpha  occ. eigenvalues --  -19.11198 -19.10146 -19.09520 -19.09111 -19.08849
 Alpha  occ. eigenvalues --  -19.08782 -19.08780 -19.08016 -19.08014 -19.07615
 Alpha  occ. eigenvalues --  -19.06960 -19.06678 -19.06645 -19.06325 -19.05828
 Alpha  occ. eigenvalues --  -19.05136 -19.02933 -18.96625 -18.95855 -15.53715
 Alpha  occ. eigenvalues --  -14.57831 -14.37679 -14.36332 -14.36304 -14.35856
 Alpha  occ. eigenvalues --  -14.35505 -14.35066 -14.34523 -14.34371 -14.34199
 Alpha  occ. eigenvalues --  -14.33248 -14.33117 -14.32833 -14.30964 -14.30546
 Alpha  occ. eigenvalues --  -12.67351 -12.67263 -12.67209 -10.33517 -10.29631
 Alpha  occ. eigenvalues --  -10.29598 -10.29363 -10.28680 -10.28169 -10.27591
 Alpha  occ. eigenvalues --  -10.27571 -10.27451 -10.26782 -10.26203 -10.26186
 Alpha  occ. eigenvalues --  -10.26180 -10.26065 -10.25616 -10.25320 -10.25216
 Alpha  occ. eigenvalues --  -10.24845 -10.24625 -10.24526 -10.24469 -10.24112
 Alpha  occ. eigenvalues --  -10.23818 -10.23686 -10.23641 -10.23610 -10.22845
 Alpha  occ. eigenvalues --  -10.22699 -10.22580 -10.22402 -10.21408 -10.21191
 Alpha  occ. eigenvalues --  -10.20939 -10.20601 -10.19523 -10.19233 -10.19169
 Alpha  occ. eigenvalues --  -10.19018 -10.18910 -10.18883 -10.18572 -10.18372
 Alpha  occ. eigenvalues --  -10.18295 -10.18245 -10.18104 -10.17973 -10.17614
 Alpha  occ. eigenvalues --  -10.17290 -10.16793 -10.16513 -10.15851 -10.15287
 Alpha  occ. eigenvalues --  -10.15088 -10.10940  -1.90369  -1.18214  -1.17430
 Alpha  occ. eigenvalues --   -1.17140  -1.13090  -1.08574  -1.05013  -1.04820
 Alpha  occ. eigenvalues --   -1.04349  -1.03669  -1.03124  -1.03021  -1.02982
 Alpha  occ. eigenvalues --   -1.02333  -1.02196  -1.01603  -1.01222  -1.00776
 Alpha  occ. eigenvalues --   -1.00653  -0.99847  -0.99813  -0.99288  -0.98732
 Alpha  occ. eigenvalues --   -0.97967  -0.94923  -0.93776  -0.92775  -0.92367
 Alpha  occ. eigenvalues --   -0.92345  -0.92058  -0.91650  -0.91545  -0.90853
 Alpha  occ. eigenvalues --   -0.90731  -0.90250  -0.90181  -0.89908  -0.88182
 Alpha  occ. eigenvalues --   -0.88157  -0.87942  -0.87693  -0.87497  -0.85079
 Alpha  occ. eigenvalues --   -0.81391  -0.81133  -0.80937  -0.80718  -0.79429
 Alpha  occ. eigenvalues --   -0.78373  -0.77317  -0.76801  -0.76596  -0.75404
 Alpha  occ. eigenvalues --   -0.75153  -0.74823  -0.74276  -0.74162  -0.73684
 Alpha  occ. eigenvalues --   -0.72844  -0.72485  -0.71835  -0.71675  -0.70602
 Alpha  occ. eigenvalues --   -0.70538  -0.69284  -0.69252  -0.68187  -0.66601
 Alpha  occ. eigenvalues --   -0.66360  -0.65384  -0.65012  -0.64522  -0.64161
 Alpha  occ. eigenvalues --   -0.63215  -0.62851  -0.62455  -0.62147  -0.62090
 Alpha  occ. eigenvalues --   -0.61235  -0.60982  -0.60781  -0.60324  -0.60063
 Alpha  occ. eigenvalues --   -0.59632  -0.59109  -0.59092  -0.58328  -0.58174
 Alpha  occ. eigenvalues --   -0.57981  -0.57635  -0.57336  -0.56665  -0.56078
 Alpha  occ. eigenvalues --   -0.55806  -0.55641  -0.55508  -0.54897  -0.54787
 Alpha  occ. eigenvalues --   -0.54175  -0.54132  -0.53779  -0.53292  -0.53133
 Alpha  occ. eigenvalues --   -0.52755  -0.52592  -0.52208  -0.52150  -0.51751
 Alpha  occ. eigenvalues --   -0.50900  -0.50783  -0.50253  -0.49953  -0.49853
 Alpha  occ. eigenvalues --   -0.49442  -0.49400  -0.49141  -0.49003  -0.48476
 Alpha  occ. eigenvalues --   -0.48371  -0.48152  -0.47888  -0.47582  -0.47531
 Alpha  occ. eigenvalues --   -0.47231  -0.46906  -0.46739  -0.46359  -0.46317
 Alpha  occ. eigenvalues --   -0.45983  -0.45969  -0.45725  -0.45560  -0.45295
 Alpha  occ. eigenvalues --   -0.45076  -0.44953  -0.44891  -0.44712  -0.44666
 Alpha  occ. eigenvalues --   -0.44622  -0.44089  -0.43923  -0.43833  -0.43520
 Alpha  occ. eigenvalues --   -0.43308  -0.43013  -0.42972  -0.42810  -0.42517
 Alpha  occ. eigenvalues --   -0.42435  -0.42419  -0.42208  -0.42071  -0.41953
 Alpha  occ. eigenvalues --   -0.41828  -0.41758  -0.41472  -0.41425  -0.41083
 Alpha  occ. eigenvalues --   -0.40980  -0.40952  -0.40699  -0.40653  -0.40505
 Alpha  occ. eigenvalues --   -0.40313  -0.40215  -0.40068  -0.40056  -0.39871
 Alpha  occ. eigenvalues --   -0.39836  -0.39726  -0.39601  -0.39395  -0.39341
 Alpha  occ. eigenvalues --   -0.38994  -0.38903  -0.38582  -0.38202  -0.38109
 Alpha  occ. eigenvalues --   -0.38080  -0.37882  -0.37538  -0.37383  -0.37339
 Alpha  occ. eigenvalues --   -0.37227  -0.37159  -0.37056  -0.36945  -0.36856
 Alpha  occ. eigenvalues --   -0.36768  -0.36696  -0.36497  -0.36484  -0.36452
 Alpha  occ. eigenvalues --   -0.36351  -0.35930  -0.35898  -0.35785  -0.35695
 Alpha  occ. eigenvalues --   -0.35343  -0.35270  -0.35231  -0.34898  -0.34851
 Alpha  occ. eigenvalues --   -0.34693  -0.34412  -0.34112  -0.33981  -0.33885
 Alpha  occ. eigenvalues --   -0.33836  -0.33666  -0.33260  -0.33198  -0.32903
 Alpha  occ. eigenvalues --   -0.32895  -0.32174  -0.31631  -0.31370  -0.31041
 Alpha  occ. eigenvalues --   -0.29573  -0.29148  -0.28708  -0.28435  -0.28087
 Alpha  occ. eigenvalues --   -0.28009  -0.27566  -0.27179  -0.26538  -0.26513
 Alpha  occ. eigenvalues --   -0.26427  -0.26284  -0.26148  -0.25994  -0.25885
 Alpha  occ. eigenvalues --   -0.25869  -0.25697  -0.25536  -0.25397  -0.25135
 Alpha  occ. eigenvalues --   -0.24923  -0.24550  -0.24457  -0.24296  -0.24073
 Alpha  occ. eigenvalues --   -0.23979  -0.23625  -0.23499  -0.23193  -0.23127
 Alpha  occ. eigenvalues --   -0.22789  -0.22566  -0.22489  -0.22047  -0.22023
 Alpha  occ. eigenvalues --   -0.21726  -0.21365  -0.21115  -0.21039  -0.18631
 Alpha  occ. eigenvalues --   -0.13853  -0.13501  -0.11363
 Alpha virt. eigenvalues --   -0.10474  -0.09928  -0.04387  -0.03248  -0.03155
 Alpha virt. eigenvalues --   -0.01754  -0.00382  -0.00192  -0.00069   0.00259
 Alpha virt. eigenvalues --    0.00468   0.00632   0.00955   0.01078   0.02030

 Mulliken charges:
               1
     1  C    0.055407
     2  C    0.000752
     3  O   -0.312772
     4  H    0.039494
     5  H   -0.002918
     6  H    0.012926
     7  N   -0.144167
     8  C    0.104147
     9  C    0.104720
    10  O   -0.294083
    11  C    0.104863
    12  C    0.074152
    13  O   -0.411462
    14  O   -0.336962
    15  H    0.111542
    16  H   -0.030126
    17  H   -0.005858
    18  H   -0.022697
    19  N   -0.108956
    20  C    0.114513
    21  C    0.087150
    22  O   -0.224247
    23  C    0.039675
    24  C    0.023060
    25  C   -0.023093
    26  C   -0.042463
    27  N    0.096921
    28  H    0.111953
    29  H    0.005410
    30  H    0.004032
    31  H    0.033101
    32  H   -0.001063
    33  H   -0.004214
    34  H    0.044395
    35  H    0.025807
    36  H    0.082317
    37  H    0.085246
    38  H    0.188609
    39  H    0.199906
    40  H    0.184682
    41  N   -0.137844
    42  C    0.113366
    43  C    0.119966
    44  O   -0.295423
    45  C    0.074080
    46  C    0.057826
    47  O   -0.329617
    48  O   -0.505901
    49  H    0.118731
    50  H    0.032777
    51  H    0.018008
    52  H   -0.022482
    53  N   -0.144707
    54  C    0.203228
    55  C    0.042435
    56  O   -0.300331
    57  H    0.118840
    58  H    0.058735
    59  H    0.010494
    60  N   -0.119513
    61  C    0.131992
    62  C    0.089990
    63  O   -0.293589
    64  C    0.122377
    65  C   -0.030758
    66  N   -0.034005
    67  O   -0.301069
    68  H    0.127837
    69  H   -0.017028
    70  H   -0.000478
    71  H    0.025091
    72  H    0.121166
    73  H    0.121885
    74  N   -0.100825
    75  C    0.185364
    76  C    0.041293
    77  O   -0.250291
    78  H    0.128720
    79  H    0.024193
    80  H    0.037671
    81  N   -0.136558
    82  C    0.085110
    83  C    0.106592
    84  O   -0.271078
    85  C    0.181556
    86  C   -0.057104
    87  C   -0.008300
    88  C   -0.015652
    89  C   -0.049530
    90  C   -0.058148
    91  C    0.205800
    92  O   -0.200701
    93  H    0.119594
    94  H    0.010252
    95  H    0.014086
    96  H   -0.000309
    97  H   -0.009799
    98  H   -0.036028
    99  H   -0.020125
   100  H   -0.042500
   101  H    0.175957
   102  N   -0.090826
   103  C    0.154790
   104  C    0.012424
   105  O   -0.270394
   106  C   -0.091837
   107  C    0.027477
   108  C    0.028164
   109  C    0.030469
   110  H    0.126646
   111  H   -0.003784
   112  H   -0.009677
   113  H    0.017570
   114  H   -0.006371
   115  H    0.001762
   116  H    0.012250
   117  H    0.005873
   118  H   -0.006213
   119  H    0.036689
   120  H   -0.019025
   121  N   -0.137211
   122  C    0.110769
   123  C    0.075150
   124  O   -0.261390
   125  C    0.198368
   126  O   -0.312962
   127  H    0.139494
   128  H    0.007804
   129  H    0.014031
   130  H   -0.003845
   131  H    0.174894
   132  N   -0.113523
   133  C    0.044903
   134  C    0.074874
   135  O   -0.264125
   136  C    0.085632
   137  H    0.122750
   138  H    0.010372
   139  H    0.013754
   140  H   -0.003850
   141  H    0.022100
   142  N   -0.135425
   143  C    0.076371
   144  C    0.042722
   145  O   -0.269113
   146  C    0.073557
   147  H    0.132940
   148  H   -0.000027
   149  H    0.049621
   150  H    0.028614
   151  H   -0.013458
   152  N   -0.156115
   153  C    0.091394
   154  C    0.101583
   155  O   -0.288581
   156  C    0.031014
   157  C    0.075672
   158  C    0.084559
   159  O   -0.421193
   160  O   -0.416650
   161  H    0.124634
   162  H    0.005846
   163  H    0.003562
   164  H    0.030866
   165  H    0.014377
   166  H   -0.010945
   167  N   -0.139876
   168  C    0.112954
   169  H    0.037833
   170  H    0.030716
   171  H    0.020643
   172  H    0.116867
   173  Ca   1.330803
   174  O   -0.322057
   175  H    0.189840
   176  H    0.207459
 Sum of Mulliken charges =   0.00000

 Dipole moment (field-independent basis, Debye):
    X=              2.5468    Y=             27.6202    Z=             10.5703  Tot=             29.6832
 Quadrupole moment (field-independent basis, Debye-Ang):
   XX=           -406.4638   YY=           -666.7863   ZZ=           -442.5301
   XY=            276.8700   XZ=             -0.5433   YZ=            -22.0800

 ESP charges:
               1
     1  C   -0.430028
     2  C    0.732746
     3  O   -0.597893
     4  H    0.128729
     5  H    0.087072
     6  H    0.104105
     7  N   -0.688687
     8  C    0.397474
     9  C    0.418527
    10  O   -0.527274
    11  C   -0.310227
    12  C    0.696509
    13  O   -0.720923
    14  O   -0.635917
    15  H    0.310670
    16  H   -0.034351
    17  H    0.089226
    18  H    0.081828
    19  N   -0.290218
    20  C    0.044483
    21  C    0.514144
    22  O   -0.387537
    23  C   -0.337265
    24  C    0.273762
    25  C   -0.135789
    26  C    0.100490
    27  N   -0.383889
    28  H    0.223205
    29  H    0.086471
    30  H    0.064635
    31  H    0.138739
    32  H   -0.035154
    33  H   -0.064173
    34  H    0.058156
    35  H    0.040546
    36  H    0.058411
    37  H    0.075173
    38  H    0.329931
    39  H    0.341740
    40  H    0.318374
    41  N   -0.560049
    42  C    0.126713
    43  C    0.389869
    44  O   -0.467355
    45  C   -0.353990
    46  C    0.851889
    47  O   -0.659702
    48  O   -0.866574
    49  H    0.339328
    50  H    0.084478
    51  H    0.106733
    52  H    0.066627
    53  N   -0.319140
    54  C   -0.088987
    55  C    0.577937
    56  O   -0.607437
    57  H    0.275015
    58  H    0.122951
    59  H    0.090046
    60  N   -0.457865
    61  C    0.177380
    62  C    0.526451
    63  O   -0.539317
    64  C   -0.221907
    65  C    0.551799
    66  N   -0.650398
    67  O   -0.559065
    68  H    0.279917
    69  H    0.064135
    70  H    0.090178
    71  H    0.080204
    72  H    0.313114
    73  H    0.334260
    74  N   -0.491759
    75  C    0.281343
    76  C    0.483787
    77  O   -0.529978
    78  H    0.284178
    79  H    0.023219
    80  H    0.018578
    81  N   -0.739078
    82  C    0.576669
    83  C    0.387667
    84  O   -0.493530
    85  C   -0.418167
    86  C    0.262031
    87  C   -0.304598
    88  C   -0.165169
    89  C   -0.179635
    90  C   -0.331735
    91  C    0.349301
    92  O   -0.553852
    93  H    0.279723
    94  H   -0.023663
    95  H    0.143473
    96  H    0.083670
    97  H    0.206218
    98  H    0.123013
    99  H    0.137035
   100  H    0.154442
   101  H    0.420967
   102  N   -0.584693
   103  C    0.191248
   104  C    0.419202
   105  O   -0.553181
   106  C    0.099547
   107  C    0.203541
   108  C   -0.641011
   109  C   -0.436078
   110  H    0.328244
   111  H    0.051579
   112  H    0.029686
   113  H    0.063028
   114  H   -0.015548
   115  H    0.149326
   116  H    0.140943
   117  H    0.168478
   118  H    0.095133
   119  H    0.127293
   120  H    0.085583
   121  N   -0.110432
   122  C   -0.236206
   123  C    0.666902
   124  O   -0.540417
   125  C    0.059404
   126  O   -0.574542
   127  H    0.197712
   128  H    0.131548
   129  H    0.067445
   130  H    0.055188
   131  H    0.410221
   132  N   -0.488887
   133  C    0.454644
   134  C    0.442094
   135  O   -0.503270
   136  C   -0.444517
   137  H    0.249685
   138  H   -0.001230
   139  H    0.101747
   140  H    0.097977
   141  H    0.121769
   142  N   -0.701697
   143  C    0.614599
   144  C    0.504419
   145  O   -0.459692
   146  C   -0.161282
   147  H    0.228489
   148  H   -0.087596
   149  H    0.073994
   150  H    0.053547
   151  H   -0.017313
   152  N   -0.670629
   153  C   -0.108002
   154  C    0.564115
   155  O   -0.523644
   156  C    0.128209
   157  C    0.023194
   158  C    0.763506
   159  O   -0.815158
   160  O   -0.762168
   161  H    0.364500
   162  H    0.112249
   163  H   -0.035547
   164  H    0.012584
   165  H   -0.040459
   166  H    0.017922
   167  N   -0.401417
   168  C    0.006887
   169  H    0.063007
   170  H    0.050884
   171  H    0.042768
   172  H    0.278474
   173  Ca   1.558081
   174  O   -0.852877
   175  H    0.414840
   176  H    0.464854
 Sum of ESP charges =   0.00000

 Normal termination of Gaussian 16 at Thu Sep 19 11:01:55 2019.
