 Gaussian 16, Revision A.03,
 Gaussian 16:  ES64L-G16RevA.03 25-Dec-2016

 ----------------------------------------------------------------------
 #b3lyp/svp scf=(tight,noincore) Test #IOP(5/87=12) Density=Current Pop
 =(MK,readradii) iop(6/33=2) iop(6/42=6)
 ----------------------------------------------------------------------

 ----------------
 Ng-295_loop3_1.0
 ----------------
 Symbolic Z-matrix:
 Charge =  0 Multiplicity = 1

                         Standard orientation:
 ---------------------------------------------------------------------
 Center     Atomic      Atomic             Coordinates (Angstroms)
 Number     Number       Type             X           Y           Z
 ---------------------------------------------------------------------
      1          6           0        6.481618   -3.041530    6.326544
      2          6           0        5.463077   -2.727552    5.227731
      3          8           0        4.264853   -2.599752    5.477787
      4          1           0        6.060200   -3.776119    7.012863
      5          1           0        7.389026   -3.444072    5.876376
      6          1           0        6.719714   -2.128958    6.873522
      7          7           0        5.940042   -2.506195    4.002494
      8          6           0        5.190212   -2.484257    2.766907
      9          6           0        5.503355   -3.484172    1.669177
     10          8           0        6.643173   -3.586026    1.204375
     11          6           0        5.082798   -1.046446    2.278786
     12          6           0        4.013129   -0.903608    1.204401
     13          8           0        2.912550   -0.383734    1.466424
     14          8           0        4.246078   -1.301161    0.044795
     15          1           0        6.941446   -2.524745    3.884825
     16          1           0        4.210955   -2.875507    3.044178
     17          1           0        6.027792   -0.574229    2.009906
     18          1           0        4.724799   -0.461554    3.134145
     19          7           0        4.514946   -4.069518    0.993220
     20          6           0        4.703901   -5.079023   -0.030448
     21          6           0        5.339572   -4.686474   -1.365711
     22          8           0        6.004622   -5.491148   -2.004701
     23          6           0        3.391601   -5.833977   -0.177795
     24          6           0        3.498087   -7.145748   -0.945466
     25          6           0        2.120706   -7.809801   -1.091605
     26          6           0        2.168754   -9.256152   -1.585830
     27          7           0        0.806445   -9.754444   -1.804052
     28          1           0        3.570536   -3.799406    1.228228
     29          1           0        5.391915   -5.728849    0.504400
     30          1           0        2.582756   -5.177886   -0.491825
     31          1           0        3.134756   -6.097560    0.852086
     32          1           0        4.093536   -7.764614   -0.276928
     33          1           0        3.863515   -7.031179   -1.965141
     34          1           0        1.460401   -7.213852   -1.708486
     35          1           0        1.685818   -7.934204   -0.093810
     36          1           0        2.660706   -9.917706   -0.880330
     37          1           0        2.707716   -9.195416   -2.533475
     38          1           0        0.281117  -10.035667   -0.997118
     39          1           0        0.196145   -9.107790   -2.300814
     40          1           0        0.836569  -10.589906   -2.378853
     41          7           0        5.356890   -3.394447   -1.713514
     42          6           0        6.069757   -2.875474   -2.857055
     43          6           0        7.083834   -1.824238   -2.412588
     44          8           0        7.640998   -1.160699   -3.286765
     45          6           0        5.037153   -2.298297   -3.823851
     46          6           0        3.971088   -1.420960   -3.187624
     47          8           0        4.187819   -0.287655   -2.703115
     48          8           0        2.788555   -1.799467   -3.148294
     49          1           0        4.971225   -2.743368   -1.037749
     50          1           0        6.682302   -3.636268   -3.335366
     51          1           0        4.516856   -3.074682   -4.391758
     52          1           0        5.495878   -1.647509   -4.571746
     53          7           0        7.169514   -1.581134   -1.107307
     54          6           0        8.060330   -0.638376   -0.465003
     55          6           0        7.719500    0.835667   -0.360921
     56          8           0        8.482540    1.596142    0.243354
     57          1           0        6.620931   -2.224439   -0.548276
     58          1           0        9.056514   -0.745661   -0.891862
     59          1           0        8.096751   -0.996762    0.567728
     60          7           0        6.517805    1.171782   -0.824231
     61          6           0        5.816728    2.438971   -0.671843
     62          6           0        4.585997    2.302900    0.215956
     63          8           0        3.583588    1.696629   -0.136479
     64          6           0        5.651485    3.133994   -2.022820
     65          6           0        5.473950    4.643704   -2.096678
     66          7           0        5.231106    5.229237   -3.280054
     67          8           0        5.469577    5.364499   -1.108733
     68          1           0        6.044860    0.445178   -1.345451
     69          1           0        6.564172    3.004132   -0.117659
     70          1           0        4.777497    2.701691   -2.504649
     71          1           0        6.407196    2.791195   -2.732179
     72          1           0        5.409439    4.719266   -4.138033
     73          1           0        5.033693    6.207793   -3.362854
     74          7           0        4.619822    2.852228    1.429379
     75          6           0        3.819815    2.635563    2.613121
     76          6           0        2.361753    3.059859    2.480719
     77          8           0        1.597547    2.717511    3.378765
     78          1           0        5.445066    3.438836    1.498396
     79          1           0        4.176714    3.340726    3.379847
     80          1           0        3.860487    1.594250    2.947503
     81          7           0        2.030827    3.812641    1.433243
     82          6           0        0.663975    4.040209    0.985438
     83          6           0       -0.141626    2.783373    0.670844
     84          8           0        0.400027    1.897153    0.016912
     85          6           0        0.512291    5.031439   -0.153225
     86          6           0        1.211981    6.364793   -0.044124
     87          6           0        2.496597    6.596975   -0.542875
     88          6           0        0.594184    7.454351    0.577317
     89          6           0        3.125806    7.835612   -0.331984
     90          6           0        1.124919    8.742724    0.680834
     91          6           0        2.481976    8.907400    0.306964
     92          8           0        3.102124   10.108560    0.449201
     93          1           0        2.746095    3.978463    0.751631
     94          1           0        0.140262    4.437980    1.861396
     95          1           0       -0.564002    5.187681   -0.275625
     96          1           0        0.872118    4.581914   -1.079806
     97          1           0        3.038016    5.861285   -1.112897
     98          1           0       -0.405895    7.282281    0.954721
     99          1           0        4.095249    8.002994   -0.765418
    100          1           0        0.541628    9.564075    1.075616
    101          1           0        2.470617   10.694895    0.865024
    102          7           0       -1.428993    2.785370    1.031927
    103          6           0       -2.493815    1.815340    0.931452
    104          6           0       -2.876905    1.415772   -0.483676
    105          8           0       -2.218723    1.835794   -1.431979
    106          6           0       -2.317023    0.633401    1.879590
    107          6           0       -2.077997    1.070249    3.323969
    108          6           0       -1.209619   -0.322440    1.430788
    109          6           0       -1.818760   -0.006661    4.369943
    110          1           0       -1.731046    3.674224    1.399354
    111          1           0       -3.419933    2.182493    1.389279
    112          1           0       -3.238121    0.048433    1.903897
    113          1           0       -2.775514    1.846375    3.617226
    114          1           0       -1.179893    1.694856    3.299994
    115          1           0       -1.212131   -0.630512    0.388874
    116          1           0       -0.205017    0.082584    1.565060
    117          1           0       -1.209273   -1.275165    1.949359
    118          1           0       -2.662170   -0.680532    4.425244
    119          1           0       -0.845214   -0.485716    4.291758
    120          1           0       -1.839261    0.525977    5.319983
    121          7           0       -3.973278    0.662384   -0.622505
    122          6           0       -4.557214    0.278795   -1.891670
    123          6           0       -5.869676    0.928461   -2.281383
    124          8           0       -6.177449    1.233885   -3.434375
    125          6           0       -4.679976   -1.237773   -1.917180
    126          8           0       -5.889006   -1.751867   -1.380845
    127          1           0       -4.586602    0.461524    0.158000
    128          1           0       -3.848827    0.549972   -2.676495
    129          1           0       -3.905490   -1.689300   -1.298072
    130          1           0       -4.620090   -1.416033   -2.991580
    131          1           0       -6.099503   -2.674845   -1.545472
    132          7           0       -6.673572    1.281125   -1.268081
    133          6           0       -7.892270    2.054445   -1.192909
    134          6           0       -8.846637    1.884115   -2.373745
    135          8           0       -9.187237    2.852616   -3.039551
    136          6           0       -7.450786    3.488828   -0.908243
    137          1           0       -6.299664    1.018702   -0.367233
    138          1           0       -8.503953    1.732916   -0.349663
    139          1           0       -8.288765    4.130850   -0.657248
    140          1           0       -6.769454    3.518694   -0.058953
    141          1           0       -7.021424    3.884354   -1.827541
    142          7           0       -9.326509    0.672531   -2.700681
    143          6           0       -9.254691   -0.568489   -1.968621
    144          6           0      -10.396267   -0.726974   -0.965283
    145          8           0      -11.551398   -0.576489   -1.342146
    146          6           0       -9.315932   -1.769250   -2.907302
    147          1           0       -9.955730    0.579011   -3.485687
    148          1           0       -8.282094   -0.679374   -1.491694
    149          1           0      -10.154582   -1.755519   -3.592122
    150          1           0       -8.401988   -1.910456   -3.473754
    151          1           0       -9.394452   -2.617600   -2.240117
    152          7           0      -10.185466   -0.880537    0.340466
    153          6           0       -8.908020   -0.861740    1.025360
    154          6           0       -8.922450   -0.289080    2.436336
    155          8           0       -7.881541   -0.018272    3.036728
    156          6           0       -8.210618   -2.214735    0.923210
    157          6           0       -9.016857   -3.415613    1.412772
    158          6           0       -8.196520   -4.693370    1.444139
    159          8           0       -7.894192   -5.085216    2.598415
    160          8           0       -7.774517   -5.206633    0.385378
    161          1           0      -11.010423   -1.091201    0.887701
    162          1           0       -8.210134   -0.240403    0.477551
    163          1           0       -7.299108   -2.190467    1.515038
    164          1           0       -7.845899   -2.385754   -0.084675
    165          1           0       -9.903345   -3.543702    0.792747
    166          1           0       -9.250354   -3.133344    2.443114
    167          7           0      -10.076561   -0.080866    3.067821
    168          6           0      -10.133684    0.293023    4.470584
    169          1           0      -10.649355   -0.485611    5.032579
    170          1           0       -9.120884    0.409806    4.857400
    171          1           0      -10.674003    1.233822    4.574694
    172          1           0      -10.910158   -0.307856    2.557436
    173         20           0        2.041415   -0.074965   -1.149276
    174          8           0       -0.208085   -0.026744   -2.457643
    175          1           0       -0.877702    0.532665   -2.068701
    176          1           0       -0.651694   -0.472309   -3.175475
 ---------------------------------------------------------------------

 SCF Done:  E(RB3LYP) =  -5333.43051786     A.U. after   53 cycles

 The electronic state is 1-A.
 Alpha  occ. eigenvalues -- -145.41288 -19.18607 -19.17458 -19.14658 -19.14121
 Alpha  occ. eigenvalues --  -19.13991 -19.13095 -19.11813 -19.11047 -19.10486
 Alpha  occ. eigenvalues --  -19.10301 -19.09911 -19.09419 -19.08856 -19.08314
 Alpha  occ. eigenvalues --  -19.07957 -19.07583 -19.07536 -19.07408 -19.07118
 Alpha  occ. eigenvalues --  -19.05919 -19.05800 -18.97005 -18.96648 -15.47070
 Alpha  occ. eigenvalues --  -14.57931 -14.39885 -14.39692 -14.38409 -14.38340
 Alpha  occ. eigenvalues --  -14.36864 -14.36656 -14.36513 -14.36462 -14.35042
 Alpha  occ. eigenvalues --  -14.34637 -14.34471 -14.34215 -14.34031 -14.33308
 Alpha  occ. eigenvalues --  -12.60713 -12.60633 -12.60615 -10.35456 -10.32851
 Alpha  occ. eigenvalues --  -10.32423 -10.31550 -10.30641 -10.30407 -10.29769
 Alpha  occ. eigenvalues --  -10.29384 -10.28983 -10.28834 -10.28337 -10.27911
 Alpha  occ. eigenvalues --  -10.27247 -10.27155 -10.27103 -10.26947 -10.26385
 Alpha  occ. eigenvalues --  -10.26288 -10.26261 -10.26141 -10.26133 -10.25990
 Alpha  occ. eigenvalues --  -10.25960 -10.25351 -10.25217 -10.25142 -10.25141
 Alpha  occ. eigenvalues --  -10.24825 -10.24278 -10.24041 -10.22354 -10.22225
 Alpha  occ. eigenvalues --  -10.22070 -10.21823 -10.21769 -10.21701 -10.21347
 Alpha  occ. eigenvalues --  -10.20985 -10.20333 -10.20306 -10.20239 -10.20068
 Alpha  occ. eigenvalues --  -10.19980 -10.19642 -10.19169 -10.18876 -10.18728
 Alpha  occ. eigenvalues --  -10.17913 -10.17647 -10.17216 -10.17022 -10.16334
 Alpha  occ. eigenvalues --  -10.14414 -10.11033  -1.83747  -1.13525  -1.11520
 Alpha  occ. eigenvalues --   -1.10979  -1.10837  -1.07481  -1.06476  -1.06447
 Alpha  occ. eigenvalues --   -1.06205  -1.05527  -1.04580  -1.04235  -1.03623
 Alpha  occ. eigenvalues --   -1.03396  -1.03278  -1.03251  -1.02518  -1.02189
 Alpha  occ. eigenvalues --   -1.01653  -1.01558  -1.01520  -1.01003  -1.00429
 Alpha  occ. eigenvalues --   -1.00418  -0.96711  -0.96549  -0.95102  -0.95069
 Alpha  occ. eigenvalues --   -0.93591  -0.93119  -0.93100  -0.92862  -0.92405
 Alpha  occ. eigenvalues --   -0.92084  -0.91346  -0.91020  -0.90845  -0.90167
 Alpha  occ. eigenvalues --   -0.89946  -0.89821  -0.89810  -0.89714  -0.86099
 Alpha  occ. eigenvalues --   -0.84566  -0.84081  -0.81364  -0.81125  -0.80499
 Alpha  occ. eigenvalues --   -0.80297  -0.79842  -0.77943  -0.77170  -0.76468
 Alpha  occ. eigenvalues --   -0.76358  -0.75977  -0.75849  -0.75260  -0.75035
 Alpha  occ. eigenvalues --   -0.73847  -0.73455  -0.73042  -0.72910  -0.72206
 Alpha  occ. eigenvalues --   -0.72022  -0.70730  -0.69582  -0.69130  -0.68124
 Alpha  occ. eigenvalues --   -0.67472  -0.67330  -0.66421  -0.66259  -0.65963
 Alpha  occ. eigenvalues --   -0.65344  -0.64823  -0.64708  -0.64389  -0.63231
 Alpha  occ. eigenvalues --   -0.62993  -0.62925  -0.61834  -0.61678  -0.61403
 Alpha  occ. eigenvalues --   -0.60614  -0.60089  -0.59735  -0.59708  -0.59299
 Alpha  occ. eigenvalues --   -0.59012  -0.58936  -0.58666  -0.58353  -0.58191
 Alpha  occ. eigenvalues --   -0.58021  -0.57944  -0.57354  -0.57189  -0.56227
 Alpha  occ. eigenvalues --   -0.56201  -0.55800  -0.55787  -0.55641  -0.55200
 Alpha  occ. eigenvalues --   -0.54829  -0.54632  -0.53327  -0.53259  -0.53171
 Alpha  occ. eigenvalues --   -0.52769  -0.52362  -0.52246  -0.51932  -0.51583
 Alpha  occ. eigenvalues --   -0.51285  -0.50828  -0.50698  -0.50308  -0.50074
 Alpha  occ. eigenvalues --   -0.49999  -0.49968  -0.49315  -0.48993  -0.48756
 Alpha  occ. eigenvalues --   -0.48581  -0.48491  -0.48006  -0.47851  -0.47621
 Alpha  occ. eigenvalues --   -0.47370  -0.47306  -0.47042  -0.46849  -0.46731
 Alpha  occ. eigenvalues --   -0.46645  -0.46412  -0.46232  -0.46083  -0.45912
 Alpha  occ. eigenvalues --   -0.45883  -0.45800  -0.45451  -0.45394  -0.45267
 Alpha  occ. eigenvalues --   -0.44979  -0.44879  -0.44535  -0.44196  -0.43849
 Alpha  occ. eigenvalues --   -0.43761  -0.43747  -0.43539  -0.43461  -0.43303
 Alpha  occ. eigenvalues --   -0.43268  -0.43146  -0.43114  -0.42634  -0.42534
 Alpha  occ. eigenvalues --   -0.42458  -0.42392  -0.42295  -0.42198  -0.41894
 Alpha  occ. eigenvalues --   -0.41599  -0.41471  -0.41392  -0.41271  -0.41184
 Alpha  occ. eigenvalues --   -0.41119  -0.41036  -0.40863  -0.40768  -0.40730
 Alpha  occ. eigenvalues --   -0.40607  -0.40485  -0.40187  -0.40019  -0.39766
 Alpha  occ. eigenvalues --   -0.39549  -0.39460  -0.39157  -0.38988  -0.38821
 Alpha  occ. eigenvalues --   -0.38801  -0.38755  -0.38714  -0.38540  -0.38479
 Alpha  occ. eigenvalues --   -0.38237  -0.37992  -0.37963  -0.37672  -0.37598
 Alpha  occ. eigenvalues --   -0.37556  -0.37486  -0.37269  -0.37033  -0.36947
 Alpha  occ. eigenvalues --   -0.36857  -0.36649  -0.36521  -0.36434  -0.36156
 Alpha  occ. eigenvalues --   -0.36055  -0.35685  -0.35635  -0.35346  -0.34933
 Alpha  occ. eigenvalues --   -0.34871  -0.34808  -0.34372  -0.34308  -0.34269
 Alpha  occ. eigenvalues --   -0.34169  -0.34087  -0.32792  -0.32063  -0.31693
 Alpha  occ. eigenvalues --   -0.31622  -0.31007  -0.30658  -0.30413  -0.30047
 Alpha  occ. eigenvalues --   -0.29900  -0.29616  -0.29507  -0.28714  -0.28583
 Alpha  occ. eigenvalues --   -0.28517  -0.27580  -0.27434  -0.27214  -0.27103
 Alpha  occ. eigenvalues --   -0.26933  -0.26750  -0.26596  -0.26490  -0.26401
 Alpha  occ. eigenvalues --   -0.26032  -0.25950  -0.25741  -0.25710  -0.25522
 Alpha  occ. eigenvalues --   -0.25302  -0.25205  -0.25167  -0.24799  -0.24753
 Alpha  occ. eigenvalues --   -0.24400  -0.23904  -0.23492  -0.23423  -0.23412
 Alpha  occ. eigenvalues --   -0.23235  -0.22835  -0.22743  -0.22227  -0.20881
 Alpha  occ. eigenvalues --   -0.14264  -0.13886  -0.11763
 Alpha virt. eigenvalues --   -0.10750  -0.04849  -0.04648  -0.03391  -0.02927
 Alpha virt. eigenvalues --   -0.02575  -0.02525  -0.02418  -0.02248  -0.01979
 Alpha virt. eigenvalues --   -0.00703  -0.00369  -0.00074   0.00499   0.00645

 Mulliken charges:
               1
     1  C    0.055845
     2  C    0.009192
     3  O   -0.279768
     4  H    0.040912
     5  H    0.002700
     6  H    0.049999
     7  N   -0.124455
     8  C    0.114852
     9  C    0.071310
    10  O   -0.303023
    11  C    0.146258
    12  C    0.060966
    13  O   -0.387194
    14  O   -0.412372
    15  H    0.115292
    16  H   -0.010839
    17  H    0.011042
    18  H    0.015259
    19  N   -0.133519
    20  C    0.161697
    21  C    0.094219
    22  O   -0.291097
    23  C   -0.035307
    24  C    0.070090
    25  C   -0.079032
    26  C    0.071703
    27  N    0.128442
    28  H    0.127674
    29  H    0.015143
    30  H    0.013281
    31  H    0.002109
    32  H    0.012098
    33  H    0.048771
    34  H    0.027085
    35  H    0.008571
    36  H    0.068756
    37  H    0.069026
    38  H    0.137497
    39  H    0.144966
    40  H    0.136954
    41  N   -0.184691
    42  C    0.117505
    43  C    0.032763
    44  O   -0.286287
    45  C    0.177707
    46  C    0.048228
    47  O   -0.424577
    48  O   -0.429418
    49  H    0.170122
    50  H    0.033383
    51  H   -0.017676
    52  H    0.018913
    53  N   -0.168434
    54  C    0.201737
    55  C    0.031501
    56  O   -0.293731
    57  H    0.146457
    58  H    0.037040
    59  H    0.026093
    60  N   -0.163141
    61  C    0.155711
    62  C    0.120936
    63  O   -0.351233
    64  C    0.058649
    65  C    0.038069
    66  N   -0.058253
    67  O   -0.273755
    68  H    0.160392
    69  H   -0.003197
    70  H    0.028721
    71  H    0.035659
    72  H    0.118703
    73  H    0.128194
    74  N   -0.158524
    75  C    0.216383
    76  C    0.019773
    77  O   -0.275973
    78  H    0.140973
    79  H    0.043618
    80  H    0.073221
    81  N   -0.083659
    82  C    0.089089
    83  C    0.155339
    84  O   -0.351966
    85  C    0.147824
    86  C    0.020497
    87  C   -0.016302
    88  C   -0.014474
    89  C   -0.013669
    90  C   -0.036483
    91  C    0.156093
    92  O   -0.175870
    93  H    0.124374
    94  H   -0.015668
    95  H   -0.007606
    96  H    0.001259
    97  H   -0.036401
    98  H   -0.043353
    99  H   -0.023784
   100  H   -0.036789
   101  H    0.171258
   102  N   -0.087340
   103  C    0.099325
   104  C    0.117785
   105  O   -0.280951
   106  C   -0.096283
   107  C   -0.004674
   108  C    0.031401
   109  C    0.059737
   110  H    0.132385
   111  H    0.021892
   112  H    0.002603
   113  H   -0.030111
   114  H    0.006070
   115  H   -0.046179
   116  H    0.044548
   117  H    0.010353
   118  H    0.015021
   119  H    0.039799
   120  H    0.007255
   121  N   -0.141640
   122  C    0.054634
   123  C    0.094528
   124  O   -0.247400
   125  C    0.260851
   126  O   -0.332430
   127  H    0.143735
   128  H    0.024515
   129  H   -0.000145
   130  H    0.009141
   131  H    0.211662
   132  N   -0.151312
   133  C    0.024677
   134  C    0.076994
   135  O   -0.243435
   136  C    0.093330
   137  H    0.111802
   138  H    0.034524
   139  H    0.013769
   140  H   -0.018613
   141  H    0.037858
   142  N   -0.084230
   143  C    0.022355
   144  C    0.045822
   145  O   -0.275859
   146  C    0.050070
   147  H    0.126811
   148  H    0.018395
   149  H    0.020012
   150  H    0.007769
   151  H    0.031973
   152  N   -0.111028
   153  C    0.128419
   154  C    0.053942
   155  O   -0.297308
   156  C    0.017907
   157  C    0.083714
   158  C    0.043514
   159  O   -0.368482
   160  O   -0.395527
   161  H    0.120995
   162  H   -0.035879
   163  H   -0.008995
   164  H   -0.031423
   165  H   -0.033952
   166  H   -0.044467
   167  N   -0.143223
   168  C    0.123129
   169  H    0.028634
   170  H    0.054938
   171  H    0.017481
   172  H    0.094260
   173  Ca   1.319894
   174  O   -0.326667
   175  H    0.178779
   176  H    0.192176
 Sum of Mulliken charges =  -0.00000

 Dipole moment (field-independent basis, Debye):
    X=             16.0911    Y=            -13.6786    Z=             -4.0681  Tot=             21.5076
 Quadrupole moment (field-independent basis, Debye-Ang):
   XX=           -868.4027   YY=           -275.5640   ZZ=           -584.6772
   XY=           -112.9699   XZ=              8.0537   YZ=             90.6582

 ESP charges:
               1
     1  C   -0.441273
     2  C    0.709032
     3  O   -0.556751
     4  H    0.130000
     5  H    0.095128
     6  H    0.140696
     7  N   -0.617064
     8  C    0.200220
     9  C    0.504949
    10  O   -0.535486
    11  C   -0.197711
    12  C    0.772248
    13  O   -0.745936
    14  O   -0.721435
    15  H    0.315761
    16  H    0.013323
    17  H    0.074419
    18  H    0.100819
    19  N   -0.394568
    20  C   -0.120119
    21  C    0.634466
    22  O   -0.602260
    23  C    0.166311
    24  C   -0.403277
    25  C    0.262513
    26  C    0.044889
    27  N   -0.248896
    28  H    0.255646
    29  H    0.134203
    30  H   -0.007735
    31  H    0.017345
    32  H    0.106054
    33  H    0.138262
    34  H   -0.017612
    35  H   -0.059917
    36  H    0.078335
    37  H    0.051028
    38  H    0.263667
    39  H    0.252177
    40  H    0.251231
    41  N   -0.391158
    42  C    0.119436
    43  C    0.326946
    44  O   -0.515786
    45  C   -0.432738
    46  C    0.886993
    47  O   -0.769820
    48  O   -0.772819
    49  H    0.206871
    50  H    0.132661
    51  H    0.108671
    52  H    0.131355
    53  N    0.022684
    54  C   -0.494578
    55  C    0.642032
    56  O   -0.558510
    57  H    0.120075
    58  H    0.186380
    59  H    0.166219
    60  N   -0.345564
    61  C    0.024202
    62  C    0.390448
    63  O   -0.519697
    64  C   -0.142935
    65  C    0.701901
    66  N   -0.881628
    67  O   -0.568708
    68  H    0.299056
    69  H    0.050382
    70  H    0.059108
    71  H    0.089096
    72  H    0.370510
    73  H    0.408839
    74  N   -0.272208
    75  C   -0.254595
    76  C    0.740081
    77  O   -0.561501
    78  H    0.272938
    79  H    0.138034
    80  H    0.132724
    81  N   -0.624029
    82  C    0.356755
    83  C    0.443434
    84  O   -0.496561
    85  C   -0.225501
    86  C    0.116529
    87  C   -0.248822
    88  C   -0.111597
    89  C   -0.186570
    90  C   -0.344529
    91  C    0.367676
    92  O   -0.530451
    93  H    0.303048
    94  H   -0.028785
    95  H    0.063096
    96  H    0.079787
    97  H    0.163844
    98  H    0.107122
    99  H    0.154926
   100  H    0.160745
   101  H    0.405151
   102  N   -0.496193
   103  C    0.076039
   104  C    0.545365
   105  O   -0.499592
   106  C    0.010617
   107  C    0.140314
   108  C   -0.045655
   109  C   -0.329140
   110  H    0.318037
   111  H    0.041343
   112  H    0.016149
   113  H   -0.017181
   114  H    0.008643
   115  H   -0.029239
   116  H    0.067935
   117  H    0.015580
   118  H    0.081311
   119  H    0.105713
   120  H    0.089194
   121  N   -0.596303
   122  C    0.317153
   123  C    0.387040
   124  O   -0.483367
   125  C   -0.115609
   126  O   -0.492633
   127  H    0.340332
   128  H    0.025825
   129  H    0.086093
   130  H    0.066910
   131  H    0.432634
   132  N   -0.307471
   133  C    0.352491
   134  C    0.479107
   135  O   -0.521582
   136  C   -0.471806
   137  H    0.165208
   138  H    0.024724
   139  H    0.116375
   140  H    0.102781
   141  H    0.143162
   142  N   -0.517064
   143  C    0.161049
   144  C    0.613291
   145  O   -0.580685
   146  C   -0.330255
   147  H    0.333494
   148  H    0.134895
   149  H    0.101573
   150  H    0.085047
   151  H    0.100626
   152  N   -0.481641
   153  C   -0.611664
   154  C    0.747569
   155  O   -0.579449
   156  C    0.703114
   157  C   -0.284779
   158  C    0.689972
   159  O   -0.656842
   160  O   -0.694773
   161  H    0.306378
   162  H    0.097823
   163  H   -0.094345
   164  H   -0.251714
   165  H    0.041039
   166  H    0.011567
   167  N   -0.383085
   168  C   -0.099971
   169  H    0.077596
   170  H    0.104660
   171  H    0.055599
   172  H    0.292420
   173  Ca   1.549175
   174  O   -0.851382
   175  H    0.391968
   176  H    0.455143
 Sum of ESP charges =   0.00000

 Normal termination of Gaussian 16 at Wed Sep 18 00:00:26 2019.
