 Gaussian 16, Revision A.03,
 Gaussian 16:  ES64L-G16RevA.03 25-Dec-2016

 ----------------------------------------------------------------------
 #b3lyp/svp scf=(tight,noincore) Test #IOP(5/87=12) Density=Current Pop
 =(MK,readradii) iop(6/33=2) iop(6/42=6)
 ----------------------------------------------------------------------

 -----------------
 Ng-293_loop3_55.0
 -----------------
 Symbolic Z-matrix:
 Charge =  0 Multiplicity = 1

                         Standard orientation:
 ---------------------------------------------------------------------
 Center     Atomic      Atomic             Coordinates (Angstroms)
 Number     Number       Type             X           Y           Z
 ---------------------------------------------------------------------
      1          6           0       -9.082335    4.281844   -4.694218
      2          6           0       -9.054496    4.129197   -3.176778
      3          8           0       -8.105483    4.535334   -2.528992
      4          1           0       -8.133369    4.696243   -5.035109
      5          1           0       -9.239176    3.306633   -5.155184
      6          1           0       -9.893631    4.952524   -4.977826
      7          7           0      -10.075028    3.503602   -2.563960
      8          6           0      -10.134734    2.841963   -1.276222
      9          6           0       -9.213579    1.653275   -1.065996
     10          8           0       -8.068218    1.694029   -1.497489
     11          6           0       -9.931738    3.807601   -0.111991
     12          6           0      -10.432943    5.209695   -0.410534
     13          8           0      -11.588268    5.365643   -0.874758
     14          8           0       -9.784921    6.189120    0.018061
     15          1           0      -10.841870    3.279204   -3.174532
     16          1           0      -11.176616    2.514519   -1.257163
     17          1           0       -8.869464    3.742343    0.160617
     18          1           0      -10.508069    3.459906    0.752735
     19          7           0       -9.637292    0.604476   -0.356709
     20          6           0       -8.829314   -0.401022    0.308306
     21          6           0       -7.721953   -0.009852    1.269782
     22          8           0       -7.595189    1.165661    1.604893
     23          6           0       -8.326710   -1.434422   -0.689980
     24          6           0       -9.467755   -2.056422   -1.477148
     25          6           0       -9.196391   -3.170427   -2.486878
     26          6           0      -10.508511   -3.645887   -3.103871
     27          7           0      -10.272604   -4.321351   -4.388782
     28          1           0      -10.644051    0.484277   -0.366213
     29          1           0       -9.622469   -0.896173    0.869314
     30          1           0       -7.723481   -2.200621   -0.185941
     31          1           0       -7.675338   -1.008495   -1.454963
     32          1           0      -10.021963   -1.290367   -2.026979
     33          1           0      -10.114943   -2.372426   -0.662171
     34          1           0       -8.687694   -4.019874   -2.037916
     35          1           0       -8.499569   -2.646340   -3.131450
     36          1           0      -11.257917   -2.856165   -3.109333
     37          1           0      -10.998087   -4.364071   -2.439924
     38          1           0       -9.396082   -4.825938   -4.398816
     39          1           0      -10.972766   -4.985877   -4.697293
     40          1           0      -10.224305   -3.522191   -5.007821
     41          7           0       -6.968002   -0.954468    1.837461
     42          6           0       -5.938976   -0.789509    2.846814
     43          6           0       -4.816332    0.122628    2.355515
     44          8           0       -4.309024   -0.005905    1.241505
     45          6           0       -5.391174   -2.165490    3.182057
     46          6           0       -4.280162   -2.099680    4.220527
     47          8           0       -3.117970   -2.475621    3.919731
     48          8           0       -4.378938   -1.530226    5.325003
     49          1           0       -7.255237   -1.892924    1.624631
     50          1           0       -6.491317   -0.355468    3.688912
     51          1           0       -4.852489   -2.451210    2.279016
     52          1           0       -6.148875   -2.861816    3.552352
     53          7           0       -4.312015    0.998330    3.220217
     54          6           0       -3.195922    1.873181    2.905459
     55          6           0       -1.979373    1.027938    2.539848
     56          8           0       -1.430084    0.242937    3.313770
     57          1           0       -4.709911    1.000052    4.143838
     58          1           0       -2.929273    2.540311    3.732584
     59          1           0       -3.399432    2.521704    2.056635
     60          7           0       -1.381125    1.293246    1.384379
     61          6           0       -0.075327    0.838271    0.949302
     62          6           0        1.020551    1.709089    1.543210
     63          8           0        2.056806    1.119569    1.848569
     64          6           0        0.137606    0.798512   -0.565287
     65          6           0       -0.642008   -0.178548   -1.436123
     66          7           0       -0.169503   -1.422552   -1.548779
     67          8           0       -1.544701    0.133595   -2.206910
     68          1           0       -1.777084    2.037795    0.820585
     69          1           0        0.171267   -0.178793    1.242680
     70          1           0        1.167201    0.463681   -0.713348
     71          1           0       -0.034548    1.771807   -1.014686
     72          1           0        0.573502   -1.689605   -0.909774
     73          1           0       -0.599260   -2.101889   -2.157392
     74          7           0        0.842136    2.963229    1.951008
     75          6           0        1.918277    3.740725    2.543732
     76          6           0        2.976630    4.092507    1.513665
     77          8           0        2.682201    4.311116    0.339560
     78          1           0       -0.054047    3.384803    1.737161
     79          1           0        2.336208    3.229840    3.412024
     80          1           0        1.527779    4.673291    2.948246
     81          7           0        4.231830    4.143907    1.959681
     82          6           0        5.423883    4.246158    1.139038
     83          6           0        5.762108    3.093611    0.194454
     84          8           0        6.858501    2.972370   -0.334812
     85          6           0        5.526409    5.619619    0.464877
     86          6           0        6.883019    6.066385   -0.016901
     87          6           0        7.012408    6.387412   -1.379656
     88          6           0        7.968917    6.040840    0.870495
     89          6           0        8.312832    6.588810   -1.855299
     90          6           0        9.264807    6.307139    0.422552
     91          6           0        9.400484    6.552071   -0.959439
     92          8           0       10.599376    6.801219   -1.563578
     93          1           0        4.345998    3.961504    2.947251
     94          1           0        6.275898    4.189258    1.808913
     95          1           0        5.208910    6.355782    1.197105
     96          1           0        4.863883    5.678501   -0.395235
     97          1           0        6.237361    6.319678   -2.123977
     98          1           0        7.730341    5.938699    1.919136
     99          1           0        8.542462    6.791220   -2.887626
    100          1           0       10.109212    6.381533    1.090420
    101          1           0       11.293094    6.866816   -0.899762
    102          7           0        4.750746    2.251301   -0.001152
    103          6           0        4.615775    1.023931   -0.757622
    104          6           0        5.520035   -0.118032   -0.316676
    105          8           0        5.013438   -1.176999    0.041858
    106          6           0        4.657052    1.242305   -2.273343
    107          6           0        3.839095    2.451734   -2.713830
    108          6           0        4.288478   -0.054180   -2.978309
    109          6           0        3.926184    2.679666   -4.226398
    110          1           0        3.883125    2.519245    0.438440
    111          1           0        3.613999    0.670547   -0.544866
    112          1           0        5.700873    1.453106   -2.506156
    113          1           0        4.292361    3.315386   -2.244411
    114          1           0        2.790681    2.320600   -2.433773
    115          1           0        4.016043   -0.083867   -4.036373
    116          1           0        5.166626   -0.687800   -3.064815
    117          1           0        3.466221   -0.500166   -2.428955
    118          1           0        4.990866    2.739294   -4.462610
    119          1           0        3.400604    1.846213   -4.688158
    120          1           0        3.353874    3.579259   -4.442253
    121          7           0        6.833552    0.104018   -0.188745
    122          6           0        7.762939   -0.860366    0.363710
    123          6           0        7.844717   -2.220258   -0.317543
    124          8           0        8.268062   -3.189993    0.309030
    125          6           0        9.136838   -0.196801    0.495935
    126          8           0        9.061110    1.084915    1.072537
    127          1           0        7.194201    1.041218   -0.087310
    128          1           0        7.486053   -0.987602    1.410727
    129          1           0        9.563321   -0.003488   -0.482861
    130          1           0        9.808035   -0.825226    1.085406
    131          1           0        9.908572    1.481423    0.877889
    132          7           0        7.453435   -2.321772   -1.587777
    133          6           0        7.259758   -3.566273   -2.295665
    134          6           0        6.320941   -4.551770   -1.620448
    135          8           0        6.441195   -5.747422   -1.867944
    136          6           0        8.639133   -4.091880   -2.697614
    137          1           0        7.272134   -1.437504   -2.046689
    138          1           0        6.815305   -3.249226   -3.237601
    139          1           0        9.303581   -4.292480   -1.848103
    140          1           0        8.550730   -4.958551   -3.352951
    141          1           0        9.208217   -3.492970   -3.393998
    142          7           0        5.498629   -4.120061   -0.654616
    143          6           0        4.447760   -4.990645   -0.158674
    144          6           0        3.142207   -4.688189   -0.882449
    145          8           0        2.895151   -3.589063   -1.386221
    146          6           0        4.331612   -4.763368    1.347565
    147          1           0        5.271177   -3.160521   -0.449070
    148          1           0        4.732746   -6.033454   -0.249956
    149          1           0        4.304666   -3.692398    1.505351
    150          1           0        3.303522   -4.973922    1.636526
    151          1           0        5.081792   -5.353092    1.877336
    152          7           0        2.226182   -5.642986   -0.726691
    153          6           0        0.814186   -5.610240   -1.052564
    154          6           0        0.474632   -5.391176   -2.523929
    155          8           0       -0.527484   -4.800260   -2.917223
    156          6           0        0.121444   -4.599833   -0.139829
    157          6           0        0.095091   -5.068109    1.314036
    158          6           0       -0.204897   -3.961924    2.319353
    159          8           0       -0.624990   -4.285940    3.442979
    160          8           0       -0.306355   -2.742423    2.062788
    161          1           0        2.584809   -6.562673   -0.516779
    162          1           0        0.428639   -6.600641   -0.852918
    163          1           0       -0.886586   -4.381085   -0.492427
    164          1           0        0.690522   -3.670106   -0.221428
    165          1           0        1.012502   -5.520935    1.694834
    166          1           0       -0.675972   -5.837319    1.401649
    167          7           0        1.303969   -5.781435   -3.495473
    168          6           0        1.213877   -5.375169   -4.877259
    169          1           0        2.137396   -4.874894   -5.169009
    170          1           0        1.062892   -6.253275   -5.505216
    171          1           0        0.374516   -4.690723   -5.000963
    172          1           0        2.155000   -6.313853   -3.336168
    173         20           0       -0.676746   -1.977895    4.651302
    174          8           0        1.148851   -3.428770    5.804366
    175          1           0        1.462277   -4.182093    5.310232
    176          1           0        1.849606   -3.235500    6.422904
 ---------------------------------------------------------------------

 SCF Done:  E(RB3LYP) =  -5333.28892797     A.U. after   42 cycles

 The electronic state is 1-A.
 Alpha  occ. eigenvalues -- -145.44322 -19.22455 -19.16212 -19.14535 -19.12614
 Alpha  occ. eigenvalues --  -19.12586 -19.11572 -19.10905 -19.10629 -19.10426
 Alpha  occ. eigenvalues --  -19.09101 -19.08758 -19.08231 -19.07624 -19.07125
 Alpha  occ. eigenvalues --  -19.06026 -19.05283 -19.05156 -19.04760 -19.02718
 Alpha  occ. eigenvalues --  -19.01614 -19.01581 -18.95686 -18.95604 -15.50174
 Alpha  occ. eigenvalues --  -14.54851 -14.38983 -14.38878 -14.37575 -14.36590
 Alpha  occ. eigenvalues --  -14.35851 -14.35414 -14.35140 -14.34999 -14.34590
 Alpha  occ. eigenvalues --  -14.34017 -14.33609 -14.33168 -14.31697 -14.28507
 Alpha  occ. eigenvalues --  -12.63775 -12.63744 -12.63707 -10.33083 -10.31384
 Alpha  occ. eigenvalues --  -10.31023 -10.30201 -10.29603 -10.28942 -10.28614
 Alpha  occ. eigenvalues --  -10.28251 -10.28036 -10.27324 -10.26868 -10.26683
 Alpha  occ. eigenvalues --  -10.26429 -10.26076 -10.25861 -10.25462 -10.24967
 Alpha  occ. eigenvalues --  -10.24961 -10.24723 -10.24602 -10.24512 -10.24021
 Alpha  occ. eigenvalues --  -10.23983 -10.23976 -10.23580 -10.23474 -10.23218
 Alpha  occ. eigenvalues --  -10.22581 -10.22521 -10.22179 -10.22099 -10.21489
 Alpha  occ. eigenvalues --  -10.21288 -10.20196 -10.20066 -10.19709 -10.19618
 Alpha  occ. eigenvalues --  -10.19552 -10.19134 -10.19098 -10.18731 -10.18640
 Alpha  occ. eigenvalues --  -10.18367 -10.18074 -10.17338 -10.17242 -10.17164
 Alpha  occ. eigenvalues --  -10.17125 -10.17016 -10.16830 -10.16803 -10.15008
 Alpha  occ. eigenvalues --  -10.14250 -10.09935  -1.86821  -1.14191  -1.13935
 Alpha  occ. eigenvalues --   -1.13759  -1.10612  -1.08377  -1.06355  -1.05503
 Alpha  occ. eigenvalues --   -1.04933  -1.04727  -1.04322  -1.03647  -1.03327
 Alpha  occ. eigenvalues --   -1.03109  -1.02410  -1.02218  -1.01338  -1.01063
 Alpha  occ. eigenvalues --   -1.00959  -1.00313  -0.99291  -0.98795  -0.97464
 Alpha  occ. eigenvalues --   -0.95696  -0.95087  -0.94842  -0.93718  -0.93548
 Alpha  occ. eigenvalues --   -0.93227  -0.92781  -0.91868  -0.90822  -0.90556
 Alpha  occ. eigenvalues --   -0.90516  -0.90377  -0.90226  -0.89857  -0.88954
 Alpha  occ. eigenvalues --   -0.86972  -0.86368  -0.85861  -0.85326  -0.85157
 Alpha  occ. eigenvalues --   -0.81961  -0.80745  -0.80612  -0.79889  -0.79667
 Alpha  occ. eigenvalues --   -0.79509  -0.78126  -0.77357  -0.76458  -0.76405
 Alpha  occ. eigenvalues --   -0.75172  -0.75015  -0.74860  -0.74207  -0.73471
 Alpha  occ. eigenvalues --   -0.72851  -0.72766  -0.71805  -0.70372  -0.70146
 Alpha  occ. eigenvalues --   -0.70075  -0.69259  -0.68220  -0.67149  -0.66628
 Alpha  occ. eigenvalues --   -0.66541  -0.66363  -0.65090  -0.64538  -0.64084
 Alpha  occ. eigenvalues --   -0.63396  -0.62945  -0.62834  -0.62634  -0.62125
 Alpha  occ. eigenvalues --   -0.61754  -0.61530  -0.61236  -0.60980  -0.60271
 Alpha  occ. eigenvalues --   -0.59610  -0.59456  -0.59163  -0.58916  -0.58785
 Alpha  occ. eigenvalues --   -0.58668  -0.57994  -0.57678  -0.57413  -0.57334
 Alpha  occ. eigenvalues --   -0.56307  -0.56149  -0.55476  -0.55387  -0.55123
 Alpha  occ. eigenvalues --   -0.54779  -0.54704  -0.54475  -0.54030  -0.53598
 Alpha  occ. eigenvalues --   -0.53221  -0.52831  -0.52693  -0.52348  -0.51809
 Alpha  occ. eigenvalues --   -0.51717  -0.51543  -0.50938  -0.50631  -0.49798
 Alpha  occ. eigenvalues --   -0.49663  -0.49601  -0.49204  -0.49156  -0.48832
 Alpha  occ. eigenvalues --   -0.48512  -0.48430  -0.48298  -0.47691  -0.47491
 Alpha  occ. eigenvalues --   -0.47388  -0.47271  -0.47125  -0.46875  -0.46391
 Alpha  occ. eigenvalues --   -0.46283  -0.46236  -0.46041  -0.45789  -0.45672
 Alpha  occ. eigenvalues --   -0.45592  -0.45163  -0.44864  -0.44657  -0.44449
 Alpha  occ. eigenvalues --   -0.44353  -0.44215  -0.44056  -0.43967  -0.43709
 Alpha  occ. eigenvalues --   -0.43656  -0.43491  -0.43467  -0.43430  -0.43233
 Alpha  occ. eigenvalues --   -0.42796  -0.42587  -0.42567  -0.42270  -0.42238
 Alpha  occ. eigenvalues --   -0.42018  -0.41950  -0.41867  -0.41547  -0.41447
 Alpha  occ. eigenvalues --   -0.41193  -0.41151  -0.41069  -0.40863  -0.40843
 Alpha  occ. eigenvalues --   -0.40545  -0.40429  -0.40298  -0.40091  -0.39934
 Alpha  occ. eigenvalues --   -0.39874  -0.39661  -0.39412  -0.39234  -0.39165
 Alpha  occ. eigenvalues --   -0.39018  -0.38964  -0.38537  -0.38500  -0.38271
 Alpha  occ. eigenvalues --   -0.38180  -0.38147  -0.38037  -0.37943  -0.37739
 Alpha  occ. eigenvalues --   -0.37612  -0.37550  -0.37357  -0.36978  -0.36702
 Alpha  occ. eigenvalues --   -0.36581  -0.36535  -0.36452  -0.36307  -0.36199
 Alpha  occ. eigenvalues --   -0.35948  -0.35933  -0.35778  -0.35574  -0.35381
 Alpha  occ. eigenvalues --   -0.35289  -0.35257  -0.34996  -0.34932  -0.34816
 Alpha  occ. eigenvalues --   -0.34687  -0.34440  -0.34103  -0.33901  -0.33229
 Alpha  occ. eigenvalues --   -0.33126  -0.32875  -0.32826  -0.32722  -0.32529
 Alpha  occ. eigenvalues --   -0.32389  -0.32198  -0.31849  -0.30744  -0.30543
 Alpha  occ. eigenvalues --   -0.30309  -0.30288  -0.29528  -0.29146  -0.28904
 Alpha  occ. eigenvalues --   -0.28847  -0.28601  -0.28159  -0.28047  -0.27127
 Alpha  occ. eigenvalues --   -0.26715  -0.26431  -0.26332  -0.26295  -0.26189
 Alpha  occ. eigenvalues --   -0.26098  -0.25351  -0.25198  -0.25010  -0.24914
 Alpha  occ. eigenvalues --   -0.24865  -0.24538  -0.24461  -0.24349  -0.24175
 Alpha  occ. eigenvalues --   -0.23851  -0.23758  -0.23522  -0.23275  -0.22595
 Alpha  occ. eigenvalues --   -0.22575  -0.22068  -0.21758  -0.21663  -0.21613
 Alpha  occ. eigenvalues --   -0.20008  -0.19529  -0.18445  -0.17163  -0.16531
 Alpha  occ. eigenvalues --   -0.12946  -0.12401  -0.09638
 Alpha virt. eigenvalues --   -0.08669  -0.08211  -0.02564  -0.02256  -0.02130
 Alpha virt. eigenvalues --   -0.01915  -0.01219  -0.00782  -0.00401   0.00057
 Alpha virt. eigenvalues --    0.00257   0.00337   0.00401   0.01044   0.01369

 Mulliken charges:
               1
     1  C    0.048476
     2  C    0.039101
     3  O   -0.247314
     4  H    0.022818
     5  H   -0.012519
     6  H    0.027428
     7  N   -0.116961
     8  C    0.105324
     9  C    0.061746
    10  O   -0.248903
    11  C    0.095697
    12  C    0.074622
    13  O   -0.377942
    14  O   -0.316913
    15  H    0.080059
    16  H   -0.058690
    17  H    0.009388
    18  H   -0.018590
    19  N   -0.141221
    20  C    0.108888
    21  C    0.122298
    22  O   -0.241848
    23  C    0.068937
    24  C   -0.066649
    25  C    0.011440
    26  C    0.038861
    27  N    0.164532
    28  H    0.111543
    29  H   -0.010046
    30  H   -0.017462
    31  H    0.037057
    32  H    0.006292
    33  H   -0.022490
    34  H    0.025240
    35  H    0.041377
    36  H    0.061093
    37  H    0.042183
    38  H    0.121176
    39  H    0.087961
    40  H    0.118668
    41  N   -0.121746
    42  C    0.115790
    43  C    0.089384
    44  O   -0.273177
    45  C    0.084044
    46  C    0.054045
    47  O   -0.439617
    48  O   -0.382129
    49  H    0.104465
    50  H   -0.001696
    51  H    0.020740
    52  H    0.010929
    53  N   -0.110300
    54  C    0.227292
    55  C    0.109236
    56  O   -0.387210
    57  H    0.125274
    58  H    0.028780
    59  H    0.017138
    60  N   -0.092790
    61  C    0.153135
    62  C    0.041052
    63  O   -0.304206
    64  C    0.002393
    65  C    0.030634
    66  N   -0.062523
    67  O   -0.252844
    68  H    0.137078
    69  H    0.028039
    70  H    0.039253
    71  H    0.016683
    72  H    0.139349
    73  H    0.139635
    74  N   -0.109058
    75  C    0.227982
    76  C    0.019901
    77  O   -0.274344
    78  H    0.112592
    79  H    0.005061
    80  H    0.035311
    81  N   -0.127971
    82  C    0.080221
    83  C    0.084925
    84  O   -0.282144
    85  C    0.160698
    86  C   -0.014019
    87  C    0.006171
    88  C    0.004207
    89  C   -0.012472
    90  C   -0.032210
    91  C    0.144285
    92  O   -0.201351
    93  H    0.121646
    94  H    0.011704
    95  H   -0.004505
    96  H    0.017331
    97  H   -0.021384
    98  H   -0.036897
    99  H   -0.024229
   100  H   -0.045240
   101  H    0.167387
   102  N   -0.116629
   103  C    0.203656
   104  C    0.057776
   105  O   -0.270396
   106  C   -0.146387
   107  C    0.027159
   108  C    0.084990
   109  C    0.040941
   110  H    0.134737
   111  H   -0.006208
   112  H   -0.017177
   113  H    0.003022
   114  H   -0.006074
   115  H    0.003584
   116  H   -0.029899
   117  H    0.028014
   118  H    0.007765
   119  H    0.011559
   120  H    0.011038
   121  N   -0.139001
   122  C    0.095288
   123  C    0.056136
   124  O   -0.271955
   125  C    0.209837
   126  O   -0.298181
   127  H    0.147001
   128  H    0.009212
   129  H   -0.020578
   130  H    0.017171
   131  H    0.168698
   132  N   -0.139314
   133  C    0.097095
   134  C    0.095162
   135  O   -0.281746
   136  C    0.070053
   137  H    0.122792
   138  H    0.010618
   139  H    0.038689
   140  H    0.004933
   141  H   -0.023859
   142  N   -0.120169
   143  C    0.027891
   144  C    0.070621
   145  O   -0.267493
   146  C    0.101283
   147  H    0.147206
   148  H    0.003279
   149  H    0.009421
   150  H   -0.027746
   151  H    0.041928
   152  N   -0.126292
   153  C    0.104752
   154  C    0.083877
   155  O   -0.284744
   156  C    0.028568
   157  C    0.056833
   158  C    0.084045
   159  O   -0.442058
   160  O   -0.398609
   161  H    0.118750
   162  H    0.000044
   163  H    0.033031
   164  H    0.021066
   165  H   -0.015533
   166  H    0.008708
   167  N   -0.149869
   168  C    0.113399
   169  H    0.023204
   170  H    0.014290
   171  H    0.050687
   172  H    0.103415
   173  Ca   1.391134
   174  O   -0.315023
   175  H    0.201388
   176  H    0.184804
 Sum of Mulliken charges =  -0.00000

 Dipole moment (field-independent basis, Debye):
    X=             10.1432    Y=            -28.3406    Z=              1.0282  Tot=             30.1186
 Quadrupole moment (field-independent basis, Debye-Ang):
   XX=           -524.1220   YY=           -608.5209   ZZ=           -428.8324
   XY=            390.1241   XZ=            168.6242   YZ=             94.9357

 ESP charges:
               1
     1  C   -0.426536
     2  C    0.740537
     3  O   -0.537519
     4  H    0.118689
     5  H    0.069021
     6  H    0.112098
     7  N   -0.621169
     8  C    0.233445
     9  C    0.317560
    10  O   -0.405150
    11  C   -0.408161
    12  C    0.819074
    13  O   -0.673091
    14  O   -0.635762
    15  H    0.294384
    16  H    0.027996
    17  H    0.165344
    18  H    0.075074
    19  N   -0.362923
    20  C   -0.096141
    21  C    0.713665
    22  O   -0.535232
    23  C   -0.077970
    24  C    0.324823
    25  C   -0.350251
    26  C    0.271870
    27  N   -0.318884
    28  H    0.244724
    29  H    0.090677
    30  H    0.012466
    31  H    0.052626
    32  H   -0.038577
    33  H   -0.086360
    34  H    0.083872
    35  H    0.098675
    36  H    0.016401
    37  H    0.018607
    38  H    0.261429
    39  H    0.225329
    40  H    0.240501
    41  N   -0.632109
    42  C    0.162858
    43  C    0.624414
    44  O   -0.499692
    45  C   -0.164669
    46  C    0.657504
    47  O   -0.701291
    48  O   -0.726895
    49  H    0.279409
    50  H    0.024425
    51  H    0.059937
    52  H    0.077676
    53  N   -0.404987
    54  C   -0.166938
    55  C    0.541663
    56  O   -0.603139
    57  H    0.292462
    58  H    0.125851
    59  H    0.125991
    60  N   -0.504674
    61  C    0.711480
    62  C    0.232207
    63  O   -0.502232
    64  C   -0.568314
    65  C    0.738800
    66  N   -0.763262
    67  O   -0.567957
    68  H    0.267612
    69  H   -0.086812
    70  H    0.224193
    71  H    0.120116
    72  H    0.305761
    73  H    0.383993
    74  N   -0.340274
    75  C   -0.054848
    76  C    0.816711
    77  O   -0.612512
    78  H    0.252853
    79  H    0.076549
    80  H    0.080582
    81  N   -0.986767
    82  C    0.714481
    83  C    0.273606
    84  O   -0.496529
    85  C   -0.078096
    86  C    0.011580
    87  C   -0.204687
    88  C   -0.165366
    89  C   -0.176442
    90  C   -0.282181
    91  C    0.339177
    92  O   -0.546481
    93  H    0.382264
    94  H   -0.059133
    95  H    0.026770
    96  H    0.047938
    97  H    0.161607
    98  H    0.128221
    99  H    0.145472
   100  H    0.145190
   101  H    0.400426
   102  N   -0.298103
   103  C   -0.039079
   104  C    0.543844
   105  O   -0.469434
   106  C    0.410901
   107  C    0.284713
   108  C   -0.442209
   109  C   -0.416032
   110  H    0.203013
   111  H   -0.021255
   112  H   -0.099173
   113  H   -0.058671
   114  H   -0.049632
   115  H    0.116246
   116  H    0.096699
   117  H    0.056859
   118  H    0.083327
   119  H    0.082572
   120  H    0.099145
   121  N   -0.389005
   122  C    0.090473
   123  C    0.304847
   124  O   -0.482120
   125  C    0.279005
   126  O   -0.611269
   127  H    0.269489
   128  H    0.080963
   129  H   -0.023569
   130  H   -0.001003
   131  H    0.402224
   132  N   -0.413090
   133  C    0.343911
   134  C    0.284059
   135  O   -0.528209
   136  C   -0.201979
   137  H    0.227583
   138  H    0.020498
   139  H    0.091956
   140  H    0.044425
   141  H    0.041407
   142  N   -0.179412
   143  C    0.575450
   144  C    0.158706
   145  O   -0.383170
   146  C   -0.478420
   147  H    0.043187
   148  H   -0.044798
   149  H    0.129015
   150  H    0.091582
   151  H    0.127628
   152  N   -0.376807
   153  C   -0.232829
   154  C    0.492266
   155  O   -0.515729
   156  C    0.273728
   157  C    0.090397
   158  C    0.599022
   159  O   -0.744904
   160  O   -0.715255
   161  H    0.279626
   162  H    0.101647
   163  H   -0.041229
   164  H    0.028131
   165  H   -0.064264
   166  H   -0.002510
   167  N   -0.291723
   168  C   -0.035261
   169  H    0.056585
   170  H    0.029142
   171  H    0.085746
   172  H    0.245862
   173  Ca   1.643193
   174  O   -0.836790
   175  H    0.412805
   176  H    0.446396
 Sum of ESP charges =   0.00000

 Normal termination of Gaussian 16 at Tue Sep 17 11:44:26 2019.
