 Gaussian 16, Revision A.03,
 Gaussian 16:  ES64L-G16RevA.03 25-Dec-2016

 ----------------------------------------------------------------------
 #b3lyp/svp scf=(tight,noincore) Test #IOP(5/87=12) Density=Current Pop
 =(MK,readradii) iop(6/33=2) iop(6/42=6)
 ----------------------------------------------------------------------

 -----------------
 Ng-295_loop3_36.0
 -----------------
 Symbolic Z-matrix:
 Charge =  0 Multiplicity = 1

                         Standard orientation:
 ---------------------------------------------------------------------
 Center     Atomic      Atomic             Coordinates (Angstroms)
 Number     Number       Type             X           Y           Z
 ---------------------------------------------------------------------
      1          6           0       12.776871   -3.220440    3.796068
      2          6           0       11.806792   -2.964303    2.660842
      3          8           0       11.909257   -3.512797    1.573756
      4          1           0       12.573819   -4.198017    4.233217
      5          1           0       13.797514   -3.198914    3.413976
      6          1           0       12.657155   -2.449702    4.558224
      7          7           0       10.787347   -2.128605    2.873306
      8          6           0        9.694817   -1.892621    1.946166
      9          6           0       10.126397   -1.147794    0.681582
     10          8           0       10.825918   -0.155781    0.829835
     11          6           0        8.502957   -1.288144    2.669130
     12          6           0        7.237937   -1.083598    1.852255
     13          8           0        6.110625   -1.221088    2.395729
     14          8           0        7.315121   -0.736833    0.654384
     15          1           0       10.668993   -1.673468    3.765631
     16          1           0        9.395939   -2.897178    1.662902
     17          1           0        8.750475   -0.332512    3.135610
     18          1           0        8.213483   -2.002814    3.444534
     19          7           0        9.809422   -1.590735   -0.536380
     20          6           0       10.289069   -1.092602   -1.812429
     21          6           0        9.641197    0.215248   -2.238092
     22          8           0       10.122934    0.750376   -3.237326
     23          6           0       10.023225   -2.222113   -2.809692
     24          6           0       10.906153   -3.467070   -2.882621
     25          6           0       12.311653   -3.026025   -3.235395
     26          6           0       13.264624   -4.206168   -3.432392
     27          7           0       13.533934   -4.985267   -2.207534
     28          1           0        9.183660   -2.378571   -0.521013
     29          1           0       11.359084   -0.903954   -1.734453
     30          1           0        9.942879   -1.817417   -3.821209
     31          1           0        8.956696   -2.412500   -2.678659
     32          1           0       10.640573   -4.151753   -3.690071
     33          1           0       10.944482   -3.957463   -1.904129
     34          1           0       12.652857   -2.454113   -2.370816
     35          1           0       12.394334   -2.343462   -4.082255
     36          1           0       14.191263   -3.825725   -3.869545
     37          1           0       12.930164   -4.911334   -4.183843
     38          1           0       14.253090   -5.654628   -2.469585
     39          1           0       14.004992   -4.395551   -1.539223
     40          1           0       12.749321   -5.517322   -1.872572
     41          7           0        8.590005    0.674324   -1.556003
     42          6           0        8.240477    2.074426   -1.625603
     43          6           0        7.964240    2.756809   -0.301501
     44          8           0        8.017408    3.989721   -0.301222
     45          6           0        7.074648    2.388436   -2.559006
     46          6           0        5.995570    1.325059   -2.475215
     47          8           0        5.566844    0.807659   -3.536436
     48          8           0        5.523290    0.868427   -1.407068
     49          1           0        8.212231    0.092920   -0.817250
     50          1           0        9.112305    2.599326   -2.016623
     51          1           0        7.521038    2.545495   -3.543571
     52          1           0        6.577207    3.335205   -2.329923
     53          7           0        7.574757    2.043954    0.756914
     54          6           0        7.050020    2.572501    2.003024
     55          6           0        5.645639    3.138956    1.929252
     56          8           0        5.199048    3.716263    2.916102
     57          1           0        7.551472    1.033628    0.689092
     58          1           0        7.774002    3.363603    2.172163
     59          1           0        6.968466    1.742628    2.709890
     60          7           0        4.985193    2.956491    0.775164
     61          6           0        3.548916    3.074906    0.666141
     62          6           0        2.811012    1.943466    1.385751
     63          8           0        3.206278    0.791074    1.323641
     64          6           0        3.071424    3.300214   -0.758408
     65          6           0        1.684228    2.785949   -1.117043
     66          7           0        1.492221    1.548749   -1.589662
     67          8           0        0.707888    3.469150   -0.818053
     68          1           0        5.478526    2.554508   -0.011494
     69          1           0        3.380055    4.043791    1.125323
     70          1           0        3.772094    2.811241   -1.446860
     71          1           0        2.994124    4.374545   -0.919465
     72          1           0        2.232500    0.875041   -1.721964
     73          1           0        0.524150    1.301212   -1.726285
     74          7           0        1.760131    2.366510    2.094329
     75          6           0        0.777330    1.452904    2.629893
     76          6           0       -0.608834    2.089296    2.575536
     77          8           0       -1.395162    1.833524    3.482657
     78          1           0        1.578483    3.364030    2.101829
     79          1           0        0.990626    1.277439    3.679853
     80          1           0        0.730484    0.601896    1.948505
     81          7           0       -0.880433    2.859290    1.519533
     82          6           0       -2.162519    3.463915    1.224431
     83          6           0       -3.052237    2.553422    0.373839
     84          8           0       -2.805542    2.375807   -0.814476
     85          6           0       -2.029494    4.805556    0.510916
     86          6           0       -3.329645    5.546395    0.288059
     87          6           0       -3.880786    5.794877   -0.975745
     88          6           0       -3.994504    6.112572    1.375582
     89          6           0       -5.094459    6.462706   -1.140368
     90          6           0       -5.118756    6.948159    1.264449
     91          6           0       -5.677028    7.083400   -0.017402
     92          8           0       -6.813568    7.838401   -0.094552
     93          1           0       -0.223996    3.017700    0.775962
     94          1           0       -2.710583    3.597729    2.152827
     95          1           0       -1.649654    4.571138   -0.484408
     96          1           0       -1.263263    5.475881    0.900345
     97          1           0       -3.384661    5.427509   -1.858809
     98          1           0       -3.455726    6.095371    2.312344
     99          1           0       -5.482689    6.739054   -2.111455
    100          1           0       -5.517900    7.350835    2.186857
    101          1           0       -7.212398    7.980879    0.775927
    102          7           0       -4.029228    1.950909    1.060692
    103          6           0       -4.849720    0.857609    0.587313
    104          6           0       -5.740030    1.365632   -0.530882
    105          8           0       -5.591192    2.518105   -0.928066
    106          6           0       -3.986984   -0.367688    0.277096
    107          6           0       -4.711270   -1.694502    0.111640
    108          6           0       -2.964228   -0.559910    1.400493
    109          6           0       -3.970824   -2.811909   -0.616674
    110          1           0       -4.172156    2.244872    2.020982
    111          1           0       -5.488714    0.623722    1.431874
    112          1           0       -3.441441   -0.304133   -0.669711
    113          1           0       -5.699264   -1.578309   -0.337880
    114          1           0       -4.959741   -2.049572    1.119006
    115          1           0       -3.420854   -0.369135    2.367549
    116          1           0       -2.590129   -1.574672    1.480544
    117          1           0       -2.197758    0.173409    1.150757
    118          1           0       -4.300287   -2.836561   -1.650573
    119          1           0       -2.890381   -2.674060   -0.623023
    120          1           0       -4.170753   -3.781321   -0.151089
    121          7           0       -6.748753    0.577856   -0.918678
    122          6           0       -7.605727    0.890918   -2.045749
    123          6           0       -9.102786    0.950146   -1.781540
    124          8           0       -9.834058    1.353364   -2.681738
    125          6           0       -7.336426   -0.078654   -3.194142
    126          8           0       -7.659266   -1.350423   -2.677829
    127          1           0       -6.809452   -0.241532   -0.341254
    128          1           0       -7.384091    1.827770   -2.548329
    129          1           0       -6.289160    0.023299   -3.482999
    130          1           0       -8.055255    0.039559   -4.006492
    131          1           0       -7.286248   -1.980931   -3.290705
    132          7           0       -9.484597    0.455602   -0.599912
    133          6           0      -10.809011    0.169351   -0.097926
    134          6           0      -11.826141   -0.184788   -1.164242
    135          8           0      -12.771117    0.527783   -1.505216
    136          6           0      -11.172345    1.479116    0.593163
    137          1           0       -8.728939    0.051257   -0.079061
    138          1           0      -10.722726   -0.683003    0.583944
    139          1           0      -12.150501    1.303255    1.052493
    140          1           0      -10.502206    1.791744    1.403210
    141          1           0      -11.397551    2.257498   -0.134851
    142          7           0      -11.803951   -1.380906   -1.779800
    143          6           0      -10.882344   -2.467011   -1.523836
    144          6           0      -11.514665   -3.452927   -0.562203
    145          8           0      -12.683674   -3.790254   -0.743109
    146          6           0      -10.392801   -3.044065   -2.850620
    147          1           0      -12.448976   -1.427291   -2.552646
    148          1           0      -10.012192   -2.057255   -1.014390
    149          1           0       -9.586280   -3.761248   -2.703061
    150          1           0      -11.227563   -3.567937   -3.311848
    151          1           0      -10.082824   -2.261679   -3.549252
    152          7           0      -10.833278   -4.008853    0.440423
    153          6           0       -9.453871   -3.850816    0.843113
    154          6           0       -9.368806   -3.840959    2.365632
    155          8           0       -8.519472   -3.126638    2.889442
    156          6           0       -8.622143   -5.016655    0.327218
    157          6           0       -7.123812   -4.692117    0.358512
    158          6           0       -6.304294   -5.891509   -0.097173
    159          8           0       -6.612859   -6.397861   -1.197626
    160          8           0       -5.252460   -6.175549    0.515906
    161          1           0      -11.459048   -4.595173    0.986629
    162          1           0       -8.974314   -2.985359    0.376305
    163          1           0       -8.914314   -5.280730   -0.693027
    164          1           0       -8.801065   -5.892839    0.942025
    165          1           0       -6.871914   -4.396863    1.376340
    166          1           0       -6.928106   -3.786821   -0.201790
    167          7           0      -10.288933   -4.507083    3.063447
    168          6           0      -10.302825   -4.566347    4.515754
    169          1           0      -10.066291   -5.579522    4.839681
    170          1           0       -9.560856   -3.875593    4.915135
    171          1           0      -11.291376   -4.290116    4.881941
    172          1           0      -10.866238   -5.160386    2.559051
    173         20           0        4.826996   -1.321584   -0.001677
    174          8           0        5.546271   -3.636207    1.016786
    175          1           0        6.475196   -3.852376    1.119584
    176          1           0        5.093922   -4.299184    1.532191
 ---------------------------------------------------------------------

 SCF Done:  E(RB3LYP) =  -5333.32521668     A.U. after   86 cycles

 The electronic state is 1-A.
 Alpha  occ. eigenvalues -- -145.49046 -19.24629 -19.14901 -19.14458 -19.14310
 Alpha  occ. eigenvalues --  -19.13298 -19.13155 -19.12637 -19.12122 -19.11059
 Alpha  occ. eigenvalues --  -19.10791 -19.09027 -19.08927 -19.08238 -19.08100
 Alpha  occ. eigenvalues --  -19.07184 -19.06940 -19.06842 -19.06678 -19.05779
 Alpha  occ. eigenvalues --  -19.05130 -19.03818 -18.99172 -18.98852 -15.54890
 Alpha  occ. eigenvalues --  -14.60409 -14.40446 -14.39417 -14.38095 -14.37186
 Alpha  occ. eigenvalues --  -14.36016 -14.34631 -14.34496 -14.34431 -14.34203
 Alpha  occ. eigenvalues --  -14.34015 -14.33601 -14.33180 -14.33128 -14.31046
 Alpha  occ. eigenvalues --  -12.68498 -12.68463 -12.68427 -10.37330 -10.33457
 Alpha  occ. eigenvalues --  -10.33195 -10.31727 -10.31350 -10.30486 -10.29673
 Alpha  occ. eigenvalues --  -10.29670 -10.28542 -10.28210 -10.28047 -10.27812
 Alpha  occ. eigenvalues --  -10.27711 -10.27185 -10.26166 -10.25856 -10.25692
 Alpha  occ. eigenvalues --  -10.25399 -10.25343 -10.25308 -10.24949 -10.24745
 Alpha  occ. eigenvalues --  -10.24660 -10.24391 -10.24288 -10.23673 -10.22568
 Alpha  occ. eigenvalues --  -10.22512 -10.22482 -10.21832 -10.21689 -10.21613
 Alpha  occ. eigenvalues --  -10.21184 -10.21066 -10.20908 -10.20880 -10.20845
 Alpha  occ. eigenvalues --  -10.20556 -10.17790 -10.17508 -10.16885 -10.16448
 Alpha  occ. eigenvalues --  -10.16335 -10.16240 -10.16197 -10.16147 -10.15954
 Alpha  occ. eigenvalues --  -10.15942 -10.15352 -10.15291 -10.15080 -10.14209
 Alpha  occ. eigenvalues --  -10.14015 -10.11322  -1.91462  -1.18922  -1.18757
 Alpha  occ. eigenvalues --   -1.18423  -1.15743  -1.10656  -1.09277  -1.08057
 Alpha  occ. eigenvalues --   -1.06666  -1.06228  -1.04379  -1.03684  -1.02066
 Alpha  occ. eigenvalues --   -1.01957  -1.01846  -1.01365  -1.01202  -1.00873
 Alpha  occ. eigenvalues --   -1.00721  -1.00500  -0.99869  -0.99508  -0.98996
 Alpha  occ. eigenvalues --   -0.98415  -0.98322  -0.97047  -0.96482  -0.95218
 Alpha  occ. eigenvalues --   -0.93121  -0.92959  -0.92488  -0.91597  -0.91543
 Alpha  occ. eigenvalues --   -0.91533  -0.91190  -0.91065  -0.90695  -0.90274
 Alpha  occ. eigenvalues --   -0.89900  -0.89284  -0.89107  -0.87738  -0.85313
 Alpha  occ. eigenvalues --   -0.83572  -0.83206  -0.82217  -0.80220  -0.79899
 Alpha  occ. eigenvalues --   -0.79493  -0.78045  -0.77362  -0.76953  -0.76368
 Alpha  occ. eigenvalues --   -0.76216  -0.75788  -0.74443  -0.74414  -0.73908
 Alpha  occ. eigenvalues --   -0.73242  -0.72998  -0.71908  -0.71810  -0.71486
 Alpha  occ. eigenvalues --   -0.70895  -0.70378  -0.69689  -0.68286  -0.67785
 Alpha  occ. eigenvalues --   -0.67471  -0.65939  -0.65801  -0.65051  -0.64094
 Alpha  occ. eigenvalues --   -0.63941  -0.63876  -0.63489  -0.63196  -0.62859
 Alpha  occ. eigenvalues --   -0.62040  -0.61925  -0.61220  -0.60788  -0.60484
 Alpha  occ. eigenvalues --   -0.59738  -0.59562  -0.59027  -0.58673  -0.58507
 Alpha  occ. eigenvalues --   -0.58434  -0.57899  -0.57869  -0.57717  -0.57057
 Alpha  occ. eigenvalues --   -0.56934  -0.56772  -0.56693  -0.56141  -0.56009
 Alpha  occ. eigenvalues --   -0.55894  -0.55520  -0.55206  -0.54944  -0.54523
 Alpha  occ. eigenvalues --   -0.54110  -0.53370  -0.53207  -0.52682  -0.52292
 Alpha  occ. eigenvalues --   -0.52145  -0.52087  -0.52031  -0.51902  -0.51719
 Alpha  occ. eigenvalues --   -0.51224  -0.50888  -0.50762  -0.50290  -0.49936
 Alpha  occ. eigenvalues --   -0.49596  -0.49277  -0.49216  -0.49013  -0.48696
 Alpha  occ. eigenvalues --   -0.48626  -0.48328  -0.48161  -0.48138  -0.47696
 Alpha  occ. eigenvalues --   -0.47372  -0.47132  -0.46953  -0.46324  -0.46277
 Alpha  occ. eigenvalues --   -0.46074  -0.45804  -0.45662  -0.45503  -0.45390
 Alpha  occ. eigenvalues --   -0.45322  -0.45099  -0.44992  -0.44952  -0.44713
 Alpha  occ. eigenvalues --   -0.44627  -0.44614  -0.44249  -0.44172  -0.44103
 Alpha  occ. eigenvalues --   -0.43903  -0.43667  -0.43344  -0.43033  -0.42761
 Alpha  occ. eigenvalues --   -0.42676  -0.42583  -0.42164  -0.41918  -0.41881
 Alpha  occ. eigenvalues --   -0.41769  -0.41729  -0.41566  -0.41256  -0.41212
 Alpha  occ. eigenvalues --   -0.41113  -0.41034  -0.40904  -0.40519  -0.40500
 Alpha  occ. eigenvalues --   -0.40367  -0.40345  -0.39922  -0.39768  -0.39737
 Alpha  occ. eigenvalues --   -0.39569  -0.39205  -0.39025  -0.38867  -0.38734
 Alpha  occ. eigenvalues --   -0.38597  -0.38489  -0.38341  -0.38228  -0.37945
 Alpha  occ. eigenvalues --   -0.37929  -0.37840  -0.37803  -0.37711  -0.37643
 Alpha  occ. eigenvalues --   -0.37266  -0.36896  -0.36444  -0.36361  -0.36241
 Alpha  occ. eigenvalues --   -0.35793  -0.35655  -0.35473  -0.35367  -0.35263
 Alpha  occ. eigenvalues --   -0.35087  -0.34710  -0.34541  -0.34530  -0.34324
 Alpha  occ. eigenvalues --   -0.34306  -0.34071  -0.34018  -0.33757  -0.33478
 Alpha  occ. eigenvalues --   -0.33167  -0.33146  -0.32478  -0.32169  -0.32024
 Alpha  occ. eigenvalues --   -0.31962  -0.31784  -0.31714  -0.31516  -0.31485
 Alpha  occ. eigenvalues --   -0.30920  -0.30538  -0.30388  -0.30299  -0.30122
 Alpha  occ. eigenvalues --   -0.29954  -0.29573  -0.29216  -0.29018  -0.28806
 Alpha  occ. eigenvalues --   -0.28661  -0.28373  -0.27736  -0.27653  -0.27190
 Alpha  occ. eigenvalues --   -0.26965  -0.26563  -0.26478  -0.26376  -0.25755
 Alpha  occ. eigenvalues --   -0.25448  -0.25193  -0.24745  -0.24717  -0.24046
 Alpha  occ. eigenvalues --   -0.23968  -0.23836  -0.23821  -0.23462  -0.23216
 Alpha  occ. eigenvalues --   -0.22866  -0.22706  -0.22632  -0.21945  -0.21331
 Alpha  occ. eigenvalues --   -0.21117  -0.21024  -0.20656  -0.19683  -0.19394
 Alpha  occ. eigenvalues --   -0.16049  -0.15455  -0.13153
 Alpha virt. eigenvalues --   -0.12530  -0.12186  -0.06802  -0.06022  -0.05768
 Alpha virt. eigenvalues --   -0.03303  -0.03144  -0.02182  -0.01640  -0.01419
 Alpha virt. eigenvalues --   -0.01000  -0.00977  -0.00317   0.00275   0.00446

 Mulliken charges:
               1
     1  C    0.068049
     2  C    0.024508
     3  O   -0.332156
     4  H    0.047477
     5  H    0.035419
     6  H    0.017057
     7  N   -0.096199
     8  C    0.103532
     9  C    0.071075
    10  O   -0.265332
    11  C    0.098166
    12  C    0.044807
    13  O   -0.368640
    14  O   -0.445158
    15  H    0.122475
    16  H   -0.054604
    17  H    0.048276
    18  H    0.019910
    19  N   -0.119055
    20  C    0.124396
    21  C    0.078673
    22  O   -0.288249
    23  C    0.009714
    24  C    0.073238
    25  C   -0.052514
    26  C    0.021027
    27  N    0.096182
    28  H    0.094568
    29  H    0.020865
    30  H    0.032136
    31  H   -0.010688
    32  H    0.013610
    33  H   -0.016066
    34  H    0.036697
    35  H    0.067801
    36  H    0.072460
    37  H    0.055453
    38  H    0.167533
    39  H    0.189336
    40  H    0.186491
    41  N   -0.127059
    42  C    0.110230
    43  C    0.039268
    44  O   -0.285917
    45  C    0.125704
    46  C    0.058701
    47  O   -0.347373
    48  O   -0.482506
    49  H    0.142633
    50  H    0.025695
    51  H    0.011315
    52  H    0.015627
    53  N   -0.195884
    54  C    0.222956
    55  C    0.028129
    56  O   -0.283963
    57  H    0.125858
    58  H    0.041558
    59  H    0.040140
    60  N   -0.147281
    61  C    0.094947
    62  C    0.118208
    63  O   -0.339791
    64  C    0.130983
    65  C   -0.024026
    66  N   -0.044473
    67  O   -0.277756
    68  H    0.143624
    69  H    0.008143
    70  H    0.030742
    71  H    0.036134
    72  H    0.118275
    73  H    0.147082
    74  N   -0.164201
    75  C    0.282950
    76  C   -0.023715
    77  O   -0.270468
    78  H    0.144669
    79  H    0.037757
    80  H    0.025495
    81  N   -0.141537
    82  C    0.129736
    83  C    0.086879
    84  O   -0.271644
    85  C    0.160776
    86  C   -0.051378
    87  C    0.023926
    88  C   -0.032243
    89  C    0.014956
    90  C   -0.045343
    91  C    0.156596
    92  O   -0.216002
    93  H    0.129614
    94  H   -0.027283
    95  H    0.008187
    96  H   -0.010814
    97  H   -0.022309
    98  H   -0.035666
    99  H   -0.021604
   100  H   -0.044694
   101  H    0.176466
   102  N   -0.120227
   103  C    0.125277
   104  C    0.061126
   105  O   -0.237282
   106  C   -0.082544
   107  C   -0.046979
   108  C    0.087755
   109  C    0.037774
   110  H    0.128292
   111  H   -0.002819
   112  H   -0.009569
   113  H   -0.022499
   114  H    0.001468
   115  H   -0.000519
   116  H    0.000759
   117  H    0.013218
   118  H   -0.003512
   119  H   -0.023253
   120  H    0.052763
   121  N   -0.147374
   122  C    0.116253
   123  C    0.082693
   124  O   -0.266769
   125  C    0.208976
   126  O   -0.312661
   127  H    0.142764
   128  H    0.037841
   129  H    0.009825
   130  H    0.014308
   131  H    0.170263
   132  N   -0.123789
   133  C    0.024232
   134  C    0.067785
   135  O   -0.260859
   136  C    0.105677
   137  H    0.103552
   138  H    0.018997
   139  H   -0.005990
   140  H   -0.000981
   141  H    0.042733
   142  N   -0.098879
   143  C    0.047714
   144  C    0.055900
   145  O   -0.288242
   146  C    0.065595
   147  H    0.125096
   148  H   -0.022862
   149  H    0.026167
   150  H    0.008314
   151  H    0.022898
   152  N   -0.090422
   153  C    0.076681
   154  C    0.071337
   155  O   -0.272497
   156  C    0.047987
   157  C    0.029729
   158  C    0.082420
   159  O   -0.344046
   160  O   -0.329364
   161  H    0.103841
   162  H   -0.003111
   163  H    0.010259
   164  H   -0.028829
   165  H   -0.014254
   166  H   -0.017005
   167  N   -0.157423
   168  C    0.123220
   169  H    0.025470
   170  H    0.050504
   171  H    0.021969
   172  H    0.110781
   173  Ca   1.246471
   174  O   -0.300700
   175  H    0.184192
   176  H    0.193082
 Sum of Mulliken charges =  -0.00000

 Dipole moment (field-independent basis, Debye):
    X=             67.4294    Y=            -23.6092    Z=              2.2668  Tot=             71.4791
 Quadrupole moment (field-independent basis, Debye-Ang):
   XX=           -205.9099   YY=           -575.3403   ZZ=           -550.3264
   XY=           -399.6513   XZ=           -138.0643   YZ=             41.4479

 ESP charges:
               1
     1  C   -0.483421
     2  C    0.806065
     3  O   -0.661450
     4  H    0.137278
     5  H    0.141875
     6  H    0.121769
     7  N   -0.657342
     8  C    0.346132
     9  C    0.482709
    10  O   -0.541468
    11  C   -0.417824
    12  C    0.706580
    13  O   -0.647908
    14  O   -0.527597
    15  H    0.333852
    16  H   -0.016237
    17  H    0.147018
    18  H    0.098658
    19  N   -0.232242
    20  C   -0.016958
    21  C    0.412894
    22  O   -0.533540
    23  C   -0.093992
    24  C   -0.109030
    25  C   -0.029031
    26  C    0.119593
    27  N   -0.414020
    28  H    0.157794
    29  H    0.100219
    30  H    0.109628
    31  H    0.039058
    32  H    0.045446
    33  H    0.020635
    34  H    0.040907
    35  H    0.069749
    36  H    0.050227
    37  H    0.066484
    38  H    0.300984
    39  H    0.351666
    40  H    0.346123
    41  N   -0.157935
    42  C    0.094351
    43  C    0.282362
    44  O   -0.501138
    45  C   -0.341082
    46  C    0.792643
    47  O   -0.679026
    48  O   -0.852229
    49  H    0.078585
    50  H    0.114255
    51  H    0.115472
    52  H    0.104191
    53  N   -0.008343
    54  C   -0.514793
    55  C    0.790374
    56  O   -0.595328
    57  H    0.064265
    58  H    0.191590
    59  H    0.186379
    60  N   -0.614270
    61  C    0.269059
    62  C    0.343751
    63  O   -0.492018
    64  C   -0.432521
    65  C    0.726270
    66  N   -0.705512
    67  O   -0.592764
    68  H    0.390131
    69  H    0.070095
    70  H    0.145328
    71  H    0.142686
    72  H    0.312662
    73  H    0.360431
    74  N   -0.203352
    75  C   -0.165327
    76  C    0.631298
    77  O   -0.581875
    78  H    0.195327
    79  H    0.119034
    80  H    0.059134
    81  N   -0.329067
    82  C   -0.042639
    83  C    0.524225
    84  O   -0.502660
    85  C   -0.146436
    86  C    0.069528
    87  C   -0.183185
    88  C   -0.139040
    89  C   -0.214282
    90  C   -0.345707
    91  C    0.399832
    92  O   -0.567215
    93  H    0.231939
    94  H    0.052839
    95  H    0.102363
    96  H    0.070326
    97  H    0.153992
    98  H    0.119119
    99  H    0.153488
   100  H    0.152606
   101  H    0.409139
   102  N   -0.442128
   103  C   -0.169232
   104  C    0.642623
   105  O   -0.458294
   106  C    0.275613
   107  C    0.117473
   108  C   -0.341929
   109  C   -0.226033
   110  H    0.324378
   111  H    0.099602
   112  H   -0.009415
   113  H   -0.059321
   114  H   -0.024603
   115  H    0.094868
   116  H    0.086741
   117  H    0.066554
   118  H    0.051094
   119  H    0.020570
   120  H    0.104026
   121  N   -0.650384
   122  C    0.162360
   123  C    0.474877
   124  O   -0.493252
   125  C    0.074259
   126  O   -0.490144
   127  H    0.273996
   128  H    0.056529
   129  H    0.060907
   130  H    0.024565
   131  H    0.362953
   132  N   -0.439679
   133  C    0.189844
   134  C    0.635473
   135  O   -0.539862
   136  C   -0.339513
   137  H    0.293692
   138  H    0.034420
   139  H    0.057244
   140  H    0.096546
   141  H    0.128337
   142  N   -0.789720
   143  C    0.676582
   144  C    0.420847
   145  O   -0.556289
   146  C   -0.430298
   147  H    0.374945
   148  H   -0.088276
   149  H    0.104324
   150  H    0.081626
   151  H    0.135771
   152  N   -0.387928
   153  C   -0.481195
   154  C    0.783715
   155  O   -0.571316
   156  C    0.193874
   157  C   -0.261618
   158  C    0.702542
   159  O   -0.629686
   160  O   -0.629726
   161  H    0.250502
   162  H    0.185846
   163  H    0.014658
   164  H   -0.021347
   165  H    0.055281
   166  H    0.050216
   167  N   -0.463249
   168  C   -0.111967
   169  H    0.074781
   170  H    0.105892
   171  H    0.072330
   172  H    0.340669
   173  Ca   1.390405
   174  O   -0.854524
   175  H    0.393926
   176  H    0.460050
 Sum of ESP charges =   0.00000

 Normal termination of Gaussian 16 at Wed Sep 18 11:38:23 2019.
