 Gaussian 16, Revision A.03,
 Gaussian 16:  ES64L-G16RevA.03 25-Dec-2016

 ----------------------------------------------------------------------
 #b3lyp/svp scf=(tight,noincore) Test #IOP(5/87=12) Density=Current Pop
 =(MK,readradii) iop(6/33=2) iop(6/42=6)
 ----------------------------------------------------------------------

 -----------------
 Ng-293_loop3_67.0
 -----------------
 Symbolic Z-matrix:
 Charge =  0 Multiplicity = 1

                         Standard orientation:
 ---------------------------------------------------------------------
 Center     Atomic      Atomic             Coordinates (Angstroms)
 Number     Number       Type             X           Y           Z
 ---------------------------------------------------------------------
      1          6           0        9.420556    2.803457    5.376889
      2          6           0        8.876592    2.781430    3.958750
      3          8           0        7.945809    2.061299    3.617933
      4          1           0        9.380441    3.821322    5.764757
      5          1           0        8.817965    2.150746    6.007868
      6          1           0       10.453554    2.455956    5.375508
      7          7           0        9.515506    3.505543    3.038180
      8          6           0        9.059790    3.767175    1.683680
      9          6           0        9.203825    2.685134    0.624887
     10          8           0        9.374037    3.055018   -0.537014
     11          6           0        7.719626    4.482403    1.604877
     12          6           0        7.411863    5.211269    0.302365
     13          8           0        7.758387    6.410749    0.257999
     14          8           0        6.683483    4.665148   -0.551048
     15          1           0       10.313213    4.024397    3.362300
     16          1           0        9.750546    4.570154    1.447502
     17          1           0        7.599180    5.126068    2.477739
     18          1           0        6.974806    3.696086    1.783615
     19          7           0        9.231905    1.403753    1.006690
     20          6           0        9.724049    0.319986    0.176844
     21          6           0        8.743415   -0.150820   -0.885604
     22          8           0        9.214748   -0.759636   -1.848823
     23          6           0       10.207279   -0.797662    1.102183
     24          6           0        9.200458   -1.881443    1.456906
     25          6           0        7.956148   -1.415126    2.213241
     26          6           0        6.851159   -2.449558    2.396129
     27          7           0        5.623432   -1.871389    2.965610
     28          1           0        9.248788    1.178437    1.989160
     29          1           0       10.623436    0.742887   -0.266729
     30          1           0       10.553612   -0.416873    2.070508
     31          1           0       11.070249   -1.244036    0.611334
     32          1           0        9.626789   -2.656074    2.096585
     33          1           0        8.914251   -2.328684    0.504981
     34          1           0        7.583104   -0.506526    1.725919
     35          1           0        8.220026   -1.125094    3.225886
     36          1           0        7.244579   -3.240612    3.028942
     37          1           0        6.661583   -2.926849    1.431580
     38          1           0        4.859819   -2.539507    2.893398
     39          1           0        5.831813   -1.700275    3.931579
     40          1           0        5.396618   -1.019444    2.480899
     41          7           0        7.434179    0.051153   -0.773325
     42          6           0        6.417342   -0.363224   -1.724395
     43          6           0        5.315965    0.690273   -1.747028
     44          8           0        5.050009    1.280392   -0.703990
     45          6           0        5.799047   -1.641994   -1.163450
     46          6           0        4.716704   -2.291865   -2.023683
     47          8           0        3.848138   -3.073141   -1.584250
     48          8           0        4.768577   -2.098449   -3.259442
     49          1           0        7.117909    0.684088   -0.043073
     50          1           0        6.788895   -0.520488   -2.736036
     51          1           0        5.400894   -1.357176   -0.183781
     52          1           0        6.580429   -2.357165   -0.926020
     53          7           0        4.751752    1.026820   -2.906295
     54          6           0        3.502570    1.760243   -3.013227
     55          6           0        2.280857    1.013113   -2.506560
     56          8           0        2.314896   -0.210172   -2.423402
     57          1           0        4.960866    0.416788   -3.687469
     58          1           0        3.409036    1.899728   -4.092947
     59          1           0        3.554019    2.733647   -2.544251
     60          7           0        1.207212    1.719811   -2.109238
     61          6           0       -0.057170    1.093954   -1.790113
     62          6           0       -1.263679    1.874109   -2.315370
     63          8           0       -2.412131    1.454055   -2.184939
     64          6           0       -0.305852    0.933714   -0.302033
     65          6           0        0.702828    0.049610    0.429763
     66          7           0        0.737393   -1.209088   -0.016651
     67          8           0        1.422692    0.419810    1.351580
     68          1           0        1.269192    2.713873   -1.973222
     69          1           0       -0.093780    0.144974   -2.330386
     70          1           0       -1.297037    0.509216   -0.113745
     71          1           0       -0.383585    1.865644    0.259094
     72          1           0        0.246824   -1.406518   -0.877850
     73          1           0        1.383628   -1.822340    0.464599
     74          7           0       -1.021324    3.085303   -2.820617
     75          6           0       -2.065702    4.057390   -3.052829
     76          6           0       -2.921589    4.221605   -1.804394
     77          8           0       -2.429019    4.344251   -0.686479
     78          1           0       -0.082660    3.413175   -3.006651
     79          1           0       -2.702398    3.916228   -3.930776
     80          1           0       -1.576175    5.031149   -3.097066
     81          7           0       -4.234709    4.122793   -1.988109
     82          6           0       -5.180182    4.115866   -0.891280
     83          6           0       -5.182053    2.967826    0.116241
     84          8           0       -6.134706    2.934455    0.888340
     85          6           0       -5.387939    5.506374   -0.294101
     86          6           0       -6.792330    5.914025    0.073605
     87          6           0       -7.260151    5.891745    1.393623
     88          6           0       -7.708922    6.275068   -0.926197
     89          6           0       -8.583721    6.208348    1.693664
     90          6           0       -9.043428    6.586068   -0.633157
     91          6           0       -9.506578    6.572958    0.700792
     92          8           0      -10.777572    6.885250    1.064999
     93          1           0       -4.590550    3.918977   -2.911817
     94          1           0       -6.136402    4.009062   -1.397576
     95          1           0       -5.088981    6.295230   -0.992550
     96          1           0       -4.684848    5.530523    0.530933
     97          1           0       -6.520029    5.654888    2.141164
     98          1           0       -7.300823    6.348745   -1.922654
     99          1           0       -8.874195    6.219851    2.738170
    100          1           0       -9.720908    6.787257   -1.450007
    101          1           0      -11.311598    7.100709    0.298322
    102          7           0       -4.234402    2.039686   -0.021294
    103          6           0       -4.331656    0.729088    0.579685
    104          6           0       -5.407781   -0.179395    0.002438
    105          8           0       -5.020849   -1.167112   -0.625653
    106          6           0       -4.319313    0.769234    2.099565
    107          6           0       -3.332068    1.738844    2.738161
    108          6           0       -4.181767   -0.610994    2.746598
    109          6           0       -1.900012    1.273309    2.973517
    110          1           0       -3.484667    2.162970   -0.691217
    111          1           0       -3.374217    0.260767    0.373079
    112          1           0       -5.280137    1.062312    2.523147
    113          1           0       -3.717796    2.016914    3.718105
    114          1           0       -3.356025    2.695802    2.209618
    115          1           0       -3.944891   -0.487341    3.806031
    116          1           0       -5.110661   -1.157042    2.592038
    117          1           0       -3.389548   -1.044672    2.127557
    118          1           0       -1.731796    0.609499    3.813433
    119          1           0       -1.581689    0.726645    2.085300
    120          1           0       -1.253679    2.143617    3.124241
    121          7           0       -6.677848    0.236924   -0.032325
    122          6           0       -7.835261   -0.478032   -0.551782
    123          6           0       -7.903706   -1.884242    0.037869
    124          8           0       -8.173004   -2.825253   -0.702386
    125          6           0       -9.124809    0.287211   -0.235444
    126          8           0       -9.020937    1.633130   -0.632195
    127          1           0       -6.851232    1.201994    0.208876
    128          1           0       -7.763817   -0.553448   -1.631508
    129          1           0       -9.226638    0.128505    0.836304
    130          1           0       -9.928007   -0.177221   -0.794528
    131          1           0       -9.503350    2.149688    0.022210
    132          7           0       -7.543083   -2.027623    1.317710
    133          6           0       -7.515363   -3.361404    1.884862
    134          6           0       -6.608158   -4.371299    1.204575
    135          8           0       -7.011521   -5.530187    1.176680
    136          6           0       -8.953758   -3.791858    2.133721
    137          1           0       -7.386117   -1.211932    1.876646
    138          1           0       -6.970366   -3.282730    2.827512
    139          1           0       -9.485213   -3.056085    2.746415
    140          1           0       -9.521233   -4.174899    1.284102
    141          1           0       -8.900185   -4.612544    2.849754
    142          7           0       -5.506007   -3.983983    0.544159
    143          6           0       -4.485341   -4.825809   -0.047929
    144          6           0       -3.107169   -4.899499    0.600772
    145          8           0       -2.718598   -3.879482    1.162891
    146          6           0       -4.344284   -4.493190   -1.534424
    147          1           0       -5.527146   -3.010909    0.284004
    148          1           0       -4.840960   -5.849861   -0.015492
    149          1           0       -4.156047   -3.426390   -1.682430
    150          1           0       -3.511706   -5.079697   -1.908487
    151          1           0       -5.263784   -4.812847   -2.013421
    152          7           0       -2.382089   -6.012466    0.530326
    153          6           0       -1.000883   -6.104295    0.960253
    154          6           0       -0.817367   -5.839208    2.446945
    155          8           0        0.251286   -5.452976    2.911063
    156          6           0       -0.165173   -5.225380    0.036891
    157          6           0       -0.348177   -5.445402   -1.458101
    158          6           0        0.475407   -4.419915   -2.237000
    159          8           0        0.317060   -3.182711   -2.179966
    160          8           0        1.202989   -4.837128   -3.168213
    161          1           0       -2.720507   -6.819483    0.019348
    162          1           0       -0.691540   -7.140887    0.821029
    163          1           0        0.864590   -5.437169    0.311907
    164          1           0       -0.327469   -4.154542    0.190399
    165          1           0       -1.390775   -5.272317   -1.739228
    166          1           0       -0.200257   -6.488650   -1.739796
    167          7           0       -1.832343   -6.133546    3.268157
    168          6           0       -1.882033   -5.811566    4.687931
    169          1           0       -2.150379   -4.762299    4.812960
    170          1           0       -2.629157   -6.436840    5.177045
    171          1           0       -0.904821   -5.993018    5.136462
    172          1           0       -2.557549   -6.671657    2.831908
    173         20           0        2.266196   -2.596977   -3.879490
    174          8           0        3.713790   -4.477255   -4.878702
    175          1           0        4.450700   -4.641157   -5.470141
    176          1           0        3.121877   -5.217838   -5.032571
 ---------------------------------------------------------------------

 SCF Done:  E(RB3LYP) =  -5333.40940520     A.U. after   37 cycles

 The electronic state is 1-A.
 Alpha  occ. eigenvalues -- -145.42853 -19.18641 -19.16968 -19.15131 -19.15129
 Alpha  occ. eigenvalues --  -19.14144 -19.12067 -19.11065 -19.10264 -19.09717
 Alpha  occ. eigenvalues --  -19.09566 -19.08878 -19.08738 -19.08551 -19.07968
 Alpha  occ. eigenvalues --  -19.07943 -19.07660 -19.07614 -19.06986 -19.06814
 Alpha  occ. eigenvalues --  -19.06014 -19.05842 -18.94840 -18.94705 -15.48765
 Alpha  occ. eigenvalues --  -14.54982 -14.40558 -14.40541 -14.38224 -14.36435
 Alpha  occ. eigenvalues --  -14.36165 -14.36099 -14.35889 -14.35428 -14.34565
 Alpha  occ. eigenvalues --  -14.34387 -14.33873 -14.33314 -14.33020 -14.32434
 Alpha  occ. eigenvalues --  -12.62361 -12.62327 -12.62290 -10.33365 -10.32825
 Alpha  occ. eigenvalues --  -10.31753 -10.30886 -10.29666 -10.28890 -10.28398
 Alpha  occ. eigenvalues --  -10.27925 -10.27607 -10.27566 -10.27531 -10.27527
 Alpha  occ. eigenvalues --  -10.27021 -10.27017 -10.26932 -10.26900 -10.26891
 Alpha  occ. eigenvalues --  -10.25954 -10.25778 -10.25479 -10.25141 -10.24932
 Alpha  occ. eigenvalues --  -10.24454 -10.24406 -10.23868 -10.23417 -10.23390
 Alpha  occ. eigenvalues --  -10.22941 -10.22873 -10.22731 -10.22328 -10.22177
 Alpha  occ. eigenvalues --  -10.22151 -10.21190 -10.20489 -10.19523 -10.19485
 Alpha  occ. eigenvalues --  -10.19472 -10.19404 -10.19171 -10.19039 -10.18825
 Alpha  occ. eigenvalues --  -10.18650 -10.18529 -10.18098 -10.17808 -10.17466
 Alpha  occ. eigenvalues --  -10.17381 -10.17302 -10.16948 -10.16762 -10.16285
 Alpha  occ. eigenvalues --  -10.14677 -10.10553  -1.85612  -1.13048  -1.12931
 Alpha  occ. eigenvalues --   -1.12657  -1.10261  -1.08165  -1.07435  -1.05655
 Alpha  occ. eigenvalues --   -1.05311  -1.04556  -1.04271  -1.03664  -1.03015
 Alpha  occ. eigenvalues --   -1.02929  -1.02851  -1.02724  -1.02438  -1.02083
 Alpha  occ. eigenvalues --   -1.01498  -1.01410  -1.00982  -1.00576  -1.00523
 Alpha  occ. eigenvalues --   -0.98940  -0.97895  -0.95822  -0.94952  -0.93347
 Alpha  occ. eigenvalues --   -0.93164  -0.93127  -0.92761  -0.91843  -0.91326
 Alpha  occ. eigenvalues --   -0.91218  -0.90638  -0.90505  -0.90468  -0.90208
 Alpha  occ. eigenvalues --   -0.89820  -0.89092  -0.87949  -0.85850  -0.85046
 Alpha  occ. eigenvalues --   -0.82088  -0.81347  -0.80118  -0.79942  -0.79436
 Alpha  occ. eigenvalues --   -0.79310  -0.78507  -0.78129  -0.76884  -0.76396
 Alpha  occ. eigenvalues --   -0.75658  -0.75083  -0.75055  -0.74156  -0.73976
 Alpha  occ. eigenvalues --   -0.73547  -0.73228  -0.72632  -0.70792  -0.70081
 Alpha  occ. eigenvalues --   -0.69974  -0.69825  -0.69576  -0.69554  -0.67514
 Alpha  occ. eigenvalues --   -0.66710  -0.66256  -0.65895  -0.65243  -0.65001
 Alpha  occ. eigenvalues --   -0.63965  -0.63675  -0.63102  -0.62603  -0.62295
 Alpha  occ. eigenvalues --   -0.62058  -0.61463  -0.61239  -0.60827  -0.60734
 Alpha  occ. eigenvalues --   -0.59782  -0.59404  -0.59237  -0.59037  -0.58939
 Alpha  occ. eigenvalues --   -0.58762  -0.58300  -0.57623  -0.57116  -0.56992
 Alpha  occ. eigenvalues --   -0.56768  -0.56699  -0.56095  -0.55780  -0.55429
 Alpha  occ. eigenvalues --   -0.55143  -0.55072  -0.54715  -0.54304  -0.53997
 Alpha  occ. eigenvalues --   -0.53949  -0.53824  -0.53235  -0.52992  -0.52946
 Alpha  occ. eigenvalues --   -0.52676  -0.52057  -0.51814  -0.51416  -0.50917
 Alpha  occ. eigenvalues --   -0.50547  -0.50004  -0.49718  -0.49672  -0.49322
 Alpha  occ. eigenvalues --   -0.49027  -0.48620  -0.48479  -0.48356  -0.47822
 Alpha  occ. eigenvalues --   -0.47682  -0.47446  -0.47188  -0.47152  -0.47059
 Alpha  occ. eigenvalues --   -0.46813  -0.46676  -0.46265  -0.46203  -0.46052
 Alpha  occ. eigenvalues --   -0.45911  -0.45732  -0.45395  -0.45381  -0.45285
 Alpha  occ. eigenvalues --   -0.45233  -0.44801  -0.44525  -0.44389  -0.44292
 Alpha  occ. eigenvalues --   -0.43957  -0.43903  -0.43867  -0.43810  -0.43486
 Alpha  occ. eigenvalues --   -0.43402  -0.43173  -0.42872  -0.42694  -0.42519
 Alpha  occ. eigenvalues --   -0.42357  -0.42291  -0.42251  -0.42166  -0.42104
 Alpha  occ. eigenvalues --   -0.42010  -0.41766  -0.41508  -0.41426  -0.41338
 Alpha  occ. eigenvalues --   -0.41103  -0.40972  -0.40880  -0.40810  -0.40672
 Alpha  occ. eigenvalues --   -0.40450  -0.40128  -0.40108  -0.39961  -0.39743
 Alpha  occ. eigenvalues --   -0.39620  -0.39423  -0.39266  -0.39180  -0.39152
 Alpha  occ. eigenvalues --   -0.39088  -0.38948  -0.38815  -0.38743  -0.38678
 Alpha  occ. eigenvalues --   -0.38642  -0.38480  -0.38249  -0.38084  -0.37821
 Alpha  occ. eigenvalues --   -0.37736  -0.37465  -0.37069  -0.36994  -0.36876
 Alpha  occ. eigenvalues --   -0.36772  -0.36493  -0.36470  -0.36283  -0.36249
 Alpha  occ. eigenvalues --   -0.36216  -0.36130  -0.35781  -0.35678  -0.35457
 Alpha  occ. eigenvalues --   -0.35353  -0.35154  -0.34874  -0.34466  -0.34426
 Alpha  occ. eigenvalues --   -0.34338  -0.34024  -0.33772  -0.33155  -0.33146
 Alpha  occ. eigenvalues --   -0.32956  -0.32687  -0.32139  -0.31566  -0.31199
 Alpha  occ. eigenvalues --   -0.31009  -0.30747  -0.30265  -0.29858  -0.29851
 Alpha  occ. eigenvalues --   -0.29654  -0.28979  -0.28514  -0.27889  -0.27358
 Alpha  occ. eigenvalues --   -0.27310  -0.27099  -0.27038  -0.26760  -0.26711
 Alpha  occ. eigenvalues --   -0.26604  -0.26367  -0.26265  -0.25555  -0.25474
 Alpha  occ. eigenvalues --   -0.25300  -0.25134  -0.25092  -0.24968  -0.24807
 Alpha  occ. eigenvalues --   -0.24718  -0.24580  -0.24543  -0.24262  -0.24238
 Alpha  occ. eigenvalues --   -0.24056  -0.23907  -0.23739  -0.23214  -0.23040
 Alpha  occ. eigenvalues --   -0.22644  -0.22626  -0.22261  -0.21582  -0.20767
 Alpha  occ. eigenvalues --   -0.12279  -0.12031  -0.09727
 Alpha virt. eigenvalues --   -0.08674  -0.06443  -0.03074  -0.03006  -0.01812
 Alpha virt. eigenvalues --   -0.01428  -0.01203  -0.00630  -0.00076   0.00032
 Alpha virt. eigenvalues --    0.00499   0.00623   0.00958   0.01272   0.01293

 Mulliken charges:
               1
     1  C    0.062021
     2  C    0.019112
     3  O   -0.323312
     4  H    0.037903
     5  H    0.013303
     6  H    0.023512
     7  N   -0.132388
     8  C    0.062443
     9  C    0.090022
    10  O   -0.240600
    11  C    0.111913
    12  C    0.063879
    13  O   -0.379143
    14  O   -0.368075
    15  H    0.106125
    16  H    0.000387
    17  H   -0.040170
    18  H   -0.028111
    19  N   -0.156126
    20  C    0.107915
    21  C    0.074533
    22  O   -0.290876
    23  C    0.056858
    24  C    0.007679
    25  C   -0.053997
    26  C    0.012687
    27  N    0.094499
    28  H    0.125380
    29  H    0.021337
    30  H   -0.004312
    31  H    0.027777
    32  H   -0.000576
    33  H    0.036772
    34  H    0.020696
    35  H    0.005393
    36  H    0.055061
    37  H    0.071051
    38  H    0.208797
    39  H    0.190771
    40  H    0.216903
    41  N   -0.133224
    42  C    0.144940
    43  C    0.079168
    44  O   -0.266660
    45  C    0.049531
    46  C    0.127385
    47  O   -0.381093
    48  O   -0.468068
    49  H    0.159932
    50  H    0.016100
    51  H   -0.050091
    52  H    0.026908
    53  N   -0.100669
    54  C    0.203617
    55  C    0.083305
    56  O   -0.324328
    57  H    0.117754
    58  H    0.020793
    59  H    0.063099
    60  N   -0.141218
    61  C    0.118826
    62  C    0.088220
    63  O   -0.290122
    64  C    0.011910
    65  C    0.003643
    66  N   -0.032221
    67  O   -0.263897
    68  H    0.138870
    69  H    0.029403
    70  H    0.061305
    71  H    0.021882
    72  H    0.133688
    73  H    0.126711
    74  N   -0.125956
    75  C    0.252958
    76  C   -0.018858
    77  O   -0.275842
    78  H    0.113926
    79  H    0.011716
    80  H    0.030406
    81  N   -0.112569
    82  C    0.098028
    83  C    0.106431
    84  O   -0.295872
    85  C    0.152414
    86  C   -0.048845
    87  C    0.043345
    88  C   -0.008235
    89  C   -0.034240
    90  C   -0.050029
    91  C    0.181789
    92  O   -0.187434
    93  H    0.124418
    94  H    0.005395
    95  H   -0.006548
    96  H    0.008208
    97  H   -0.032146
    98  H   -0.048077
    99  H   -0.026165
   100  H   -0.047546
   101  H    0.173390
   102  N   -0.116223
   103  C    0.193680
   104  C    0.065039
   105  O   -0.273114
   106  C   -0.154393
   107  C    0.024198
   108  C    0.089131
   109  C    0.035208
   110  H    0.155600
   111  H   -0.003168
   112  H   -0.018104
   113  H   -0.018068
   114  H   -0.001733
   115  H    0.011109
   116  H   -0.029098
   117  H    0.026648
   118  H    0.001716
   119  H   -0.011270
   120  H    0.020530
   121  N   -0.140021
   122  C    0.124962
   123  C    0.030529
   124  O   -0.246613
   125  C    0.227421
   126  O   -0.296983
   127  H    0.130280
   128  H    0.007032
   129  H   -0.016236
   130  H    0.016045
   131  H    0.181287
   132  N   -0.150266
   133  C    0.070010
   134  C    0.037671
   135  O   -0.272354
   136  C    0.108844
   137  H    0.124734
   138  H    0.013518
   139  H   -0.018925
   140  H    0.046868
   141  H   -0.002896
   142  N   -0.121001
   143  C    0.127794
   144  C    0.054341
   145  O   -0.264260
   146  C    0.043992
   147  H    0.148340
   148  H   -0.023706
   149  H    0.051904
   150  H   -0.018382
   151  H    0.030373
   152  N   -0.151145
   153  C    0.120967
   154  C    0.065181
   155  O   -0.286092
   156  C   -0.022619
   157  C    0.128045
   158  C    0.139392
   159  O   -0.437057
   160  O   -0.459134
   161  H    0.121462
   162  H    0.007692
   163  H    0.010664
   164  H    0.036550
   165  H   -0.006430
   166  H   -0.027336
   167  N   -0.141896
   168  C    0.141915
   169  H    0.034780
   170  H    0.012410
   171  H    0.028515
   172  H    0.105284
   173  Ca   1.228683
   174  O   -0.288555
   175  H    0.183044
   176  H    0.187189
 Sum of Mulliken charges =  -0.00000

 Dipole moment (field-independent basis, Debye):
    X=             -7.0232    Y=            -15.7639    Z=              0.2959  Tot=             17.2602
 Quadrupole moment (field-independent basis, Debye-Ang):
   XX=           -597.6020   YY=           -628.5719   ZZ=           -428.6375
   XY=           -206.1017   XZ=             95.4044   YZ=            -26.8549

 ESP charges:
               1
     1  C   -0.427172
     2  C    0.842908
     3  O   -0.666500
     4  H    0.115016
     5  H    0.107721
     6  H    0.094989
     7  N   -0.781041
     8  C    0.357645
     9  C    0.295523
    10  O   -0.471650
    11  C   -0.256320
    12  C    0.685957
    13  O   -0.676096
    14  O   -0.647014
    15  H    0.355581
    16  H    0.029877
    17  H    0.070565
    18  H    0.051208
    19  N   -0.156800
    20  C   -0.178037
    21  C    0.488997
    22  O   -0.538394
    23  C   -0.037992
    24  C   -0.047341
    25  C    0.115305
    26  C    0.108346
    27  N   -0.526837
    28  H    0.172767
    29  H    0.142233
    30  H    0.031905
    31  H    0.064211
    32  H    0.005050
    33  H    0.030586
    34  H   -0.020665
    35  H   -0.004209
    36  H    0.058703
    37  H    0.011820
    38  H    0.391776
    39  H    0.363236
    40  H    0.400398
    41  N   -0.042008
    42  C   -0.232635
    43  C    0.560067
    44  O   -0.462514
    45  C   -0.231108
    46  C    0.761702
    47  O   -0.687551
    48  O   -0.688066
    49  H    0.151937
    50  H    0.123759
    51  H    0.006687
    52  H    0.119518
    53  N   -0.303474
    54  C   -0.225636
    55  C    0.607214
    56  O   -0.458596
    57  H    0.239247
    58  H    0.102416
    59  H    0.161492
    60  N   -0.682620
    61  C    0.070200
    62  C    0.458807
    63  O   -0.481090
    64  C   -0.132006
    65  C    0.797921
    66  N   -0.743743
    67  O   -0.624346
    68  H    0.387683
    69  H    0.089810
    70  H    0.037615
    71  H    0.059314
    72  H    0.327658
    73  H    0.316729
    74  N   -0.325404
    75  C   -0.133159
    76  C    0.688217
    77  O   -0.560818
    78  H    0.258273
    79  H    0.081048
    80  H    0.110818
    81  N   -0.880900
    82  C    0.673369
    83  C    0.175785
    84  O   -0.474633
    85  C   -0.118763
    86  C   -0.031323
    87  C   -0.144220
    88  C   -0.046743
    89  C   -0.230596
    90  C   -0.386424
    91  C    0.410185
    92  O   -0.556957
    93  H    0.387239
    94  H   -0.048687
    95  H    0.048072
    96  H    0.053641
    97  H    0.135438
    98  H    0.099771
    99  H    0.146446
   100  H    0.148908
   101  H    0.414237
   102  N   -0.232750
   103  C   -0.433700
   104  C    0.617859
   105  O   -0.520589
   106  C    0.529359
   107  C    0.077894
   108  C   -0.333871
   109  C   -0.155241
   110  H    0.309639
   111  H    0.156755
   112  H   -0.105430
   113  H   -0.047830
   114  H    0.001822
   115  H    0.087055
   116  H    0.026799
   117  H    0.042209
   118  H    0.048907
   119  H   -0.010113
   120  H    0.045588
   121  N   -0.343135
   122  C    0.259975
   123  C    0.182481
   124  O   -0.442535
   125  C    0.268858
   126  O   -0.593404
   127  H    0.204715
   128  H    0.023950
   129  H   -0.059673
   130  H    0.004602
   131  H    0.395245
   132  N   -0.279586
   133  C    0.243190
   134  C    0.574126
   135  O   -0.553464
   136  C   -0.304354
   137  H    0.244207
   138  H    0.011457
   139  H    0.063099
   140  H    0.129553
   141  H    0.058033
   142  N   -0.659748
   143  C    0.732602
   144  C    0.123250
   145  O   -0.418763
   146  C   -0.182095
   147  H    0.238720
   148  H   -0.111615
   149  H    0.069278
   150  H   -0.045127
   151  H    0.063354
   152  N   -0.343239
   153  C   -0.230560
   154  C    0.458264
   155  O   -0.521096
   156  C    0.518666
   157  C   -0.364427
   158  C    0.758715
   159  O   -0.725093
   160  O   -0.715057
   161  H    0.283230
   162  H    0.103083
   163  H   -0.088115
   164  H   -0.059634
   165  H    0.135552
   166  H    0.051523
   167  N   -0.191004
   168  C   -0.176088
   169  H    0.105929
   170  H    0.084865
   171  H    0.084418
   172  H    0.206837
   173  Ca   1.355111
   174  O   -0.770051
   175  H    0.414546
   176  H    0.388607
 Sum of ESP charges =  -0.00000

 Normal termination of Gaussian 16 at Tue Sep 17 18:21:44 2019.
