 Gaussian 16, Revision A.03,
 Gaussian 16:  ES64L-G16RevA.03 25-Dec-2016

 ----------------------------------------------------------------------
 #b3lyp/svp scf=(tight,noincore) Test #IOP(5/87=12) Density=Current Pop
 =(MK,readradii) iop(6/33=2) iop(6/42=6)
 ----------------------------------------------------------------------

 -----------------
 Ng-293_loop3_45.0
 -----------------
 Symbolic Z-matrix:
 Charge =  0 Multiplicity = 1

                         Standard orientation:
 ---------------------------------------------------------------------
 Center     Atomic      Atomic             Coordinates (Angstroms)
 Number     Number       Type             X           Y           Z
 ---------------------------------------------------------------------
      1          6           0       -8.336974   -0.552870    7.442987
      2          6           0       -8.987213   -0.440424    6.080987
      3          8           0      -10.119554    0.021559    5.974335
      4          1           0       -7.447940   -1.179774    7.369957
      5          1           0       -8.054107    0.439205    7.793849
      6          1           0       -9.039170   -1.000314    8.146160
      7          7           0       -8.298953   -0.897268    5.027093
      8          6           0       -8.637176   -0.967238    3.617444
      9          6           0       -7.411847   -0.692777    2.753939
     10          8           0       -6.333155   -0.625632    3.337818
     11          6           0       -9.240286   -2.365834    3.494609
     12          6           0       -9.837216   -2.777160    2.159436
     13          8           0      -10.298391   -1.852724    1.457912
     14          8           0       -9.774121   -3.990658    1.881330
     15          1           0       -7.393704   -1.293314    5.228515
     16          1           0       -9.375999   -0.211521    3.334544
     17          1           0      -10.043439   -2.315277    4.228768
     18          1           0       -8.400884   -3.038025    3.698722
     19          7           0       -7.659001   -0.611526    1.439362
     20          6           0       -6.704074   -0.483666    0.357019
     21          6           0       -5.694949   -1.617645    0.172742
     22          8           0       -5.658670   -2.529771    0.993479
     23          6           0       -6.076100    0.909340    0.366054
     24          6           0       -7.014842    2.093940    0.183609
     25          6           0       -7.542469    2.273296   -1.233974
     26          6           0       -8.220714    3.611032   -1.549799
     27          7           0       -9.377103    3.904892   -0.693872
     28          1           0       -8.648443   -0.644795    1.238873
     29          1           0       -7.262532   -0.464214   -0.572630
     30          1           0       -5.233803    1.001002   -0.312057
     31          1           0       -5.549905    1.071176    1.309626
     32          1           0       -6.329629    2.916213    0.401898
     33          1           0       -7.873360    1.973742    0.843760
     34          1           0       -8.254075    1.466079   -1.407802
     35          1           0       -6.723173    2.214030   -1.946604
     36          1           0       -8.459012    3.475415   -2.605745
     37          1           0       -7.478354    4.404753   -1.488096
     38          1           0      -10.077643    3.189925   -0.829392
     39          1           0       -9.158448    4.008545    0.280266
     40          1           0       -9.773395    4.807320   -0.951318
     41          7           0       -4.974557   -1.570344   -0.942828
     42          6           0       -4.127678   -2.704737   -1.275011
     43          6           0       -2.951107   -2.790625   -0.324798
     44          8           0       -2.209081   -1.849852   -0.045435
     45          6           0       -3.639922   -2.583404   -2.715696
     46          6           0       -3.072336   -1.250663   -3.196683
     47          8           0       -3.387774   -0.151868   -2.692156
     48          8           0       -2.374069   -1.376774   -4.217182
     49          1           0       -4.979928   -0.733375   -1.510591
     50          1           0       -4.766420   -3.592193   -1.247960
     51          1           0       -4.469800   -2.882085   -3.356861
     52          1           0       -2.936977   -3.416250   -2.790096
     53          7           0       -2.782672   -3.988486    0.234806
     54          6           0       -1.545929   -4.296813    0.938442
     55          6           0       -0.499977   -4.935983    0.034924
     56          8           0        0.503882   -5.434797    0.538861
     57          1           0       -3.532509   -4.643756    0.076796
     58          1           0       -1.909140   -4.941498    1.739602
     59          1           0       -1.074423   -3.396635    1.320622
     60          7           0       -0.796447   -4.953359   -1.273282
     61          6           0        0.142549   -5.459435   -2.247127
     62          6           0        1.498221   -4.793315   -2.018792
     63          8           0        1.506021   -3.574041   -1.902984
     64          6           0       -0.458218   -5.173869   -3.622639
     65          6           0       -1.588502   -6.129278   -3.979084
     66          7           0       -1.293428   -7.435369   -3.957670
     67          8           0       -2.700586   -5.802811   -4.378694
     68          1           0       -1.733926   -4.660974   -1.492472
     69          1           0        0.408940   -6.500776   -2.069237
     70          1           0        0.375252   -5.291985   -4.304677
     71          1           0       -0.815723   -4.146041   -3.663359
     72          1           0       -0.349406   -7.722642   -3.797055
     73          1           0       -2.052934   -8.102976   -4.020526
     74          7           0        2.585795   -5.562821   -2.012266
     75          6           0        3.907975   -5.027953   -2.285679
     76          6           0        4.485669   -4.304036   -1.079025
     77          8           0        3.968661   -4.454599    0.028059
     78          1           0        2.498253   -6.559917   -2.052719
     79          1           0        3.854798   -4.321250   -3.121109
     80          1           0        4.657755   -5.767468   -2.561811
     81          7           0        5.588195   -3.562277   -1.215513
     82          6           0        6.399717   -3.104100   -0.115192
     83          6           0        5.770869   -2.033410    0.761604
     84          8           0        6.166485   -1.727471    1.889252
     85          6           0        6.928627   -4.341095    0.604181
     86          6           0        8.121013   -4.146944    1.507188
     87          6           0        7.921488   -3.929207    2.878202
     88          6           0        9.403028   -4.255120    0.966601
     89          6           0        9.010759   -3.697253    3.725189
     90          6           0       10.507862   -4.013190    1.805953
     91          6           0       10.300498   -3.679361    3.155493
     92          8           0       11.346012   -3.265192    3.941791
     93          1           0        5.991693   -3.430971   -2.133799
     94          1           0        7.273193   -2.659207   -0.608761
     95          1           0        7.232103   -5.071924   -0.151260
     96          1           0        6.183561   -4.917014    1.162118
     97          1           0        6.911047   -4.024463    3.235043
     98          1           0        9.529542   -4.592178   -0.054225
     99          1           0        8.832765   -3.304048    4.714435
    100          1           0       11.484099   -4.077278    1.354563
    101          1           0       12.209509   -3.577678    3.669532
    102          7           0        4.767315   -1.391155    0.157543
    103          6           0        4.211768   -0.074332    0.326494
    104          6           0        5.064401    1.115275   -0.101000
    105          8           0        4.509513    2.126910   -0.539059
    106          6           0        3.731102    0.075709    1.769459
    107          6           0        2.988504   -1.107600    2.377099
    108          6           0        2.928376    1.361357    1.943931
    109          6           0        1.651696   -1.387547    1.696311
    110          1           0        4.621340   -1.818949   -0.751403
    111          1           0        3.334161   -0.006130   -0.325545
    112          1           0        4.568800    0.099973    2.460960
    113          1           0        2.818988   -0.970251    3.442275
    114          1           0        3.606434   -2.013996    2.373852
    115          1           0        3.521441    2.248721    1.718855
    116          1           0        1.956239    1.418163    1.451059
    117          1           0        2.835519    1.591495    2.998451
    118          1           0        1.864484   -1.492854    0.630228
    119          1           0        1.255719   -2.254917    2.218298
    120          1           0        0.982644   -0.544340    1.879540
    121          7           0        6.384940    1.175102    0.075623
    122          6           0        7.178370    2.294789   -0.354342
    123          6           0        6.846463    3.696585    0.145764
    124          8           0        7.258439    4.627994   -0.548104
    125          6           0        8.652541    2.098665   -0.015588
    126          8           0        8.827425    2.095596    1.384807
    127          1           0        6.935546    0.335307    0.205537
    128          1           0        7.028374    2.319984   -1.439315
    129          1           0        9.328047    2.864255   -0.388901
    130          1           0        8.937167    1.134445   -0.433282
    131          1           0        9.752820    2.271640    1.588895
    132          7           0        6.045086    3.866042    1.196088
    133          6           0        5.434565    5.067728    1.731264
    134          6           0        4.484016    5.774980    0.770040
    135          8           0        4.245000    6.985438    0.816537
    136          6           0        6.476353    5.931086    2.441962
    137          1           0        5.711280    2.995784    1.605263
    138          1           0        4.815779    4.690513    2.544290
    139          1           0        5.900820    6.619700    3.059191
    140          1           0        7.008366    5.133506    2.955897
    141          1           0        7.116330    6.489125    1.751222
    142          7           0        3.888074    4.957312   -0.098564
    143          6           0        3.002860    5.389498   -1.155026
    144          6           0        1.565151    5.513456   -0.649232
    145          8           0        1.123152    4.645806    0.092941
    146          6           0        3.222157    4.518291   -2.396480
    147          1           0        4.162392    3.984365   -0.103320
    148          1           0        3.314875    6.399195   -1.426427
    149          1           0        2.781200    3.526138   -2.365009
    150          1           0        2.724998    5.022786   -3.222323
    151          1           0        4.244416    4.318329   -2.695817
    152          7           0        0.811955    6.527393   -1.095582
    153          6           0       -0.613548    6.678516   -0.922373
    154          6           0       -1.074557    7.013304    0.487694
    155          8           0       -2.286286    6.976528    0.693992
    156          6           0       -1.410300    5.563377   -1.593529
    157          6           0       -1.128891    5.406419   -3.084962
    158          6           0       -1.656087    4.169874   -3.784405
    159          8           0       -2.726588    3.589450   -3.476612
    160          8           0       -1.021364    3.534551   -4.656696
    161          1           0        1.230677    7.270086   -1.629323
    162          1           0       -0.857504    7.582349   -1.469977
    163          1           0       -2.464271    5.756529   -1.393932
    164          1           0       -1.049201    4.635639   -1.152723
    165          1           0       -0.058042    5.260363   -3.241005
    166          1           0       -1.450135    6.368313   -3.504678
    167          7           0       -0.178779    7.325355    1.437855
    168          6           0       -0.462163    7.426630    2.852506
    169          1           0       -1.067065    6.575152    3.163214
    170          1           0        0.473291    7.429992    3.412087
    171          1           0       -1.006590    8.350337    3.049169
    172          1           0        0.746796    7.416011    1.059183
    173         20           0       -2.586223    1.375914   -4.746711
    174          8           0       -5.194933    1.741533   -4.714261
    175          1           0       -5.752028    1.121327   -4.250161
    176          1           0       -5.748166    2.512628   -4.860707
 ---------------------------------------------------------------------

 SCF Done:  E(RB3LYP) =  -5333.36827418     A.U. after   28 cycles

 The electronic state is 1-A.
 Alpha  occ. eigenvalues -- -145.46637 -19.23931 -19.15301 -19.14158 -19.11366
 Alpha  occ. eigenvalues --  -19.10773 -19.10513 -19.10469 -19.10286 -19.10086
 Alpha  occ. eigenvalues --  -19.09904 -19.09002 -19.08775 -19.08582 -19.08059
 Alpha  occ. eigenvalues --  -19.07997 -19.07988 -19.07603 -19.07469 -19.06927
 Alpha  occ. eigenvalues --  -19.05031 -19.02467 -18.96210 -18.95160 -15.52576
 Alpha  occ. eigenvalues --  -14.57986 -14.38390 -14.37531 -14.37527 -14.36237
 Alpha  occ. eigenvalues --  -14.36016 -14.35573 -14.35121 -14.35013 -14.34277
 Alpha  occ. eigenvalues --  -14.34258 -14.33130 -14.32614 -14.31118 -14.28584
 Alpha  occ. eigenvalues --  -12.66188 -12.66149 -12.66076 -10.34770 -10.29991
 Alpha  occ. eigenvalues --  -10.29949 -10.29801 -10.29293 -10.28851 -10.28828
 Alpha  occ. eigenvalues --  -10.28026 -10.27713 -10.27527 -10.27058 -10.27004
 Alpha  occ. eigenvalues --  -10.26833 -10.26480 -10.26172 -10.26085 -10.25741
 Alpha  occ. eigenvalues --  -10.25652 -10.25235 -10.24958 -10.24736 -10.24280
 Alpha  occ. eigenvalues --  -10.23982 -10.23393 -10.23272 -10.22985 -10.22658
 Alpha  occ. eigenvalues --  -10.22349 -10.22248 -10.22225 -10.22122 -10.21583
 Alpha  occ. eigenvalues --  -10.21528 -10.21179 -10.19330 -10.19272 -10.19085
 Alpha  occ. eigenvalues --  -10.19070 -10.18798 -10.18697 -10.18291 -10.18205
 Alpha  occ. eigenvalues --  -10.18072 -10.17729 -10.17618 -10.17539 -10.16916
 Alpha  occ. eigenvalues --  -10.16261 -10.15577 -10.15114 -10.14990 -10.14538
 Alpha  occ. eigenvalues --  -10.13913 -10.09216  -1.89242  -1.16833  -1.16558
 Alpha  occ. eigenvalues --   -1.16073  -1.13157  -1.09719  -1.05233  -1.04840
 Alpha  occ. eigenvalues --   -1.04818  -1.03696  -1.03662  -1.03624  -1.03370
 Alpha  occ. eigenvalues --   -1.02780  -1.02653  -1.02572  -1.01537  -1.01533
 Alpha  occ. eigenvalues --   -1.00924  -1.00763  -1.00152  -0.99745  -0.97674
 Alpha  occ. eigenvalues --   -0.95498  -0.95257  -0.95007  -0.93885  -0.93675
 Alpha  occ. eigenvalues --   -0.92794  -0.92724  -0.92690  -0.92100  -0.91053
 Alpha  occ. eigenvalues --   -0.91012  -0.90324  -0.90310  -0.90213  -0.90087
 Alpha  occ. eigenvalues --   -0.89708  -0.89133  -0.88067  -0.85415  -0.84548
 Alpha  occ. eigenvalues --   -0.81217  -0.81191  -0.80853  -0.80119  -0.79316
 Alpha  occ. eigenvalues --   -0.79235  -0.78252  -0.78062  -0.76476  -0.75992
 Alpha  occ. eigenvalues --   -0.74964  -0.74794  -0.73912  -0.73710  -0.72947
 Alpha  occ. eigenvalues --   -0.72944  -0.72472  -0.71926  -0.71644  -0.70511
 Alpha  occ. eigenvalues --   -0.69504  -0.69132  -0.69110  -0.68477  -0.66533
 Alpha  occ. eigenvalues --   -0.66442  -0.66150  -0.65388  -0.64920  -0.63964
 Alpha  occ. eigenvalues --   -0.63237  -0.63032  -0.62998  -0.62294  -0.61948
 Alpha  occ. eigenvalues --   -0.61673  -0.61619  -0.61078  -0.60394  -0.60310
 Alpha  occ. eigenvalues --   -0.59736  -0.59324  -0.59053  -0.58924  -0.58369
 Alpha  occ. eigenvalues --   -0.57970  -0.57807  -0.57082  -0.56538  -0.56166
 Alpha  occ. eigenvalues --   -0.56100  -0.55806  -0.55428  -0.55188  -0.55037
 Alpha  occ. eigenvalues --   -0.54570  -0.54482  -0.54270  -0.54167  -0.53861
 Alpha  occ. eigenvalues --   -0.53466  -0.52774  -0.52605  -0.52210  -0.51928
 Alpha  occ. eigenvalues --   -0.51551  -0.51427  -0.51163  -0.51025  -0.50781
 Alpha  occ. eigenvalues --   -0.50475  -0.50393  -0.49814  -0.49485  -0.49464
 Alpha  occ. eigenvalues --   -0.49140  -0.48650  -0.48359  -0.48199  -0.47446
 Alpha  occ. eigenvalues --   -0.47227  -0.46986  -0.46789  -0.46525  -0.46453
 Alpha  occ. eigenvalues --   -0.46178  -0.45947  -0.45842  -0.45636  -0.45414
 Alpha  occ. eigenvalues --   -0.45343  -0.45168  -0.45061  -0.44737  -0.44433
 Alpha  occ. eigenvalues --   -0.44279  -0.44159  -0.44102  -0.43628  -0.43489
 Alpha  occ. eigenvalues --   -0.43431  -0.43285  -0.43250  -0.42902  -0.42851
 Alpha  occ. eigenvalues --   -0.42610  -0.42547  -0.42441  -0.42304  -0.42192
 Alpha  occ. eigenvalues --   -0.42061  -0.41735  -0.41423  -0.41280  -0.41188
 Alpha  occ. eigenvalues --   -0.40990  -0.40912  -0.40837  -0.40790  -0.40623
 Alpha  occ. eigenvalues --   -0.40525  -0.40293  -0.40179  -0.40130  -0.40072
 Alpha  occ. eigenvalues --   -0.39934  -0.39750  -0.39703  -0.39286  -0.39160
 Alpha  occ. eigenvalues --   -0.39082  -0.39041  -0.38800  -0.38766  -0.38698
 Alpha  occ. eigenvalues --   -0.38448  -0.38393  -0.38288  -0.38139  -0.38001
 Alpha  occ. eigenvalues --   -0.37867  -0.37740  -0.37725  -0.37370  -0.37049
 Alpha  occ. eigenvalues --   -0.36953  -0.36518  -0.36400  -0.36354  -0.36018
 Alpha  occ. eigenvalues --   -0.35972  -0.35343  -0.35222  -0.35194  -0.35072
 Alpha  occ. eigenvalues --   -0.34910  -0.34762  -0.34708  -0.34510  -0.34503
 Alpha  occ. eigenvalues --   -0.34413  -0.34270  -0.34112  -0.33838  -0.33789
 Alpha  occ. eigenvalues --   -0.33608  -0.32840  -0.32820  -0.32743  -0.32281
 Alpha  occ. eigenvalues --   -0.32226  -0.32005  -0.30197  -0.29909  -0.29806
 Alpha  occ. eigenvalues --   -0.29370  -0.29369  -0.28970  -0.28838  -0.28685
 Alpha  occ. eigenvalues --   -0.28325  -0.27996  -0.27804  -0.27722  -0.27666
 Alpha  occ. eigenvalues --   -0.27497  -0.26956  -0.26764  -0.26555  -0.26466
 Alpha  occ. eigenvalues --   -0.26261  -0.26218  -0.26134  -0.25873  -0.25777
 Alpha  occ. eigenvalues --   -0.25292  -0.25208  -0.25162  -0.24878  -0.24747
 Alpha  occ. eigenvalues --   -0.24647  -0.24558  -0.24492  -0.23618  -0.23456
 Alpha  occ. eigenvalues --   -0.23355  -0.23064  -0.23023  -0.22508  -0.22214
 Alpha  occ. eigenvalues --   -0.21808  -0.21680  -0.20108  -0.19482  -0.18666
 Alpha  occ. eigenvalues --   -0.13664  -0.12589  -0.11232
 Alpha virt. eigenvalues --   -0.09727  -0.09013  -0.05408  -0.03677  -0.02636
 Alpha virt. eigenvalues --   -0.01607  -0.01000  -0.00486  -0.00288  -0.00100
 Alpha virt. eigenvalues --    0.00044   0.00224   0.00752   0.01278   0.01413

 Mulliken charges:
               1
     1  C    0.069371
     2  C   -0.000756
     3  O   -0.315354
     4  H   -0.010905
     5  H    0.023488
     6  H    0.026770
     7  N   -0.115315
     8  C    0.074933
     9  C    0.076901
    10  O   -0.284673
    11  C    0.087350
    12  C    0.063277
    13  O   -0.431544
    14  O   -0.360535
    15  H    0.111532
    16  H   -0.022427
    17  H    0.010481
    18  H   -0.019930
    19  N   -0.115469
    20  C    0.118833
    21  C    0.115918
    22  O   -0.240773
    23  C    0.008906
    24  C    0.022860
    25  C   -0.067618
    26  C    0.033079
    27  N    0.094444
    28  H    0.103200
    29  H   -0.029711
    30  H    0.009176
    31  H    0.035270
    32  H    0.023583
    33  H   -0.003153
    34  H    0.038534
    35  H    0.010147
    36  H    0.058269
    37  H    0.078229
    38  H    0.188747
    39  H    0.190292
    40  H    0.176437
    41  N   -0.136922
    42  C    0.099346
    43  C    0.057481
    44  O   -0.252083
    45  C    0.075602
    46  C    0.141429
    47  O   -0.418437
    48  O   -0.404840
    49  H    0.107914
    50  H    0.002253
    51  H    0.025923
    52  H   -0.007892
    53  N   -0.187326
    54  C    0.248783
    55  C    0.021102
    56  O   -0.273512
    57  H    0.129391
    58  H    0.036007
    59  H    0.071914
    60  N   -0.120561
    61  C    0.120839
    62  C    0.061135
    63  O   -0.265056
    64  C    0.074283
    65  C    0.008202
    66  N   -0.052302
    67  O   -0.240875
    68  H    0.113212
    69  H   -0.042375
    70  H    0.011385
    71  H    0.054543
    72  H    0.102579
    73  H    0.136772
    74  N   -0.085729
    75  C    0.177816
    76  C    0.049751
    77  O   -0.229964
    78  H    0.117722
    79  H    0.010890
    80  H    0.027013
    81  N   -0.162125
    82  C    0.123475
    83  C    0.071821
    84  O   -0.258875
    85  C    0.122269
    86  C   -0.056713
    87  C    0.065103
    88  C   -0.025288
    89  C   -0.016261
    90  C   -0.040213
    91  C    0.184382
    92  O   -0.225060
    93  H    0.111685
    94  H   -0.004966
    95  H   -0.033599
    96  H    0.029216
    97  H   -0.017885
    98  H   -0.045911
    99  H   -0.011815
   100  H   -0.051133
   101  H    0.173267
   102  N   -0.103027
   103  C    0.212229
   104  C    0.040896
   105  O   -0.293872
   106  C   -0.129267
   107  C    0.028979
   108  C    0.097632
   109  C    0.011750
   110  H    0.115182
   111  H    0.015767
   112  H    0.000994
   113  H   -0.017687
   114  H    0.007906
   115  H   -0.047253
   116  H    0.043063
   117  H   -0.019466
   118  H    0.021927
   119  H    0.021193
   120  H    0.013156
   121  N   -0.104844
   122  C    0.095964
   123  C    0.054614
   124  O   -0.286255
   125  C    0.216231
   126  O   -0.314960
   127  H    0.135020
   128  H    0.022308
   129  H    0.021832
   130  H   -0.020474
   131  H    0.173084
   132  N   -0.135874
   133  C    0.041791
   134  C    0.082527
   135  O   -0.296143
   136  C    0.076964
   137  H    0.132331
   138  H    0.021845
   139  H    0.020990
   140  H    0.007336
   141  H    0.035982
   142  N   -0.134056
   143  C    0.106104
   144  C    0.072027
   145  O   -0.258929
   146  C    0.067571
   147  H    0.157348
   148  H   -0.020753
   149  H    0.019881
   150  H   -0.000754
   151  H    0.026950
   152  N   -0.149811
   153  C    0.096569
   154  C    0.058223
   155  O   -0.296515
   156  C    0.042906
   157  C    0.054691
   158  C    0.127009
   159  O   -0.470767
   160  O   -0.444330
   161  H    0.121735
   162  H   -0.007585
   163  H    0.013365
   164  H    0.027466
   165  H    0.004074
   166  H   -0.003783
   167  N   -0.132911
   168  C    0.147630
   169  H    0.037328
   170  H    0.023863
   171  H    0.020543
   172  H    0.119464
   173  Ca   1.365685
   174  O   -0.305103
   175  H    0.195084
   176  H    0.190760
 Sum of Mulliken charges =  -0.00000

 Dipole moment (field-independent basis, Debye):
    X=              8.9874    Y=             13.0747    Z=            -29.8601  Tot=             33.8134
 Quadrupole moment (field-independent basis, Debye-Ang):
   XX=           -555.9830   YY=           -509.5990   ZZ=           -524.5206
   XY=           -287.7632   XZ=            151.0033   YZ=             29.5463

 ESP charges:
               1
     1  C   -0.422427
     2  C    0.788770
     3  O   -0.615482
     4  H    0.088263
     5  H    0.105878
     6  H    0.115657
     7  N   -0.882717
     8  C    0.703180
     9  C    0.315665
    10  O   -0.510162
    11  C   -0.432524
    12  C    0.764915
    13  O   -0.761264
    14  O   -0.679332
    15  H    0.372387
    16  H   -0.097452
    17  H    0.122576
    18  H    0.079960
    19  N   -0.433053
    20  C    0.234075
    21  C    0.527786
    22  O   -0.487410
    23  C    0.009205
    24  C   -0.046698
    25  C    0.064678
    26  C    0.011151
    27  N   -0.382177
    28  H    0.260168
    29  H   -0.031909
    30  H    0.033189
    31  H    0.049316
    32  H    0.024182
    33  H   -0.026076
    34  H    0.025895
    35  H   -0.003404
    36  H    0.048813
    37  H    0.098781
    38  H    0.348294
    39  H    0.336042
    40  H    0.314066
    41  N   -0.601375
    42  C    0.171460
    43  C    0.562095
    44  O   -0.519297
    45  C   -0.083976
    46  C    0.743329
    47  O   -0.727406
    48  O   -0.764050
    49  H    0.271419
    50  H    0.042180
    51  H    0.061568
    52  H   -0.024831
    53  N   -0.304828
    54  C   -0.165722
    55  C    0.561657
    56  O   -0.549199
    57  H    0.234939
    58  H    0.122814
    59  H    0.112256
    60  N   -0.337932
    61  C    0.008480
    62  C    0.767490
    63  O   -0.548108
    64  C   -0.589011
    65  C    0.827411
    66  N   -0.850749
    67  O   -0.562536
    68  H    0.184110
    69  H    0.021011
    70  H    0.154236
    71  H    0.245735
    72  H    0.367864
    73  H    0.387361
    74  N   -0.594680
    75  C   -0.037275
    76  C    0.689133
    77  O   -0.465667
    78  H    0.345309
    79  H    0.050038
    80  H    0.087898
    81  N   -0.887864
    82  C    0.491870
    83  C    0.194601
    84  O   -0.428801
    85  C    0.028626
    86  C   -0.169572
    87  C    0.047932
    88  C   -0.030425
    89  C   -0.415691
    90  C   -0.418733
    91  C    0.504882
    92  O   -0.568972
    93  H    0.367476
    94  H   -0.021618
    95  H    0.009271
    96  H    0.050474
    97  H    0.106730
    98  H    0.096614
    99  H    0.200161
   100  H    0.158989
   101  H    0.395539
   102  N   -0.284840
   103  C   -0.480792
   104  C    0.632752
   105  O   -0.517967
   106  C    0.317859
   107  C    0.033207
   108  C   -0.387287
   109  C   -0.257271
   110  H    0.306141
   111  H    0.214983
   112  H   -0.013959
   113  H   -0.004012
   114  H    0.047221
   115  H    0.074866
   116  H    0.126812
   117  H    0.081503
   118  H    0.081853
   119  H    0.102033
   120  H    0.066294
   121  N   -0.311255
   122  C   -0.399170
   123  C    0.819465
   124  O   -0.582352
   125  C    0.093218
   126  O   -0.602513
   127  H    0.351283
   128  H    0.169902
   129  H    0.074946
   130  H    0.049697
   131  H    0.428878
   132  N   -0.509678
   133  C    0.297225
   134  C    0.481692
   135  O   -0.541974
   136  C   -0.372560
   137  H    0.297905
   138  H    0.041324
   139  H    0.090285
   140  H    0.078885
   141  H    0.122882
   142  N   -0.494551
   143  C    0.266346
   144  C    0.622481
   145  O   -0.516734
   146  C   -0.130217
   147  H    0.173710
   148  H    0.004635
   149  H    0.061364
   150  H   -0.004661
   151  H    0.069857
   152  N   -0.727197
   153  C    0.180219
   154  C    0.274808
   155  O   -0.492252
   156  C    0.185146
   157  C   -0.191228
   158  C    0.800160
   159  O   -0.817554
   160  O   -0.799221
   161  H    0.331461
   162  H    0.058464
   163  H   -0.032197
   164  H    0.010684
   165  H    0.054776
   166  H    0.021941
   167  N   -0.111212
   168  C   -0.269747
   169  H    0.138097
   170  H    0.120078
   171  H    0.096394
   172  H    0.203785
   173  Ca   1.643246
   174  O   -0.821955
   175  H    0.389825
   176  H    0.448323
 Sum of ESP charges =  -0.00000

 Normal termination of Gaussian 16 at Tue Sep 17 10:18:27 2019.
