 Gaussian 16, Revision A.03,
 Gaussian 16:  ES64L-G16RevA.03 25-Dec-2016

 ----------------------------------------------------------------------
 #b3lyp/svp scf=(tight,noincore) Test #IOP(5/87=12) Density=Current Pop
 =(MK,readradii) iop(6/33=2) iop(6/42=6)
 ----------------------------------------------------------------------

 ----------------
 Ng-293_loop3_1.0
 ----------------
 Symbolic Z-matrix:
 Charge =  0 Multiplicity = 1

                         Standard orientation:
 ---------------------------------------------------------------------
 Center     Atomic      Atomic             Coordinates (Angstroms)
 Number     Number       Type             X           Y           Z
 ---------------------------------------------------------------------
      1          6           0       -8.567621   -2.050805    7.384132
      2          6           0       -9.138216   -1.982867    5.975158
      3          8           0      -10.284651   -1.601947    5.750690
      4          1           0       -7.565636   -2.478001    7.349837
      5          1           0       -8.519726   -1.046676    7.806482
      6          1           0       -9.207018   -2.676705    8.005864
      7          7           0       -8.331952   -2.316370    4.960016
      8          6           0       -8.807545   -2.379198    3.595478
      9          6           0       -7.675983   -1.862002    2.718509
     10          8           0       -6.572896   -1.755159    3.242325
     11          6           0       -9.271218   -3.790439    3.278291
     12          6           0       -9.944447   -3.935360    1.914671
     13          8           0      -10.502777   -2.977623    1.344928
     14          8           0      -10.032740   -5.054247    1.367225
     15          1           0       -7.366418   -2.403881    5.221714
     16          1           0       -9.696915   -1.771912    3.467320
     17          1           0      -10.019240   -4.044688    4.032560
     18          1           0       -8.438195   -4.453413    3.507067
     19          7           0       -8.060040   -1.537266    1.470652
     20          6           0       -7.215104   -0.971304    0.436306
     21          6           0       -6.082640   -1.867583   -0.067586
     22          8           0       -5.866950   -2.948394    0.478698
     23          6           0       -6.661828    0.417591    0.725711
     24          6           0       -7.629431    1.453891    1.313951
     25          6           0       -8.718574    1.732906    0.280017
     26          6           0       -9.743252    2.772076    0.710669
     27          7           0      -10.848369    2.949067   -0.249535
     28          1           0       -9.033538   -1.677231    1.265442
     29          1           0       -7.784737   -0.874654   -0.485148
     30          1           0       -6.350923    0.865744   -0.215723
     31          1           0       -5.943227    0.269125    1.525004
     32          1           0       -7.035417    2.372055    1.393468
     33          1           0       -8.012300    1.120714    2.272754
     34          1           0       -9.192821    0.751499    0.176912
     35          1           0       -8.246483    1.941459   -0.675930
     36          1           0       -9.286263    3.763131    0.793548
     37          1           0      -10.094854    2.429607    1.687803
     38          1           0      -11.495927    3.678942    0.008440
     39          1           0      -10.507521    3.224369   -1.160541
     40          1           0      -11.365609    2.087830   -0.278405
     41          7           0       -5.564895   -1.577801   -1.251168
     42          6           0       -4.963080   -2.542197   -2.155523
     43          6           0       -3.663998   -3.154555   -1.637737
     44          8           0       -2.878312   -2.426283   -1.021282
     45          6           0       -4.746474   -2.001381   -3.565594
     46          6           0       -4.327148   -0.544160   -3.673165
     47          8           0       -3.546760   -0.279712   -4.608399
     48          8           0       -4.893109    0.369859   -3.040980
     49          1           0       -5.784673   -0.670647   -1.649376
     50          1           0       -5.673306   -3.352869   -2.282371
     51          1           0       -5.700118   -2.123341   -4.095584
     52          1           0       -4.051681   -2.650640   -4.092400
     53          7           0       -3.297066   -4.350134   -2.105876
     54          6           0       -1.944899   -4.852112   -1.966373
     55          6           0       -0.856101   -4.139594   -2.753226
     56          8           0       -0.836117   -4.142927   -3.978253
     57          1           0       -3.855465   -4.777781   -2.832174
     58          1           0       -1.797305   -5.926198   -2.080632
     59          1           0       -1.614010   -4.788124   -0.932681
     60          7           0        0.176182   -3.655623   -2.048412
     61          6           0        1.231413   -2.850410   -2.643743
     62          6           0        2.600442   -3.269677   -2.152850
     63          8           0        3.532926   -2.462236   -2.177630
     64          6           0        1.061531   -1.361333   -2.352041
     65          6           0       -0.094056   -0.740392   -3.126606
     66          7           0       -1.189086   -0.385430   -2.448144
     67          8           0        0.038142   -0.531211   -4.326217
     68          1           0        0.207984   -3.875877   -1.063233
     69          1           0        1.313406   -3.058535   -3.712836
     70          1           0        1.932694   -0.832844   -2.724565
     71          1           0        0.888602   -1.237620   -1.285181
     72          1           0       -1.149370   -0.596638   -1.455514
     73          1           0       -2.006143   -0.272829   -3.032216
     74          7           0        2.830555   -4.556094   -1.855398
     75          6           0        4.154552   -5.154835   -1.836905
     76          6           0        5.084424   -4.670735   -0.728220
     77          8           0        4.642455   -4.555138    0.406109
     78          1           0        2.015981   -5.148385   -1.868137
     79          1           0        4.572508   -5.007676   -2.835282
     80          1           0        4.058521   -6.207174   -1.584594
     81          7           0        6.195016   -4.077429   -1.165339
     82          6           0        7.185087   -3.382333   -0.363341
     83          6           0        6.676071   -2.109475    0.282674
     84          8           0        7.353162   -1.375723    0.994402
     85          6           0        7.838651   -4.314650    0.651468
     86          6           0        9.149096   -3.973212    1.327821
     87          6           0        9.353793   -4.280386    2.677763
     88          6           0       10.235331   -3.665512    0.498355
     89          6           0       10.640448   -4.253437    3.224382
     90          6           0       11.515014   -3.586329    1.056065
     91          6           0       11.735540   -3.875410    2.420909
     92          8           0       12.996890   -4.057510    2.899278
     93          1           0        6.319342   -4.161306   -2.161837
     94          1           0        7.958832   -3.112883   -1.082865
     95          1           0        7.998719   -5.250370    0.127820
     96          1           0        7.090791   -4.598574    1.401330
     97          1           0        8.544980   -4.546341    3.349767
     98          1           0       10.101583   -3.501583   -0.565148
     99          1           0       10.881400   -4.691233    4.184422
    100          1           0       12.360551   -3.276459    0.452783
    101          1           0       13.694373   -4.104416    2.242226
    102          7           0        5.435759   -1.748705   -0.059187
    103          6           0        4.693306   -0.508004    0.068588
    104          6           0        5.420795    0.645506   -0.614913
    105          8           0        4.869080    1.128369   -1.594839
    106          6           0        4.368470   -0.187177    1.527201
    107          6           0        4.073011   -1.359796    2.446041
    108          6           0        3.297947    0.889809    1.678803
    109          6           0        2.819542   -2.140965    2.055155
    110          1           0        5.088872   -2.303553   -0.828871
    111          1           0        3.773387   -0.683415   -0.486012
    112          1           0        5.247811    0.348255    1.902530
    113          1           0        3.963762   -0.947827    3.457647
    114          1           0        4.940297   -2.015731    2.401730
    115          1           0        3.499101    1.802604    1.121899
    116          1           0        2.334289    0.516404    1.343942
    117          1           0        3.103152    1.165745    2.718281
    118          1           0        2.799835   -2.443867    1.007843
    119          1           0        2.892416   -3.017020    2.692428
    120          1           0        1.902964   -1.601729    2.293505
    121          7           0        6.554228    1.139533   -0.110267
    122          6           0        7.137338    2.384808   -0.577357
    123          6           0        6.466468    3.558208    0.119756
    124          8           0        6.249989    4.604866   -0.491589
    125          6           0        8.636043    2.345046   -0.322601
    126          8           0        9.035776    2.011274    0.986677
    127          1           0        7.005973    0.576291    0.590293
    128          1           0        6.921606    2.400153   -1.641793
    129          1           0        8.995266    3.306818   -0.704247
    130          1           0        9.181786    1.687463   -1.003078
    131          1           0        9.943405    2.257527    1.199911
    132          7           0        6.129090    3.485888    1.411401
    133          6           0        5.653340    4.623912    2.172364
    134          6           0        4.555040    5.430739    1.487042
    135          8           0        4.582351    6.656966    1.445540
    136          6           0        6.809357    5.523204    2.603869
    137          1           0        6.481280    2.717336    1.970409
    138          1           0        5.269366    4.259128    3.117031
    139          1           0        6.488955    6.266142    3.330564
    140          1           0        7.643407    4.912732    2.955700
    141          1           0        7.253866    6.063868    1.770565
    142          7           0        3.579138    4.775246    0.850062
    143          6           0        2.669304    5.527466    0.017435
    144          6           0        1.265178    5.208903    0.499875
    145          8           0        1.070288    4.269862    1.256459
    146          6           0        2.873422    5.265403   -1.478245
    147          1           0        3.401803    3.787659    0.935650
    148          1           0        2.832780    6.610742    0.058542
    149          1           0        2.721892    4.203203   -1.638150
    150          1           0        2.247927    5.926542   -2.072847
    151          1           0        3.892158    5.611528   -1.638482
    152          7           0        0.276515    6.018067    0.097880
    153          6           0       -1.133903    5.965076    0.425620
    154          6           0       -1.489084    5.898719    1.903403
    155          8           0       -2.614371    5.719880    2.362911
    156          6           0       -1.846659    4.931667   -0.448075
    157          6           0       -1.734104    5.161644   -1.947322
    158          6           0       -2.506319    4.223287   -2.873265
    159          8           0       -3.156494    4.658167   -3.851401
    160          8           0       -2.304003    2.999188   -2.769575
    161          1           0        0.548603    6.832303   -0.428130
    162          1           0       -1.504316    6.933439    0.086256
    163          1           0       -2.910414    5.070581   -0.265239
    164          1           0       -1.656156    3.896144   -0.185012
    165          1           0       -0.702424    5.111473   -2.297776
    166          1           0       -2.109503    6.182418   -2.049772
    167          7           0       -0.553895    6.214257    2.808476
    168          6           0       -0.556844    6.144906    4.251279
    169          1           0        0.133309    5.367391    4.578957
    170          1           0       -0.243804    7.104299    4.662387
    171          1           0       -1.561822    5.908979    4.602653
    172          1           0        0.345878    6.463137    2.436363
    173         20           0       -3.728846    2.402033   -4.973351
    174          8           0       -5.753450    1.034475   -5.846314
    175          1           0       -6.348044    0.489788   -5.331849
    176          1           0       -6.021396    0.883777   -6.747643
 ---------------------------------------------------------------------

 SCF Done:  E(RB3LYP) =  -5333.37227314     A.U. after   29 cycles

 The electronic state is 1-A.
 Alpha  occ. eigenvalues -- -145.47382 -19.23098 -19.15648 -19.14065 -19.11445
 Alpha  occ. eigenvalues --  -19.10889 -19.09546 -19.09236 -19.09036 -19.08995
 Alpha  occ. eigenvalues --  -19.08987 -19.08749 -19.08622 -19.08407 -19.07513
 Alpha  occ. eigenvalues --  -19.07480 -19.07254 -19.07212 -19.06135 -19.05655
 Alpha  occ. eigenvalues --  -19.05432 -19.03550 -18.97670 -18.96092 -15.53308
 Alpha  occ. eigenvalues --  -14.57163 -14.37696 -14.37598 -14.36457 -14.36100
 Alpha  occ. eigenvalues --  -14.35609 -14.34913 -14.33072 -14.33071 -14.33008
 Alpha  occ. eigenvalues --  -14.32868 -14.32415 -14.31096 -14.30809 -14.29384
 Alpha  occ. eigenvalues --  -12.66935 -12.66885 -12.66794 -10.33570 -10.29812
 Alpha  occ. eigenvalues --  -10.29694 -10.28495 -10.28025 -10.27662 -10.27505
 Alpha  occ. eigenvalues --  -10.27357 -10.27206 -10.27139 -10.26902 -10.26528
 Alpha  occ. eigenvalues --  -10.25928 -10.25437 -10.25402 -10.25015 -10.24814
 Alpha  occ. eigenvalues --  -10.24558 -10.24447 -10.24111 -10.24091 -10.23843
 Alpha  occ. eigenvalues --  -10.23777 -10.23581 -10.22920 -10.22919 -10.22750
 Alpha  occ. eigenvalues --  -10.22588 -10.21904 -10.21522 -10.21407 -10.20987
 Alpha  occ. eigenvalues --  -10.20761 -10.19891 -10.19080 -10.18903 -10.18892
 Alpha  occ. eigenvalues --  -10.18860 -10.18680 -10.18637 -10.18114 -10.17877
 Alpha  occ. eigenvalues --  -10.17421 -10.17402 -10.16931 -10.16911 -10.16750
 Alpha  occ. eigenvalues --  -10.16542 -10.16459 -10.15938 -10.15890 -10.15706
 Alpha  occ. eigenvalues --  -10.15307 -10.11167  -1.89945  -1.17608  -1.17190
 Alpha  occ. eigenvalues --   -1.16696  -1.12496  -1.09236  -1.05047  -1.04258
 Alpha  occ. eigenvalues --   -1.04176  -1.03957  -1.03366  -1.02950  -1.02830
 Alpha  occ. eigenvalues --   -1.02481  -1.02117  -1.01538  -1.01519  -1.00713
 Alpha  occ. eigenvalues --   -1.00594  -1.00236  -0.99509  -0.98381  -0.98287
 Alpha  occ. eigenvalues --   -0.96687  -0.94646  -0.94076  -0.93695  -0.92650
 Alpha  occ. eigenvalues --   -0.92427  -0.92383  -0.92165  -0.91667  -0.91478
 Alpha  occ. eigenvalues --   -0.90566  -0.90186  -0.89553  -0.89480  -0.89014
 Alpha  occ. eigenvalues --   -0.88995  -0.86948  -0.86051  -0.86040  -0.84505
 Alpha  occ. eigenvalues --   -0.81033  -0.80484  -0.80277  -0.79399  -0.79237
 Alpha  occ. eigenvalues --   -0.78854  -0.78059  -0.77217  -0.75700  -0.75371
 Alpha  occ. eigenvalues --   -0.74385  -0.74367  -0.73822  -0.73169  -0.72940
 Alpha  occ. eigenvalues --   -0.72452  -0.72439  -0.72230  -0.71484  -0.70938
 Alpha  occ. eigenvalues --   -0.68938  -0.68780  -0.68095  -0.67616  -0.67129
 Alpha  occ. eigenvalues --   -0.65974  -0.65659  -0.65296  -0.64528  -0.63110
 Alpha  occ. eigenvalues --   -0.62337  -0.62109  -0.61807  -0.61474  -0.61291
 Alpha  occ. eigenvalues --   -0.61137  -0.60716  -0.60171  -0.59794  -0.59390
 Alpha  occ. eigenvalues --   -0.59308  -0.58959  -0.58618  -0.58310  -0.58017
 Alpha  occ. eigenvalues --   -0.57477  -0.57078  -0.56793  -0.56369  -0.55717
 Alpha  occ. eigenvalues --   -0.55534  -0.55059  -0.54638  -0.54631  -0.54454
 Alpha  occ. eigenvalues --   -0.54075  -0.53745  -0.53272  -0.53018  -0.52896
 Alpha  occ. eigenvalues --   -0.52514  -0.52494  -0.52293  -0.51430  -0.51275
 Alpha  occ. eigenvalues --   -0.51260  -0.50715  -0.50581  -0.50274  -0.50148
 Alpha  occ. eigenvalues --   -0.49844  -0.49258  -0.49052  -0.48774  -0.48730
 Alpha  occ. eigenvalues --   -0.48587  -0.48117  -0.47765  -0.47255  -0.47087
 Alpha  occ. eigenvalues --   -0.46752  -0.46654  -0.46312  -0.46284  -0.45946
 Alpha  occ. eigenvalues --   -0.45607  -0.45442  -0.45323  -0.44924  -0.44795
 Alpha  occ. eigenvalues --   -0.44689  -0.44646  -0.44266  -0.44163  -0.44142
 Alpha  occ. eigenvalues --   -0.44035  -0.43888  -0.43600  -0.43067  -0.43034
 Alpha  occ. eigenvalues --   -0.42980  -0.42859  -0.42683  -0.42664  -0.42598
 Alpha  occ. eigenvalues --   -0.42373  -0.42198  -0.42085  -0.41648  -0.41620
 Alpha  occ. eigenvalues --   -0.41521  -0.41352  -0.41221  -0.40937  -0.40911
 Alpha  occ. eigenvalues --   -0.40852  -0.40650  -0.40600  -0.40525  -0.40444
 Alpha  occ. eigenvalues --   -0.40290  -0.40146  -0.39737  -0.39706  -0.39548
 Alpha  occ. eigenvalues --   -0.39495  -0.39350  -0.39308  -0.39208  -0.38968
 Alpha  occ. eigenvalues --   -0.38813  -0.38694  -0.38544  -0.38519  -0.38279
 Alpha  occ. eigenvalues --   -0.38139  -0.37998  -0.37980  -0.37814  -0.37449
 Alpha  occ. eigenvalues --   -0.37228  -0.37117  -0.36920  -0.36879  -0.36733
 Alpha  occ. eigenvalues --   -0.36589  -0.36493  -0.36416  -0.36174  -0.36089
 Alpha  occ. eigenvalues --   -0.35944  -0.35804  -0.35673  -0.35419  -0.35282
 Alpha  occ. eigenvalues --   -0.34909  -0.34804  -0.34546  -0.34506  -0.34265
 Alpha  occ. eigenvalues --   -0.33982  -0.33862  -0.33848  -0.33799  -0.33696
 Alpha  occ. eigenvalues --   -0.33638  -0.33081  -0.33064  -0.32976  -0.32486
 Alpha  occ. eigenvalues --   -0.32099  -0.31895  -0.31846  -0.30478  -0.30098
 Alpha  occ. eigenvalues --   -0.29964  -0.29317  -0.28838  -0.28122  -0.27968
 Alpha  occ. eigenvalues --   -0.27953  -0.27864  -0.27562  -0.27066  -0.26830
 Alpha  occ. eigenvalues --   -0.26710  -0.26693  -0.26485  -0.26026  -0.25853
 Alpha  occ. eigenvalues --   -0.25760  -0.25652  -0.25620  -0.25292  -0.24983
 Alpha  occ. eigenvalues --   -0.24922  -0.24746  -0.24444  -0.24229  -0.23647
 Alpha  occ. eigenvalues --   -0.23560  -0.23438  -0.23376  -0.23106  -0.22990
 Alpha  occ. eigenvalues --   -0.22849  -0.22628  -0.22483  -0.21899  -0.21881
 Alpha  occ. eigenvalues --   -0.21412  -0.21316  -0.20808  -0.20296  -0.19501
 Alpha  occ. eigenvalues --   -0.15289  -0.14281  -0.11224
 Alpha virt. eigenvalues --   -0.10238  -0.09652  -0.03616  -0.02678  -0.02597
 Alpha virt. eigenvalues --   -0.01160  -0.00852  -0.00256   0.00203   0.00276
 Alpha virt. eigenvalues --    0.00630   0.00842   0.01324   0.01741   0.02161

 Mulliken charges:
               1
     1  C    0.077582
     2  C   -0.008714
     3  O   -0.313821
     4  H   -0.010779
     5  H    0.024336
     6  H    0.031866
     7  N   -0.123536
     8  C    0.070720
     9  C    0.099726
    10  O   -0.285634
    11  C    0.100209
    12  C    0.052503
    13  O   -0.401091
    14  O   -0.338656
    15  H    0.113773
    16  H   -0.011422
    17  H    0.007245
    18  H   -0.023861
    19  N   -0.114042
    20  C    0.062428
    21  C    0.088784
    22  O   -0.243985
    23  C    0.050591
    24  C    0.051916
    25  C   -0.106383
    26  C    0.055898
    27  N    0.101001
    28  H    0.104792
    29  H   -0.025826
    30  H   -0.000256
    31  H    0.036569
    32  H    0.016274
    33  H    0.039083
    34  H    0.037791
    35  H    0.002187
    36  H    0.057967
    37  H    0.091768
    38  H    0.166749
    39  H    0.164787
    40  H    0.182491
    41  N   -0.105246
    42  C    0.091671
    43  C    0.118392
    44  O   -0.292018
    45  C    0.086758
    46  C    0.103651
    47  O   -0.422648
    48  O   -0.399515
    49  H    0.112171
    50  H   -0.012496
    51  H   -0.003067
    52  H    0.013796
    53  N   -0.108873
    54  C    0.224769
    55  C    0.032231
    56  O   -0.269259
    57  H    0.126253
    58  H    0.030624
    59  H   -0.015036
    60  N   -0.171722
    61  C    0.100937
    62  C    0.063580
    63  O   -0.297344
    64  C    0.137158
    65  C   -0.032758
    66  N   -0.032193
    67  O   -0.285109
    68  H    0.130004
    69  H    0.059711
    70  H    0.055686
    71  H   -0.018293
    72  H    0.131757
    73  H    0.139958
    74  N   -0.104921
    75  C    0.205022
    76  C    0.031093
    77  O   -0.252228
    78  H    0.113189
    79  H    0.008144
    80  H    0.025461
    81  N   -0.154130
    82  C    0.110750
    83  C    0.081882
    84  O   -0.288701
    85  C    0.094734
    86  C    0.077743
    87  C   -0.011236
    88  C   -0.012131
    89  C   -0.029040
    90  C   -0.057655
    91  C    0.167905
    92  O   -0.211478
    93  H    0.124333
    94  H    0.010975
    95  H   -0.002843
    96  H    0.015553
    97  H   -0.020187
    98  H   -0.037458
    99  H   -0.018693
   100  H   -0.045485
   101  H    0.174419
   102  N   -0.127728
   103  C    0.189590
   104  C    0.026875
   105  O   -0.262470
   106  C   -0.100620
   107  C    0.066914
   108  C    0.051123
   109  C    0.012869
   110  H    0.141639
   111  H   -0.001260
   112  H   -0.037784
   113  H   -0.012138
   114  H    0.002709
   115  H    0.001614
   116  H   -0.000144
   117  H    0.001217
   118  H    0.004164
   119  H    0.008060
   120  H    0.006512
   121  N   -0.167975
   122  C    0.153637
   123  C    0.065222
   124  O   -0.269535
   125  C    0.226766
   126  O   -0.315172
   127  H    0.144084
   128  H    0.019666
   129  H   -0.004200
   130  H   -0.009687
   131  H    0.180982
   132  N   -0.123468
   133  C    0.067118
   134  C    0.091695
   135  O   -0.282269
   136  C    0.082741
   137  H    0.125724
   138  H    0.008350
   139  H    0.016980
   140  H   -0.018558
   141  H    0.019834
   142  N   -0.119858
   143  C    0.019424
   144  C    0.059520
   145  O   -0.264905
   146  C    0.084081
   147  H    0.132935
   148  H    0.017881
   149  H    0.028139
   150  H   -0.013775
   151  H    0.047300
   152  N   -0.143720
   153  C    0.107153
   154  C    0.075037
   155  O   -0.283599
   156  C    0.037787
   157  C    0.092907
   158  C    0.091088
   159  O   -0.463791
   160  O   -0.392489
   161  H    0.115993
   162  H    0.004397
   163  H   -0.004755
   164  H    0.033141
   165  H    0.019763
   166  H   -0.031572
   167  N   -0.130357
   168  C    0.127093
   169  H    0.028336
   170  H    0.014570
   171  H    0.038346
   172  H    0.102223
   173  Ca   1.341961
   174  O   -0.303211
   175  H    0.200558
   176  H    0.179747
 Sum of Mulliken charges =  -0.00000

 Dipole moment (field-independent basis, Debye):
    X=             -3.4624    Y=             17.8990    Z=            -21.2849  Tot=             28.0251
 Quadrupole moment (field-independent basis, Debye-Ang):
   XX=           -421.8526   YY=           -559.8826   ZZ=           -505.9081
   XY=           -305.9240   XZ=            157.4454   YZ=             12.1489

 ESP charges:
               1
     1  C   -0.429417
     2  C    0.686059
     3  O   -0.595738
     4  H    0.092526
     5  H    0.112191
     6  H    0.126962
     7  N   -0.682121
     8  C    0.482133
     9  C    0.544856
    10  O   -0.543015
    11  C   -0.449033
    12  C    0.757133
    13  O   -0.697674
    14  O   -0.657986
    15  H    0.332025
    16  H   -0.039677
    17  H    0.138201
    18  H    0.085860
    19  N   -0.690786
    20  C    0.654690
    21  C    0.430324
    22  O   -0.481720
    23  C   -0.410278
    24  C    0.068921
    25  C   -0.029676
    26  C    0.015014
    27  N   -0.290868
    28  H    0.268300
    29  H   -0.079855
    30  H    0.112684
    31  H    0.124578
    32  H    0.020799
    33  H    0.013822
    34  H    0.024244
    35  H    0.026815
    36  H    0.066055
    37  H    0.094518
    38  H    0.297910
    39  H    0.285037
    40  H    0.302518
    41  N   -0.636009
    42  C    0.322107
    43  C    0.578562
    44  O   -0.503220
    45  C   -0.328495
    46  C    0.953245
    47  O   -0.793799
    48  O   -0.780252
    49  H    0.284470
    50  H    0.006344
    51  H    0.067213
    52  H    0.083045
    53  N   -0.645567
    54  C    0.250842
    55  C    0.460265
    56  O   -0.504724
    57  H    0.323934
    58  H    0.027169
    59  H    0.031807
    60  N   -0.685765
    61  C    0.443590
    62  C    0.463617
    63  O   -0.492175
    64  C   -0.363441
    65  C    0.754553
    66  N   -0.725115
    67  O   -0.611274
    68  H    0.298935
    69  H    0.022382
    70  H    0.086540
    71  H    0.097745
    72  H    0.336414
    73  H    0.344987
    74  N   -0.311037
    75  C   -0.296476
    76  C    0.597092
    77  O   -0.499615
    78  H    0.272652
    79  H    0.112643
    80  H    0.156900
    81  N   -0.663588
    82  C    0.400636
    83  C    0.325544
    84  O   -0.539536
    85  C   -0.053019
    86  C    0.091077
    87  C   -0.198741
    88  C   -0.203447
    89  C   -0.199087
    90  C   -0.279461
    91  C    0.371363
    92  O   -0.567545
    93  H    0.345350
    94  H   -0.005503
    95  H    0.010818
    96  H    0.062370
    97  H    0.140266
    98  H    0.146588
    99  H    0.141803
   100  H    0.131408
   101  H    0.411626
   102  N   -0.355358
   103  C   -0.079709
   104  C    0.592383
   105  O   -0.540298
   106  C    0.450717
   107  C    0.008074
   108  C   -0.432592
   109  C   -0.164065
   110  H    0.257158
   111  H    0.056706
   112  H   -0.149883
   113  H   -0.008415
   114  H    0.021671
   115  H    0.060535
   116  H    0.094182
   117  H    0.100578
   118  H    0.007765
   119  H    0.047850
   120  H    0.044920
   121  N   -0.377915
   122  C   -0.226683
   123  C    0.636866
   124  O   -0.544459
   125  C    0.260337
   126  O   -0.640832
   127  H    0.334147
   128  H    0.136026
   129  H    0.002350
   130  H    0.023753
   131  H    0.424954
   132  N   -0.403586
   133  C    0.238765
   134  C    0.570834
   135  O   -0.549075
   136  C   -0.279231
   137  H    0.281852
   138  H    0.022205
   139  H    0.071780
   140  H    0.042663
   141  H    0.099156
   142  N   -0.894322
   143  C    0.964251
   144  C    0.273680
   145  O   -0.440902
   146  C   -0.363612
   147  H    0.338570
   148  H   -0.113587
   149  H    0.084963
   150  H    0.040072
   151  H    0.104001
   152  N   -0.651273
   153  C   -0.004756
   154  C    0.380705
   155  O   -0.515923
   156  C    0.306557
   157  C    0.010217
   158  C    0.743933
   159  O   -0.838494
   160  O   -0.783037
   161  H    0.313227
   162  H    0.093992
   163  H   -0.093455
   164  H   -0.002187
   165  H    0.004819
   166  H   -0.029018
   167  N   -0.191486
   168  C   -0.027585
   169  H    0.057311
   170  H    0.026613
   171  H    0.075230
   172  H    0.201189
   173  Ca   1.644916
   174  O   -0.880905
   175  H    0.426957
   176  H    0.447870
 Sum of ESP charges =  -0.00000

 Normal termination of Gaussian 16 at Mon Sep 16 23:54:24 2019.
