 Gaussian 16, Revision A.03,
 Gaussian 16:  ES64L-G16RevA.03 25-Dec-2016

 ----------------------------------------------------------------------
 #b3lyp/svp scf=(tight,noincore) Test #IOP(5/87=12) Density=Current Pop
 =(MK,readradii) iop(6/33=2) iop(6/42=6)
 ----------------------------------------------------------------------

 -----------------
 Ng-293_loop3_10.0
 -----------------
 Symbolic Z-matrix:
 Charge =  0 Multiplicity = 1

                         Standard orientation:
 ---------------------------------------------------------------------
 Center     Atomic      Atomic             Coordinates (Angstroms)
 Number     Number       Type             X           Y           Z
 ---------------------------------------------------------------------
      1          6           0       -7.067224   -2.550943    6.837539
      2          6           0       -6.518937   -2.480493    5.409492
      3          8           0       -6.560873   -1.384100    4.872218
      4          1           0       -6.482804   -3.267090    7.415984
      5          1           0       -6.998799   -1.567542    7.302564
      6          1           0       -8.108968   -2.868925    6.811730
      7          7           0       -6.044411   -3.595587    4.832353
      8          6           0       -5.595389   -3.684185    3.458624
      9          6           0       -6.555240   -3.421847    2.305167
     10          8           0       -6.949529   -4.354632    1.613034
     11          6           0       -4.289800   -2.923623    3.240717
     12          6           0       -3.216710   -3.319245    4.242147
     13          8           0       -3.072194   -2.647391    5.284178
     14          8           0       -2.615950   -4.396085    4.053726
     15          1           0       -5.918252   -4.429131    5.387410
     16          1           0       -5.283256   -4.712358    3.310522
     17          1           0       -4.470415   -1.855838    3.411928
     18          1           0       -3.875378   -3.116117    2.250666
     19          7           0       -6.834365   -2.143150    2.052335
     20          6           0       -7.832634   -1.788284    1.062775
     21          6           0       -7.597972   -2.296360   -0.349525
     22          8           0       -8.518775   -2.860743   -0.939859
     23          6           0       -8.064100   -0.282749    1.145164
     24          6           0       -7.068715    0.647736    0.458428
     25          6           0       -5.675073    0.547403    1.076648
     26          6           0       -4.723521    1.391214    0.225394
     27          7           0       -4.378081    0.713085   -1.036871
     28          1           0       -6.599740   -1.439920    2.726811
     29          1           0       -8.720619   -2.264111    1.471031
     30          1           0       -8.128091    0.054860    2.176922
     31          1           0       -9.009474   -0.056156    0.637007
     32          1           0       -7.493076    1.613433    0.711895
     33          1           0       -6.985688    0.605764   -0.630215
     34          1           0       -5.207400   -0.429347    1.101932
     35          1           0       -5.767687    0.892261    2.103096
     36          1           0       -3.763401    1.606655    0.692465
     37          1           0       -5.228342    2.344373    0.066831
     38          1           0       -3.803258    1.278965   -1.630385
     39          1           0       -3.886311   -0.149531   -0.872689
     40          1           0       -5.166513    0.406456   -1.593427
     41          7           0       -6.346509   -2.288215   -0.813072
     42          6           0       -5.721616   -2.922270   -1.958446
     43          6           0       -4.226943   -2.936573   -1.673230
     44          8           0       -3.757112   -2.127350   -0.878991
     45          6           0       -6.103101   -2.273821   -3.291931
     46          6           0       -5.713378   -0.807662   -3.410225
     47          8           0       -4.611906   -0.556456   -3.938765
     48          8           0       -6.495914    0.036345   -2.917590
     49          1           0       -5.643561   -1.977395   -0.166655
     50          1           0       -6.038365   -3.964058   -2.030897
     51          1           0       -7.165012   -2.450815   -3.440316
     52          1           0       -5.577962   -2.834989   -4.063760
     53          7           0       -3.413372   -3.860310   -2.197168
     54          6           0       -2.028588   -4.111895   -1.831820
     55          6           0       -1.090775   -3.012291   -2.316357
     56          8           0       -1.411039   -2.280741   -3.244939
     57          1           0       -3.833392   -4.533266   -2.829080
     58          1           0       -1.739423   -5.052718   -2.301857
     59          1           0       -1.998686   -4.330547   -0.766035
     60          7           0       -0.010162   -2.783175   -1.576167
     61          6           0        0.975414   -1.732666   -1.763705
     62          6           0        2.407592   -2.236204   -1.677595
     63          8           0        3.296056   -1.435312   -1.983708
     64          6           0        0.711127   -0.623444   -0.745924
     65          6           0       -0.625043    0.044405   -1.049943
     66          7           0       -0.823516    0.542470   -2.275765
     67          8           0       -1.474734    0.158061   -0.156462
     68          1           0        0.135728   -3.272846   -0.714576
     69          1           0        0.827029   -1.362208   -2.774567
     70          1           0        1.500698    0.097143   -0.948735
     71          1           0        0.726416   -0.983183    0.281381
     72          1           0       -0.085173    0.391888   -2.939598
     73          1           0       -1.685101    0.940215   -2.606478
     74          7           0        2.729967   -3.477357   -1.324165
     75          6           0        4.051583   -4.026120   -1.513609
     76          6           0        5.097867   -3.731891   -0.442992
     77          8           0        4.846799   -3.992881    0.723605
     78          1           0        2.026522   -4.015934   -0.828686
     79          1           0        4.310715   -3.633398   -2.506192
     80          1           0        3.901862   -5.091442   -1.708731
     81          7           0        6.123579   -2.956179   -0.807663
     82          6           0        7.038463   -2.304319    0.103471
     83          6           0        6.435724   -1.186401    0.942438
     84          8           0        7.137076   -0.543287    1.712054
     85          6           0        7.922737   -3.295012    0.858447
     86          6           0        8.635292   -4.277972   -0.049272
     87          6           0        9.334951   -3.859678   -1.178168
     88          6           0        8.560504   -5.632165    0.313316
     89          6           0        9.827299   -4.825097   -2.061379
     90          6           0        9.132194   -6.574056   -0.551156
     91          6           0        9.773403   -6.197858   -1.742595
     92          8           0       10.329060   -7.122150   -2.571949
     93          1           0        6.078883   -2.519341   -1.721870
     94          1           0        7.637411   -1.755346   -0.624327
     95          1           0        7.367078   -3.848112    1.610925
     96          1           0        8.754006   -2.740694    1.296195
     97          1           0        9.408277   -2.827384   -1.482620
     98          1           0        8.045631   -5.937273    1.222114
     99          1           0       10.272211   -4.480203   -2.990734
    100          1           0        9.136261   -7.611235   -0.237399
    101          1           0       10.170647   -8.016885   -2.261378
    102          7           0        5.184284   -0.831151    0.640122
    103          6           0        4.412009    0.348936    1.008884
    104          6           0        4.883491    1.642025    0.345464
    105          8           0        4.165827    2.235523   -0.456171
    106          6           0        4.256272    0.506879    2.515934
    107          6           0        3.771416   -0.726710    3.257334
    108          6           0        3.342226    1.647861    2.936384
    109          6           0        2.509540   -1.427520    2.756200
    110          1           0        4.803227   -1.505833   -0.015850
    111          1           0        3.404894    0.333150    0.596853
    112          1           0        5.215545    0.840767    2.923259
    113          1           0        3.685963   -0.515959    4.325782
    114          1           0        4.627661   -1.386999    3.107794
    115          1           0        3.307683    1.619483    4.025467
    116          1           0        3.827893    2.557455    2.576989
    117          1           0        2.331990    1.691068    2.527536
    118          1           0        1.750795   -0.659281    2.602853
    119          1           0        2.726589   -1.929216    1.805364
    120          1           0        2.203100   -2.208630    3.454815
    121          7           0        6.095396    2.098213    0.650223
    122          6           0        6.643538    3.318302    0.095405
    123          6           0        5.776831    4.530965    0.396186
    124          8           0        5.568930    5.378719   -0.470988
    125          6           0        8.108394    3.344026    0.520653
    126          8           0        8.220534    3.154266    1.917046
    127          1           0        6.598569    1.553763    1.337894
    128          1           0        6.548726    3.305867   -0.992416
    129          1           0        8.529135    4.304497    0.222869
    130          1           0        8.731870    2.559888    0.082012
    131          1           0        8.836292    3.864020    2.090230
    132          7           0        5.222155    4.621067    1.607018
    133          6           0        4.216936    5.603695    1.982621
    134          6           0        2.922721    5.785762    1.203673
    135          8           0        2.130292    6.619649    1.622825
    136          6           0        4.868887    6.917086    2.408016
    137          1           0        5.541684    4.068619    2.388557
    138          1           0        4.001217    5.171203    2.969392
    139          1           0        5.073217    7.581485    1.573196
    140          1           0        4.159883    7.410498    3.061512
    141          1           0        5.858282    6.754481    2.841557
    142          7           0        2.703634    5.083383    0.088790
    143          6           0        1.563818    5.273236   -0.777337
    144          6           0        0.237254    4.985916   -0.082878
    145          8           0        0.076229    4.035428    0.692973
    146          6           0        1.821789    4.426891   -2.023713
    147          1           0        3.472606    4.568780   -0.333070
    148          1           0        1.571061    6.347514   -0.950753
    149          1           0        2.098113    3.423897   -1.699603
    150          1           0        0.987543    4.383435   -2.727378
    151          1           0        2.667394    4.801353   -2.605546
    152          7           0       -0.852421    5.618116   -0.521319
    153          6           0       -2.215734    5.254907   -0.184338
    154          6           0       -2.558853    5.270717    1.291304
    155          8           0       -3.675535    4.925589    1.660636
    156          6           0       -2.751878    4.091321   -1.010666
    157          6           0       -2.394569    4.275822   -2.477700
    158          6           0       -3.267641    3.394234   -3.362826
    159          8           0       -3.662670    3.842907   -4.462846
    160          8           0       -3.275988    2.173096   -3.139098
    161          1           0       -0.636783    6.319615   -1.215798
    162          1           0       -2.790228    6.134900   -0.500358
    163          1           0       -3.839246    4.095948   -0.905741
    164          1           0       -2.423466    3.098382   -0.727614
    165          1           0       -1.344731    4.017939   -2.575355
    166          1           0       -2.574187    5.305696   -2.796756
    167          7           0       -1.759154    5.841783    2.204577
    168          6           0       -1.971623    5.775361    3.635850
    169          1           0       -1.241893    5.098249    4.079399
    170          1           0       -1.853810    6.769280    4.067466
    171          1           0       -2.977559    5.407293    3.838294
    172          1           0       -0.851829    6.156781    1.905683
    173         20           0       -3.628723    1.238700   -5.488690
    174          8           0       -6.079916    1.888451   -5.136587
    175          1           0       -6.709961    1.467805   -4.555640
    176          1           0       -6.611819    2.193828   -5.882726
 ---------------------------------------------------------------------

 SCF Done:  E(RB3LYP) =  -5333.45757730     A.U. after   57 cycles

 The electronic state is 1-A.
 Alpha  occ. eigenvalues -- -145.47614 -19.18706 -19.17336 -19.15974 -19.13614
 Alpha  occ. eigenvalues --  -19.12796 -19.12741 -19.12605 -19.12245 -19.11080
 Alpha  occ. eigenvalues --  -19.11052 -19.10760 -19.10387 -19.10290 -19.10172
 Alpha  occ. eigenvalues --  -19.09487 -19.08957 -19.08934 -19.07074 -19.06914
 Alpha  occ. eigenvalues --  -19.06831 -19.06715 -19.01533 -19.01418 -15.53598
 Alpha  occ. eigenvalues --  -14.40502 -14.40383 -14.39169 -14.38754 -14.38662
 Alpha  occ. eigenvalues --  -14.36647 -14.36426 -14.36120 -14.36038 -14.35920
 Alpha  occ. eigenvalues --  -14.34577 -14.33421 -14.32755 -14.32753 -14.32088
 Alpha  occ. eigenvalues --  -12.67183 -12.67145 -12.67119 -10.32402 -10.31827
 Alpha  occ. eigenvalues --  -10.31575 -10.31138 -10.29832 -10.29789 -10.29656
 Alpha  occ. eigenvalues --  -10.29328 -10.29010 -10.28615 -10.28309 -10.27940
 Alpha  occ. eigenvalues --  -10.27506 -10.26928 -10.26705 -10.26607 -10.26165
 Alpha  occ. eigenvalues --  -10.26159 -10.26156 -10.25776 -10.25590 -10.25014
 Alpha  occ. eigenvalues --  -10.24902 -10.24558 -10.24079 -10.24006 -10.23985
 Alpha  occ. eigenvalues --  -10.23776 -10.22635 -10.21736 -10.20551 -10.20240
 Alpha  occ. eigenvalues --  -10.20127 -10.19992 -10.19976 -10.19966 -10.19919
 Alpha  occ. eigenvalues --  -10.19871 -10.19700 -10.19674 -10.19418 -10.19378
 Alpha  occ. eigenvalues --  -10.18904 -10.18902 -10.18743 -10.17996 -10.17977
 Alpha  occ. eigenvalues --  -10.17665 -10.17264 -10.16999 -10.16954 -10.16941
 Alpha  occ. eigenvalues --  -10.16196 -10.12954  -1.90450  -1.17976  -1.17599
 Alpha  occ. eigenvalues --   -1.17465  -1.07321  -1.06641  -1.06568  -1.06091
 Alpha  occ. eigenvalues --   -1.06013  -1.05523  -1.05344  -1.04751  -1.04436
 Alpha  occ. eigenvalues --   -1.04022  -1.03912  -1.03424  -1.02904  -1.02329
 Alpha  occ. eigenvalues --   -1.02037  -1.00540  -1.00513  -0.99775  -0.99099
 Alpha  occ. eigenvalues --   -0.97693  -0.96850  -0.96078  -0.95717  -0.95615
 Alpha  occ. eigenvalues --   -0.95481  -0.94559  -0.94523  -0.93791  -0.93140
 Alpha  occ. eigenvalues --   -0.92577  -0.92243  -0.91782  -0.91075  -0.90935
 Alpha  occ. eigenvalues --   -0.89779  -0.89170  -0.88669  -0.86082  -0.85480
 Alpha  occ. eigenvalues --   -0.82375  -0.82131  -0.80465  -0.80425  -0.80139
 Alpha  occ. eigenvalues --   -0.79005  -0.78973  -0.77434  -0.77100  -0.75986
 Alpha  occ. eigenvalues --   -0.75957  -0.75472  -0.75263  -0.74659  -0.73565
 Alpha  occ. eigenvalues --   -0.73375  -0.73108  -0.70784  -0.70306  -0.69572
 Alpha  occ. eigenvalues --   -0.68842  -0.68302  -0.67811  -0.67336  -0.67273
 Alpha  occ. eigenvalues --   -0.66717  -0.64669  -0.64438  -0.63550  -0.63312
 Alpha  occ. eigenvalues --   -0.63269  -0.62956  -0.62666  -0.62482  -0.62184
 Alpha  occ. eigenvalues --   -0.61630  -0.61295  -0.60711  -0.60677  -0.59783
 Alpha  occ. eigenvalues --   -0.59348  -0.59317  -0.58621  -0.58391  -0.58112
 Alpha  occ. eigenvalues --   -0.58043  -0.57833  -0.57767  -0.57237  -0.56964
 Alpha  occ. eigenvalues --   -0.56303  -0.56022  -0.55672  -0.55633  -0.55593
 Alpha  occ. eigenvalues --   -0.55501  -0.55035  -0.54762  -0.54351  -0.54051
 Alpha  occ. eigenvalues --   -0.53965  -0.53505  -0.53105  -0.52708  -0.52479
 Alpha  occ. eigenvalues --   -0.51866  -0.51753  -0.51019  -0.50863  -0.50201
 Alpha  occ. eigenvalues --   -0.50074  -0.49902  -0.49667  -0.49591  -0.49236
 Alpha  occ. eigenvalues --   -0.49168  -0.48881  -0.48834  -0.48693  -0.48557
 Alpha  occ. eigenvalues --   -0.48548  -0.48036  -0.47554  -0.47164  -0.47041
 Alpha  occ. eigenvalues --   -0.46676  -0.46467  -0.46298  -0.46008  -0.45878
 Alpha  occ. eigenvalues --   -0.45718  -0.45630  -0.45604  -0.45348  -0.45263
 Alpha  occ. eigenvalues --   -0.45171  -0.44721  -0.44505  -0.44376  -0.44315
 Alpha  occ. eigenvalues --   -0.44230  -0.44152  -0.43932  -0.43794  -0.43662
 Alpha  occ. eigenvalues --   -0.43646  -0.43417  -0.43392  -0.43218  -0.43092
 Alpha  occ. eigenvalues --   -0.43055  -0.42765  -0.42471  -0.42342  -0.42310
 Alpha  occ. eigenvalues --   -0.42205  -0.42129  -0.41902  -0.41824  -0.41612
 Alpha  occ. eigenvalues --   -0.41420  -0.41244  -0.41198  -0.41102  -0.40955
 Alpha  occ. eigenvalues --   -0.40777  -0.40660  -0.40592  -0.40491  -0.40099
 Alpha  occ. eigenvalues --   -0.40028  -0.39959  -0.39950  -0.39837  -0.39508
 Alpha  occ. eigenvalues --   -0.39388  -0.39123  -0.38971  -0.38776  -0.38679
 Alpha  occ. eigenvalues --   -0.38660  -0.38436  -0.38229  -0.38160  -0.38076
 Alpha  occ. eigenvalues --   -0.37919  -0.37767  -0.37593  -0.37471  -0.37172
 Alpha  occ. eigenvalues --   -0.37158  -0.36674  -0.36594  -0.36481  -0.36479
 Alpha  occ. eigenvalues --   -0.36433  -0.36370  -0.36117  -0.35910  -0.35846
 Alpha  occ. eigenvalues --   -0.35548  -0.35466  -0.35410  -0.35363  -0.34711
 Alpha  occ. eigenvalues --   -0.34397  -0.33889  -0.33722  -0.33710  -0.33647
 Alpha  occ. eigenvalues --   -0.33538  -0.33523  -0.32453  -0.32314  -0.31576
 Alpha  occ. eigenvalues --   -0.31461  -0.31031  -0.30865  -0.30829  -0.30525
 Alpha  occ. eigenvalues --   -0.30262  -0.30061  -0.29859  -0.29581  -0.29183
 Alpha  occ. eigenvalues --   -0.28910  -0.28901  -0.28864  -0.28785  -0.28440
 Alpha  occ. eigenvalues --   -0.28011  -0.27727  -0.27604  -0.27211  -0.26961
 Alpha  occ. eigenvalues --   -0.26915  -0.26557  -0.26465  -0.26370  -0.26331
 Alpha  occ. eigenvalues --   -0.25760  -0.25660  -0.25293  -0.25082  -0.24933
 Alpha  occ. eigenvalues --   -0.24792  -0.24366  -0.23998  -0.23780  -0.23220
 Alpha  occ. eigenvalues --   -0.23046  -0.22858  -0.22808  -0.21834  -0.21276
 Alpha  occ. eigenvalues --   -0.18191  -0.17479  -0.14964
 Alpha virt. eigenvalues --   -0.14078  -0.03320  -0.03002  -0.02702  -0.02279
 Alpha virt. eigenvalues --   -0.01373  -0.01214  -0.01041  -0.00535  -0.00416
 Alpha virt. eigenvalues --    0.00001   0.00106   0.00768   0.01085   0.01251

 Mulliken charges:
               1
     1  C    0.050285
     2  C    0.057334
     3  O   -0.302346
     4  H    0.013898
     5  H    0.032926
     6  H    0.029135
     7  N   -0.104448
     8  C    0.085251
     9  C    0.070990
    10  O   -0.263840
    11  C    0.067530
    12  C    0.037486
    13  O   -0.298203
    14  O   -0.323083
    15  H    0.130134
    16  H   -0.013235
    17  H    0.006278
    18  H   -0.020027
    19  N   -0.150961
    20  C    0.117284
    21  C    0.092409
    22  O   -0.267798
    23  C    0.049873
    24  C   -0.040723
    25  C   -0.050916
    26  C    0.075366
    27  N    0.041840
    28  H    0.140862
    29  H    0.004139
    30  H    0.013515
    31  H    0.008508
    32  H   -0.001238
    33  H    0.030814
    34  H    0.034913
    35  H    0.035082
    36  H    0.064259
    37  H    0.039806
    38  H    0.145047
    39  H    0.164516
    40  H    0.136281
    41  N   -0.143541
    42  C    0.050495
    43  C    0.105156
    44  O   -0.319850
    45  C    0.187465
    46  C    0.116985
    47  O   -0.470397
    48  O   -0.384967
    49  H    0.137114
    50  H    0.015979
    51  H    0.031714
    52  H   -0.033248
    53  N   -0.103222
    54  C    0.168253
    55  C    0.076130
    56  O   -0.277805
    57  H    0.124310
    58  H    0.026448
    59  H    0.053973
    60  N   -0.146308
    61  C    0.051422
    62  C    0.085218
    63  O   -0.307868
    64  C    0.098461
    65  C    0.042410
    66  N   -0.043994
    67  O   -0.267043
    68  H    0.123626
    69  H    0.020715
    70  H    0.072702
    71  H    0.023349
    72  H    0.097628
    73  H    0.106052
    74  N   -0.120220
    75  C    0.186585
    76  C    0.074978
    77  O   -0.251703
    78  H    0.117756
    79  H    0.008586
    80  H    0.032827
    81  N   -0.158871
    82  C    0.066281
    83  C    0.077291
    84  O   -0.285624
    85  C    0.202173
    86  C   -0.043732
    87  C   -0.005908
    88  C    0.000119
    89  C   -0.049345
    90  C   -0.060929
    91  C    0.190480
    92  O   -0.192264
    93  H    0.137356
    94  H    0.014830
    95  H    0.011833
    96  H    0.024080
    97  H   -0.038349
    98  H   -0.015696
    99  H   -0.024648
   100  H   -0.040274
   101  H    0.174942
   102  N   -0.115200
   103  C    0.214417
   104  C    0.029339
   105  O   -0.277946
   106  C   -0.138473
   107  C    0.034777
   108  C    0.054842
   109  C    0.005894
   110  H    0.130438
   111  H   -0.006124
   112  H   -0.005208
   113  H    0.003659
   114  H   -0.004388
   115  H    0.009825
   116  H   -0.033281
   117  H    0.038060
   118  H    0.032235
   119  H   -0.020071
   120  H    0.035693
   121  N   -0.145197
   122  C    0.158052
   123  C    0.029296
   124  O   -0.283348
   125  C    0.199582
   126  O   -0.297894
   127  H    0.150541
   128  H    0.010731
   129  H    0.010141
   130  H    0.016630
   131  H    0.163750
   132  N   -0.128704
   133  C    0.051571
   134  C    0.107013
   135  O   -0.292869
   136  C    0.068959
   137  H    0.127456
   138  H    0.017729
   139  H    0.013521
   140  H    0.033822
   141  H   -0.010258
   142  N   -0.109517
   143  C    0.097704
   144  C    0.047881
   145  O   -0.282033
   146  C    0.030997
   147  H    0.152399
   148  H   -0.011552
   149  H    0.050884
   150  H    0.002494
   151  H    0.033360
   152  N   -0.148852
   153  C    0.149091
   154  C    0.066199
   155  O   -0.295305
   156  C   -0.017653
   157  C    0.080427
   158  C    0.126225
   159  O   -0.379476
   160  O   -0.474307
   161  H    0.114629
   162  H    0.017208
   163  H    0.023375
   164  H    0.031642
   165  H    0.015573
   166  H   -0.009890
   167  N   -0.138422
   168  C    0.125834
   169  H    0.028421
   170  H    0.013155
   171  H    0.044803
   172  H    0.116124
   173  Ca   1.171777
   174  O   -0.311347
   175  H    0.185691
   176  H    0.174594
 Sum of Mulliken charges =  -0.00000

 Dipole moment (field-independent basis, Debye):
    X=             11.8443    Y=              1.9783    Z=            -24.5652  Tot=             27.3432
 Quadrupole moment (field-independent basis, Debye-Ang):
   XX=           -569.0178   YY=           -547.0611   ZZ=           -504.9249
   XY=            -42.7621   XZ=             62.8777   YZ=             34.3464

 ESP charges:
               1
     1  C   -0.427805
     2  C    0.798888
     3  O   -0.601268
     4  H    0.099053
     5  H    0.133511
     6  H    0.095697
     7  N   -0.780136
     8  C    0.476728
     9  C    0.249392
    10  O   -0.514035
    11  C   -0.147410
    12  C    0.639430
    13  O   -0.565073
    14  O   -0.599688
    15  H    0.382008
    16  H   -0.025823
    17  H    0.015258
    18  H   -0.003169
    19  N   -0.065170
    20  C   -0.136733
    21  C    0.545736
    22  O   -0.546592
    23  C   -0.272691
    24  C    0.202620
    25  C    0.087404
    26  C   -0.376562
    27  N    0.996229
    28  H    0.187343
    29  H    0.118421
    30  H    0.090324
    31  H    0.080931
    32  H   -0.017246
    33  H   -0.058308
    34  H   -0.085051
    35  H    0.060317
    36  H    0.128309
    37  H    0.066415
    38  H   -0.268077
    39  H    0.029580
    40  H   -0.112280
    41  N   -0.124727
    42  C   -0.098894
    43  C    0.480581
    44  O   -0.385611
    45  C   -0.187294
    46  C    0.555189
    47  O   -0.620925
    48  O   -0.559106
    49  H    0.111354
    50  H    0.102743
    51  H    0.109570
    52  H    0.024077
    53  N   -0.419362
    54  C   -0.161615
    55  C    0.716124
    56  O   -0.553978
    57  H    0.318718
    58  H    0.106900
    59  H    0.141916
    60  N   -0.830734
    61  C    0.276947
    62  C    0.505049
    63  O   -0.563797
    64  C   -0.152511
    65  C    0.795495
    66  N   -0.871497
    67  O   -0.624661
    68  H    0.350076
    69  H    0.058484
    70  H    0.016162
    71  H    0.077903
    72  H    0.314163
    73  H    0.465228
    74  N   -0.326146
    75  C   -0.251856
    76  C    0.659701
    77  O   -0.500072
    78  H    0.287414
    79  H    0.118960
    80  H    0.133578
    81  N   -0.719236
    82  C    0.364437
    83  C    0.400104
    84  O   -0.533591
    85  C   -0.255011
    86  C    0.108644
    87  C   -0.165429
    88  C   -0.092101
    89  C   -0.281536
    90  C   -0.374550
    91  C    0.419588
    92  O   -0.552342
    93  H    0.354328
    94  H    0.020426
    95  H    0.112536
    96  H    0.076618
    97  H    0.141705
    98  H    0.133382
    99  H    0.157268
   100  H    0.153176
   101  H    0.406515
   102  N   -0.445149
   103  C   -0.092614
   104  C    0.567878
   105  O   -0.538406
   106  C    0.305768
   107  C   -0.010981
   108  C   -0.178045
   109  C   -0.124882
   110  H    0.327787
   111  H    0.088539
   112  H   -0.062653
   113  H    0.005575
   114  H    0.005352
   115  H    0.068381
   116  H   -0.071708
   117  H    0.052072
   118  H    0.030893
   119  H   -0.008966
   120  H    0.069088
   121  N   -0.348617
   122  C   -0.236646
   123  C    0.696825
   124  O   -0.567809
   125  C    0.137999
   126  O   -0.598009
   127  H    0.372465
   128  H    0.118306
   129  H    0.036844
   130  H    0.062176
   131  H    0.409243
   132  N   -0.518140
   133  C    0.219567
   134  C    0.501779
   135  O   -0.521416
   136  C   -0.224890
   137  H    0.314966
   138  H    0.050181
   139  H    0.078578
   140  H    0.052908
   141  H    0.052043
   142  N   -0.479056
   143  C    0.252829
   144  C    0.290705
   145  O   -0.425202
   146  C   -0.313430
   147  H    0.302759
   148  H    0.025684
   149  H    0.124514
   150  H    0.065669
   151  H    0.100166
   152  N   -0.340985
   153  C   -0.480270
   154  C    0.550305
   155  O   -0.532611
   156  C    0.574545
   157  C   -0.326488
   158  C    0.571370
   159  O   -0.641897
   160  O   -0.471780
   161  H    0.278887
   162  H    0.175827
   163  H   -0.067945
   164  H   -0.027761
   165  H    0.062222
   166  H    0.081330
   167  N   -0.287018
   168  C   -0.042918
   169  H    0.064399
   170  H    0.035581
   171  H    0.078163
   172  H    0.261829
   173  Ca   1.148186
   174  O   -0.656147
   175  H    0.362031
   176  H    0.361271
 Sum of ESP charges =  -0.00000

 Normal termination of Gaussian 16 at Mon Sep 16 23:56:45 2019.
