 Gaussian 16, Revision A.03,
 Gaussian 16:  ES64L-G16RevA.03 25-Dec-2016

 ----------------------------------------------------------------------
 #b3lyp/svp scf=(tight,noincore) Test #IOP(5/87=12) Density=Current Pop
 =(MK,readradii) iop(6/33=2) iop(6/42=6)
 ----------------------------------------------------------------------

 ----------------
 Ng-293_loop3_2.0
 ----------------
 Symbolic Z-matrix:
 Charge =  0 Multiplicity = 1

                         Standard orientation:
 ---------------------------------------------------------------------
 Center     Atomic      Atomic             Coordinates (Angstroms)
 Number     Number       Type             X           Y           Z
 ---------------------------------------------------------------------
      1          6           0        9.528573    0.136259    5.482659
      2          6           0        9.972124    0.644152    4.111453
      3          8           0       11.163051    0.633342    3.806865
      4          1           0        8.524969    0.504088    5.698505
      5          1           0        9.523591   -0.953891    5.483484
      6          1           0       10.219032    0.497073    6.245220
      7          7           0        9.047739    1.158453    3.311573
      8          6           0        9.434226    1.769942    2.050418
      9          6           0        9.316599    0.761120    0.919117
     10          8           0        8.683015   -0.275573    1.105774
     11          6           0        8.658938    3.053997    1.772695
     12          6           0        8.583901    4.111724    2.872551
     13          8           0        7.947213    5.148548    2.607742
     14          8           0        9.033885    3.948929    4.025118
     15          1           0        8.069635    1.010967    3.512968
     16          1           0       10.478194    2.077467    2.037833
     17          1           0        7.642632    2.716010    1.555700
     18          1           0        9.051879    3.520353    0.869584
     19          7           0        9.890870    1.050857   -0.247101
     20          6           0        9.945704    0.220684   -1.435337
     21          6           0        8.574395   -0.058517   -2.044399
     22          8           0        8.544284   -0.583073   -3.152747
     23          6           0       10.935008   -0.924605   -1.324470
     24          6           0       12.381046   -0.537113   -1.023935
     25          6           0       12.726309   -0.759016    0.446186
     26          6           0       13.348662    0.537136    0.979914
     27          7           0       13.717502    0.355612    2.396990
     28          1           0       10.408853    1.922506   -0.262010
     29          1           0       10.365531    0.873801   -2.203180
     30          1           0       10.994389   -1.492091   -2.256046
     31          1           0       10.554447   -1.717047   -0.664083
     32          1           0       12.535601    0.521207   -1.269436
     33          1           0       13.059768   -1.111403   -1.655225
     34          1           0       13.537424   -1.474759    0.316555
     35          1           0       11.875214   -1.099230    1.022980
     36          1           0       12.647567    1.358664    0.854388
     37          1           0       14.211297    0.825270    0.381801
     38          1           0       12.935310    0.058869    2.965865
     39          1           0       14.465948   -0.314583    2.464585
     40          1           0       14.105024    1.218284    2.750861
     41          7           0        7.438030    0.054232   -1.349515
     42          6           0        6.087525   -0.179413   -1.805306
     43          6           0        5.190847    0.881800   -1.205644
     44          8           0        5.435890    1.463492   -0.148672
     45          6           0        5.652107   -1.576460   -1.367502
     46          6           0        4.357299   -2.157366   -1.906408
     47          8           0        3.316446   -1.470299   -2.051546
     48          8           0        4.256372   -3.352098   -2.246154
     49          1           0        7.568460    0.448207   -0.426058
     50          1           0        5.890295   -0.035318   -2.869184
     51          1           0        5.818955   -1.749932   -0.299902
     52          1           0        6.459581   -2.207819   -1.747465
     53          7           0        4.018252    1.062221   -1.830839
     54          6           0        2.922637    1.897965   -1.383781
     55          6           0        1.638188    1.458001   -2.069070
     56          8           0        1.557868    1.701477   -3.274918
     57          1           0        3.839377    0.714532   -2.757562
     58          1           0        3.166225    2.954171   -1.510251
     59          1           0        2.864061    1.702573   -0.314299
     60          7           0        0.637991    0.910152   -1.365957
     61          6           0       -0.720367    0.704371   -1.800257
     62          6           0       -1.631870    1.910996   -1.920342
     63          8           0       -2.837879    1.812498   -2.144927
     64          6           0       -1.358689   -0.469575   -1.069782
     65          6           0       -0.424346   -1.670180   -1.172502
     66          7           0       -0.201949   -2.442246   -0.104160
     67          8           0        0.220803   -1.864168   -2.192821
     68          1           0        0.938960    0.785245   -0.405376
     69          1           0       -0.734366    0.389212   -2.843846
     70          1           0       -2.281334   -0.675809   -1.604847
     71          1           0       -1.506424   -0.174944   -0.030760
     72          1           0       -0.898476   -2.456360    0.627449
     73          1           0        0.392643   -3.224637   -0.324214
     74          7           0       -1.146595    3.146332   -1.776627
     75          6           0       -1.910281    4.384117   -1.841221
     76          6           0       -2.912688    4.607061   -0.714466
     77          8           0       -2.597175    4.502494    0.471670
     78          1           0       -0.222723    3.219712   -1.366657
     79          1           0       -2.325494    4.338486   -2.850437
     80          1           0       -1.298532    5.275164   -1.716733
     81          7           0       -4.162242    4.889076   -1.085385
     82          6           0       -5.330557    4.783392   -0.225984
     83          6           0       -5.492985    3.450631    0.502757
     84          8           0       -6.277088    3.383376    1.443427
     85          6           0       -5.488807    6.033239    0.636247
     86          6           0       -5.812149    7.341847   -0.057219
     87          6           0       -4.754514    8.177622   -0.410048
     88          6           0       -7.125766    7.667883   -0.415564
     89          6           0       -4.996579    9.328801   -1.172145
     90          6           0       -7.361116    8.866055   -1.101198
     91          6           0       -6.304133    9.672069   -1.559922
     92          8           0       -6.543846   10.865907   -2.181041
     93          1           0       -4.239736    5.320962   -1.990078
     94          1           0       -6.250982    4.795976   -0.815949
     95          1           0       -4.522468    6.047699    1.142782
     96          1           0       -6.234474    5.912887    1.417846
     97          1           0       -3.746262    7.920222   -0.121996
     98          1           0       -7.889336    6.946297   -0.173128
     99          1           0       -4.115877    9.915615   -1.387813
    100          1           0       -8.337084    9.111122   -1.491747
    101          1           0       -7.294029   10.838322   -2.773041
    102          7           0       -4.796019    2.381171    0.115338
    103          6           0       -4.817039    1.043946    0.673540
    104          6           0       -6.081897    0.291096    0.284761
    105          8           0       -5.976594   -0.615455   -0.530086
    106          6           0       -4.463232    1.009294    2.159918
    107          6           0       -3.062674    1.571063    2.390034
    108          6           0       -4.663414   -0.367007    2.801029
    109          6           0       -2.863856    2.176933    3.771010
    110          1           0       -4.189077    2.558802   -0.674895
    111          1           0       -3.998901    0.627492    0.088632
    112          1           0       -5.206668    1.597843    2.697889
    113          1           0       -2.854816    2.295036    1.606415
    114          1           0       -2.293479    0.815431    2.194437
    115          1           0       -4.711158   -0.275706    3.884304
    116          1           0       -5.619362   -0.848773    2.559857
    117          1           0       -3.859583   -1.092315    2.643912
    118          1           0       -3.673750    2.885009    3.957559
    119          1           0       -2.991752    1.423786    4.547227
    120          1           0       -1.865022    2.614535    3.852463
    121          7           0       -7.236545    0.713662    0.803919
    122          6           0       -8.492967    0.082083    0.447109
    123          6           0       -8.776229   -1.278257    1.046472
    124          8           0       -9.530426   -2.094830    0.508146
    125          6           0       -9.571725    1.036398    0.946673
    126          8           0       -9.591201    2.208864    0.154560
    127          1           0       -7.206020    1.556491    1.364817
    128          1           0       -8.501431    0.006939   -0.645083
    129          1           0       -9.410866    1.278994    1.998420
    130          1           0      -10.575467    0.630679    0.808129
    131          1           0      -10.107119    2.848198    0.640028
    132          7           0       -8.075862   -1.626384    2.135321
    133          6           0       -8.139005   -2.886298    2.852421
    134          6           0       -7.948757   -4.098467    1.957685
    135          8           0       -8.564085   -5.140246    2.199486
    136          6           0       -9.358993   -2.962295    3.766123
    137          1           0       -7.674097   -0.879928    2.682302
    138          1           0       -7.219342   -2.932029    3.443208
    139          1           0       -9.416525   -1.952247    4.175747
    140          1           0      -10.285257   -3.263689    3.283322
    141          1           0       -9.135505   -3.628462    4.604499
    142          7           0       -6.912380   -4.070477    1.127541
    143          6           0       -6.421244   -5.055484    0.183165
    144          6           0       -4.924277   -5.284713    0.357360
    145          8           0       -4.319578   -4.629150    1.198714
    146          6           0       -6.744599   -4.432969   -1.170207
    147          1           0       -6.523911   -3.174907    0.862125
    148          1           0       -6.844259   -6.039375    0.382960
    149          1           0       -7.771769   -4.690327   -1.430570
    150          1           0       -6.651887   -3.352736   -1.075863
    151          1           0       -6.053055   -4.820272   -1.913621
    152          7           0       -4.313553   -6.233262   -0.343974
    153          6           0       -2.924197   -6.653225   -0.296824
    154          6           0       -2.526073   -7.223020    1.062047
    155          8           0       -1.334210   -7.432412    1.266541
    156          6           0       -1.932089   -5.592988   -0.783157
    157          6           0       -0.680655   -6.236697   -1.371077
    158          6           0        0.206999   -5.168627   -2.003451
    159          8           0        1.051042   -4.564369   -1.305909
    160          8           0        0.074919   -4.900062   -3.218864
    161          1           0       -4.762241   -6.563621   -1.187030
    162          1           0       -2.906363   -7.546938   -0.918321
    163          1           0       -1.621892   -4.949419    0.031274
    164          1           0       -2.380633   -4.931561   -1.534770
    165          1           0       -0.917758   -7.082581   -2.003503
    166          1           0       -0.143890   -6.690037   -0.540616
    167          7           0       -3.422739   -7.571888    1.977734
    168          6           0       -3.162347   -7.732733    3.398166
    169          1           0       -4.108157   -7.775431    3.938011
    170          1           0       -2.608318   -8.656066    3.564257
    171          1           0       -2.577185   -6.887412    3.758813
    172          1           0       -4.395524   -7.370390    1.779777
    173         20           0        1.985262   -3.216245   -3.619801
    174          8           0        0.932730   -4.048680   -5.805350
    175          1           0        0.541315   -3.547632   -6.523574
    176          1           0        0.341410   -4.786167   -5.679435
 ---------------------------------------------------------------------

 SCF Done:  E(RB3LYP) =  -5333.45199299     A.U. after   23 cycles

 The electronic state is 1-A.
 Alpha  occ. eigenvalues -- -145.42167 -19.21281 -19.16324 -19.13467 -19.12043
 Alpha  occ. eigenvalues --  -19.11864 -19.11256 -19.10418 -19.10358 -19.09932
 Alpha  occ. eigenvalues --  -19.09775 -19.09703 -19.09570 -19.09463 -19.07977
 Alpha  occ. eigenvalues --  -19.07818 -19.07677 -19.07601 -19.06996 -19.06076
 Alpha  occ. eigenvalues --  -19.05486 -19.05469 -18.94388 -18.93502 -15.48085
 Alpha  occ. eigenvalues --  -14.53158 -14.37995 -14.37775 -14.37545 -14.36665
 Alpha  occ. eigenvalues --  -14.36360 -14.35889 -14.35316 -14.35288 -14.34438
 Alpha  occ. eigenvalues --  -14.34027 -14.33745 -14.33664 -14.33372 -14.33300
 Alpha  occ. eigenvalues --  -12.61698 -12.61665 -12.61583 -10.31884 -10.30909
 Alpha  occ. eigenvalues --  -10.30485 -10.29842 -10.29481 -10.29181 -10.28623
 Alpha  occ. eigenvalues --  -10.28367 -10.28036 -10.27742 -10.27642 -10.27238
 Alpha  occ. eigenvalues --  -10.27165 -10.26989 -10.26267 -10.26019 -10.25666
 Alpha  occ. eigenvalues --  -10.25555 -10.25515 -10.25290 -10.25009 -10.24970
 Alpha  occ. eigenvalues --  -10.24954 -10.24613 -10.23830 -10.23662 -10.23321
 Alpha  occ. eigenvalues --  -10.23274 -10.23223 -10.22727 -10.22530 -10.22463
 Alpha  occ. eigenvalues --  -10.21716 -10.21517 -10.20809 -10.20687 -10.19904
 Alpha  occ. eigenvalues --  -10.19686 -10.19457 -10.19324 -10.19231 -10.18818
 Alpha  occ. eigenvalues --  -10.18609 -10.18500 -10.18060 -10.17919 -10.17859
 Alpha  occ. eigenvalues --  -10.17595 -10.17212 -10.17079 -10.16716 -10.15376
 Alpha  occ. eigenvalues --  -10.14892 -10.13111  -1.84856  -1.12435  -1.12197
 Alpha  occ. eigenvalues --   -1.11840  -1.08792  -1.07129  -1.05805  -1.04933
 Alpha  occ. eigenvalues --   -1.04738  -1.04276  -1.03811  -1.03496  -1.03457
 Alpha  occ. eigenvalues --   -1.03410  -1.03127  -1.02312  -1.01980  -1.01964
 Alpha  occ. eigenvalues --   -1.01505  -1.01432  -1.01383  -1.01093  -1.00401
 Alpha  occ. eigenvalues --   -1.00390  -0.94637  -0.94399  -0.93465  -0.93346
 Alpha  occ. eigenvalues --   -0.93195  -0.93149  -0.92374  -0.91837  -0.91175
 Alpha  occ. eigenvalues --   -0.90925  -0.90513  -0.90482  -0.90376  -0.90052
 Alpha  occ. eigenvalues --   -0.89669  -0.89233  -0.89080  -0.86723  -0.85496
 Alpha  occ. eigenvalues --   -0.81382  -0.81221  -0.80627  -0.79721  -0.79534
 Alpha  occ. eigenvalues --   -0.78652  -0.78436  -0.77458  -0.76691  -0.76165
 Alpha  occ. eigenvalues --   -0.76135  -0.75096  -0.74778  -0.74104  -0.74036
 Alpha  occ. eigenvalues --   -0.72791  -0.72372  -0.72353  -0.70720  -0.70498
 Alpha  occ. eigenvalues --   -0.69522  -0.69095  -0.69041  -0.67924  -0.66686
 Alpha  occ. eigenvalues --   -0.66622  -0.66028  -0.65441  -0.65338  -0.63913
 Alpha  occ. eigenvalues --   -0.63059  -0.63013  -0.62485  -0.62381  -0.61854
 Alpha  occ. eigenvalues --   -0.61624  -0.61231  -0.60823  -0.60339  -0.60135
 Alpha  occ. eigenvalues --   -0.59952  -0.59612  -0.59179  -0.58947  -0.58842
 Alpha  occ. eigenvalues --   -0.58533  -0.58239  -0.57975  -0.57753  -0.57699
 Alpha  occ. eigenvalues --   -0.57672  -0.57293  -0.56218  -0.55920  -0.55861
 Alpha  occ. eigenvalues --   -0.55376  -0.55315  -0.55201  -0.54470  -0.54341
 Alpha  occ. eigenvalues --   -0.53916  -0.53705  -0.53031  -0.52807  -0.51966
 Alpha  occ. eigenvalues --   -0.51563  -0.50942  -0.50849  -0.50654  -0.50528
 Alpha  occ. eigenvalues --   -0.49908  -0.49591  -0.49486  -0.49208  -0.48578
 Alpha  occ. eigenvalues --   -0.48447  -0.47982  -0.47822  -0.47729  -0.47493
 Alpha  occ. eigenvalues --   -0.47253  -0.47028  -0.46950  -0.46770  -0.46658
 Alpha  occ. eigenvalues --   -0.46566  -0.46551  -0.46483  -0.46302  -0.46157
 Alpha  occ. eigenvalues --   -0.45901  -0.45692  -0.45360  -0.45302  -0.45254
 Alpha  occ. eigenvalues --   -0.45018  -0.44941  -0.44739  -0.44518  -0.44266
 Alpha  occ. eigenvalues --   -0.44048  -0.43943  -0.43807  -0.43606  -0.43514
 Alpha  occ. eigenvalues --   -0.43272  -0.43147  -0.43057  -0.42772  -0.42751
 Alpha  occ. eigenvalues --   -0.42493  -0.42339  -0.42255  -0.42003  -0.41762
 Alpha  occ. eigenvalues --   -0.41630  -0.41494  -0.41363  -0.41148  -0.41100
 Alpha  occ. eigenvalues --   -0.41035  -0.40901  -0.40797  -0.40581  -0.40479
 Alpha  occ. eigenvalues --   -0.40320  -0.40158  -0.40089  -0.39999  -0.39740
 Alpha  occ. eigenvalues --   -0.39599  -0.39575  -0.39477  -0.39410  -0.39216
 Alpha  occ. eigenvalues --   -0.39042  -0.38985  -0.38831  -0.38814  -0.38552
 Alpha  occ. eigenvalues --   -0.38532  -0.38358  -0.38316  -0.37951  -0.37750
 Alpha  occ. eigenvalues --   -0.37732  -0.37470  -0.37408  -0.37135  -0.36998
 Alpha  occ. eigenvalues --   -0.36902  -0.36837  -0.36631  -0.36562  -0.36441
 Alpha  occ. eigenvalues --   -0.36277  -0.36170  -0.35792  -0.35649  -0.35319
 Alpha  occ. eigenvalues --   -0.35081  -0.34981  -0.34946  -0.34683  -0.34248
 Alpha  occ. eigenvalues --   -0.34182  -0.33926  -0.33619  -0.33422  -0.33184
 Alpha  occ. eigenvalues --   -0.32836  -0.32719  -0.32672  -0.32611  -0.31779
 Alpha  occ. eigenvalues --   -0.30563  -0.30399  -0.29755  -0.28662  -0.28467
 Alpha  occ. eigenvalues --   -0.28208  -0.28030  -0.27700  -0.27601  -0.27542
 Alpha  occ. eigenvalues --   -0.27398  -0.26870  -0.26652  -0.26571  -0.26432
 Alpha  occ. eigenvalues --   -0.26419  -0.26341  -0.26159  -0.26122  -0.25919
 Alpha  occ. eigenvalues --   -0.25532  -0.25373  -0.25044  -0.24970  -0.24701
 Alpha  occ. eigenvalues --   -0.24673  -0.24588  -0.24387  -0.24279  -0.24235
 Alpha  occ. eigenvalues --   -0.24102  -0.23981  -0.23553  -0.23450  -0.23212
 Alpha  occ. eigenvalues --   -0.23191  -0.23051  -0.22757  -0.22155  -0.19780
 Alpha  occ. eigenvalues --   -0.12883  -0.11568  -0.09210
 Alpha virt. eigenvalues --   -0.05767  -0.05747  -0.02278  -0.02106  -0.01184
 Alpha virt. eigenvalues --   -0.00734  -0.00434  -0.00413   0.00198   0.00497
 Alpha virt. eigenvalues --    0.00970   0.01020   0.01361   0.01432   0.01669

 Mulliken charges:
               1
     1  C    0.063717
     2  C    0.065719
     3  O   -0.390616
     4  H    0.024856
     5  H    0.025371
     6  H    0.034894
     7  N   -0.036602
     8  C    0.111069
     9  C    0.035288
    10  O   -0.297362
    11  C    0.032562
    12  C    0.024433
    13  O   -0.380956
    14  O   -0.389859
    15  H    0.130236
    16  H   -0.041750
    17  H    0.011474
    18  H   -0.031259
    19  N   -0.148789
    20  C    0.126508
    21  C    0.050824
    22  O   -0.301319
    23  C    0.061881
    24  C    0.002766
    25  C    0.002080
    26  C   -0.004672
    27  N    0.102001
    28  H    0.120000
    29  H    0.006918
    30  H    0.007225
    31  H    0.022703
    32  H   -0.009635
    33  H    0.015876
    34  H    0.012754
    35  H    0.069745
    36  H    0.063762
    37  H    0.053805
    38  H    0.180313
    39  H    0.167632
    40  H    0.183582
    41  N   -0.099377
    42  C    0.095239
    43  C    0.076934
    44  O   -0.281875
    45  C    0.128694
    46  C    0.100448
    47  O   -0.439681
    48  O   -0.420235
    49  H    0.142624
    50  H   -0.005414
    51  H    0.028550
    52  H    0.010879
    53  N   -0.125365
    54  C    0.266850
    55  C   -0.007006
    56  O   -0.302690
    57  H    0.109601
    58  H    0.036739
    59  H   -0.008421
    60  N   -0.124183
    61  C    0.147247
    62  C    0.058567
    63  O   -0.303975
    64  C    0.059933
    65  C    0.058945
    66  N   -0.026772
    67  O   -0.356823
    68  H    0.139669
    69  H    0.033586
    70  H    0.066625
    71  H    0.012224
    72  H    0.133152
    73  H    0.150877
    74  N   -0.109655
    75  C    0.220407
    76  C    0.008555
    77  O   -0.258883
    78  H    0.127771
    79  H    0.017292
    80  H    0.042684
    81  N   -0.130779
    82  C    0.132210
    83  C    0.074233
    84  O   -0.308756
    85  C    0.134923
    86  C   -0.051668
    87  C   -0.028203
    88  C    0.008640
    89  C   -0.024596
    90  C   -0.013471
    91  C    0.180602
    92  O   -0.217860
    93  H    0.130402
    94  H    0.020059
    95  H    0.007500
    96  H    0.008424
    97  H   -0.025522
    98  H   -0.028239
    99  H   -0.025247
   100  H   -0.041136
   101  H    0.178956
   102  N   -0.133740
   103  C    0.200254
   104  C    0.043671
   105  O   -0.263988
   106  C   -0.090497
   107  C    0.012080
   108  C    0.059660
   109  C    0.048686
   110  H    0.141758
   111  H   -0.031225
   112  H   -0.001265
   113  H    0.000202
   114  H   -0.022032
   115  H   -0.006389
   116  H   -0.018291
   117  H    0.008316
   118  H    0.012924
   119  H   -0.006570
   120  H    0.018523
   121  N   -0.147997
   122  C    0.130060
   123  C    0.057859
   124  O   -0.265088
   125  C    0.197732
   126  O   -0.304852
   127  H    0.142875
   128  H    0.034923
   129  H   -0.010708
   130  H    0.013736
   131  H    0.159879
   132  N   -0.147797
   133  C    0.029745
   134  C    0.074430
   135  O   -0.284037
   136  C    0.113390
   137  H    0.124751
   138  H    0.027312
   139  H   -0.025066
   140  H    0.045033
   141  H    0.013435
   142  N   -0.113866
   143  C    0.081649
   144  C    0.019627
   145  O   -0.268101
   146  C    0.061400
   147  H    0.129288
   148  H    0.015325
   149  H    0.040747
   150  H    0.038403
   151  H   -0.016776
   152  N   -0.130061
   153  C    0.117192
   154  C    0.015711
   155  O   -0.270009
   156  C    0.046452
   157  C    0.113890
   158  C    0.108399
   159  O   -0.400407
   160  O   -0.476477
   161  H    0.117846
   162  H    0.011296
   163  H    0.000359
   164  H   -0.005541
   165  H   -0.034859
   166  H    0.028381
   167  N   -0.119433
   168  C    0.134750
   169  H    0.017945
   170  H    0.030817
   171  H    0.031596
   172  H    0.116518
   173  Ca   1.371006
   174  O   -0.322358
   175  H    0.190650
   176  H    0.205569
 Sum of Mulliken charges =  -0.00000

 Dipole moment (field-independent basis, Debye):
    X=             11.8785    Y=             -7.8447    Z=            -13.0112  Tot=             19.2854
 Quadrupole moment (field-independent basis, Debye-Ang):
   XX=           -204.3549   YY=           -636.5991   ZZ=           -515.8696
   XY=           -144.9771   XZ=             -6.6790   YZ=            -41.7394

 ESP charges:
               1
     1  C   -0.463823
     2  C    0.733442
     3  O   -0.665711
     4  H    0.131138
     5  H    0.107458
     6  H    0.149987
     7  N   -0.586007
     8  C    0.425582
     9  C    0.396770
    10  O   -0.526650
    11  C   -0.425271
    12  C    0.737414
    13  O   -0.698475
    14  O   -0.705673
    15  H    0.356667
    16  H   -0.018658
    17  H    0.127912
    18  H    0.039815
    19  N   -0.515585
    20  C   -0.119627
    21  C    0.561125
    22  O   -0.569295
    23  C    0.066966
    24  C   -0.031683
    25  C   -0.288236
    26  C    0.207293
    27  N   -0.412353
    28  H    0.345036
    29  H    0.106889
    30  H    0.014325
    31  H    0.073436
    32  H    0.015388
    33  H    0.061940
    34  H    0.084814
    35  H    0.126916
    36  H    0.033035
    37  H    0.043464
    38  H    0.324847
    39  H    0.318291
    40  H    0.339808
    41  N   -0.303530
    42  C   -0.010082
    43  C    0.393401
    44  O   -0.486788
    45  C   -0.023119
    46  C    0.577546
    47  O   -0.631979
    48  O   -0.744962
    49  H    0.229134
    50  H    0.052648
    51  H    0.090108
    52  H    0.045053
    53  N   -0.135201
    54  C   -0.331015
    55  C    0.698624
    56  O   -0.563927
    57  H    0.194899
    58  H    0.147798
    59  H    0.115048
    60  N   -0.714272
    61  C    0.241344
    62  C    0.481706
    63  O   -0.500332
    64  C   -0.498303
    65  C    0.782816
    66  N   -0.769324
    67  O   -0.678854
    68  H    0.376823
    69  H    0.093599
    70  H    0.163038
    71  H    0.174384
    72  H    0.343946
    73  H    0.426457
    74  N   -0.302071
    75  C   -0.291552
    76  C    0.727283
    77  O   -0.524906
    78  H    0.269260
    79  H    0.140910
    80  H    0.146589
    81  N   -0.755109
    82  C    0.426539
    83  C    0.391901
    84  O   -0.556255
    85  C   -0.360657
    86  C    0.263225
    87  C   -0.248358
    88  C   -0.328130
    89  C   -0.139689
    90  C   -0.073731
    91  C    0.180108
    92  O   -0.483922
    93  H    0.330151
    94  H    0.020364
    95  H    0.113836
    96  H    0.107448
    97  H    0.148230
    98  H    0.169197
    99  H    0.132069
   100  H    0.092345
   101  H    0.382406
   102  N   -0.452685
   103  C    0.123899
   104  C    0.650840
   105  O   -0.589924
   106  C    0.090284
   107  C    0.452888
   108  C   -0.539748
   109  C   -0.353676
   110  H    0.281281
   111  H   -0.032128
   112  H    0.034661
   113  H   -0.110198
   114  H   -0.108981
   115  H    0.127304
   116  H    0.106538
   117  H    0.123058
   118  H    0.077281
   119  H    0.057090
   120  H    0.081578
   121  N   -0.466952
   122  C    0.091394
   123  C    0.165124
   124  O   -0.452099
   125  C    0.173824
   126  O   -0.606325
   127  H    0.315417
   128  H    0.133935
   129  H    0.001505
   130  H    0.046690
   131  H    0.398633
   132  N   -0.036287
   133  C    0.121755
   134  C    0.658430
   135  O   -0.565151
   136  C   -0.326585
   137  H    0.154720
   138  H    0.033680
   139  H    0.052582
   140  H    0.118744
   141  H    0.091467
   142  N   -0.662382
   143  C    0.516418
   144  C    0.651397
   145  O   -0.547910
   146  C   -0.535449
   147  H    0.199594
   148  H   -0.029399
   149  H    0.143184
   150  H    0.211808
   151  H    0.085722
   152  N   -0.947119
   153  C    0.475838
   154  C    0.377513
   155  O   -0.473160
   156  C   -0.086851
   157  C   -0.211706
   158  C    0.758804
   159  O   -0.710793
   160  O   -0.804866
   161  H    0.380861
   162  H   -0.003935
   163  H    0.056090
   164  H    0.054002
   165  H    0.044096
   166  H    0.047209
   167  N   -0.336545
   168  C   -0.168863
   169  H    0.100614
   170  H    0.089424
   171  H    0.114548
   172  H    0.278624
   173  Ca   1.653750
   174  O   -0.812049
   175  H    0.423661
   176  H    0.427127
 Sum of ESP charges =  -0.00000

 Normal termination of Gaussian 16 at Tue Sep 17 00:14:30 2019.
