 Gaussian 16, Revision A.03,
 Gaussian 16:  ES64L-G16RevA.03 25-Dec-2016

 ----------------------------------------------------------------------
 #b3lyp/svp scf=(tight,noincore) Test #IOP(5/87=12) Density=Current Pop
 =(MK,readradii) iop(6/33=2) iop(6/42=6)
 ----------------------------------------------------------------------

 -----------------
 Ng-295_loop3_39.0
 -----------------
 Symbolic Z-matrix:
 Charge =  0 Multiplicity = 1

                         Standard orientation:
 ---------------------------------------------------------------------
 Center     Atomic      Atomic             Coordinates (Angstroms)
 Number     Number       Type             X           Y           Z
 ---------------------------------------------------------------------
      1          6           0       10.967705   -5.045104    4.274741
      2          6           0       10.275085   -4.404746    3.075900
      3          8           0        9.718838   -5.147464    2.279433
      4          1           0       10.236285   -5.227379    5.062130
      5          1           0       11.418970   -5.990178    3.971989
      6          1           0       11.742601   -4.374866    4.647712
      7          7           0       10.090016   -3.086909    2.912633
      8          6           0        9.337361   -2.435418    1.864363
      9          6           0       10.298444   -1.692274    0.954663
     10          8           0       11.088955   -0.854974    1.363347
     11          6           0        8.361069   -1.512042    2.591640
     12          6           0        7.356789   -0.867947    1.641503
     13          8           0        6.177672   -0.769842    2.034133
     14          8           0        7.740778   -0.625947    0.482974
     15          1           0       10.556203   -2.462683    3.551782
     16          1           0        8.831823   -3.191186    1.259099
     17          1           0        8.810808   -0.666405    3.126834
     18          1           0        7.938921   -2.103739    3.404835
     19          7           0       10.176957   -1.938479   -0.354697
     20          6           0       11.086453   -1.452949   -1.368195
     21          6           0       10.923392    0.015396   -1.718445
     22          8           0       11.782429    0.592208   -2.394865
     23          6           0       11.092682   -2.376306   -2.584530
     24          6           0       11.344031   -3.862238   -2.377094
     25          6           0       12.663530   -4.104295   -1.660413
     26          6           0       13.002642   -5.513289   -1.205837
     27          7           0       14.340874   -5.552168   -0.581720
     28          1           0        9.462956   -2.604320   -0.628667
     29          1           0       12.082229   -1.444014   -0.926662
     30          1           0       11.850218   -1.971164   -3.266145
     31          1           0       10.179469   -2.159197   -3.138701
     32          1           0       11.503950   -4.408901   -3.298335
     33          1           0       10.502866   -4.395135   -1.922602
     34          1           0       12.754227   -3.499198   -0.752486
     35          1           0       13.455716   -3.758053   -2.323858
     36          1           0       13.226612   -6.025825   -2.138598
     37          1           0       12.230160   -6.065392   -0.669409
     38          1           0       14.592561   -6.447282   -0.193359
     39          1           0       15.065541   -5.312867   -1.242925
     40          1           0       14.377313   -4.867574    0.164539
     41          7           0        9.829966    0.654583   -1.303765
     42          6           0        9.584568    2.065550   -1.517896
     43          6           0        8.920511    2.867199   -0.404753
     44          8           0        8.906823    4.097128   -0.491859
     45          6           0        8.730698    2.328183   -2.753100
     46          6           0        7.347281    1.697755   -2.763958
     47          8           0        6.654780    2.062413   -3.728514
     48          8           0        6.899300    1.035774   -1.799130
     49          1           0        9.159876    0.161779   -0.742851
     50          1           0       10.552778    2.563151   -1.613620
     51          1           0        9.312344    2.080639   -3.646526
     52          1           0        8.582231    3.398674   -2.907392
     53          7           0        8.326123    2.181933    0.571164
     54          6           0        7.584013    2.822496    1.641188
     55          6           0        6.153575    3.301858    1.409975
     56          8           0        5.471189    3.744473    2.329835
     57          1           0        8.136557    1.206068    0.411004
     58          1           0        8.143208    3.551357    2.222018
     59          1           0        7.451549    1.962330    2.297517
     60          7           0        5.730839    3.231828    0.145463
     61          6           0        4.333825    3.331250   -0.252867
     62          6           0        3.399060    2.205866    0.165610
     63          8           0        3.913480    1.095323    0.152647
     64          6           0        4.312655    3.451081   -1.777758
     65          6           0        2.917300    3.444054   -2.386721
     66          7           0        2.482276    2.261895   -2.830064
     67          8           0        2.298087    4.503816   -2.421083
     68          1           0        6.363072    2.752495   -0.467580
     69          1           0        3.880440    4.246000    0.109725
     70          1           0        4.747034    2.504338   -2.097745
     71          1           0        4.839796    4.354234   -2.056751
     72          1           0        2.998983    1.396318   -2.686226
     73          1           0        1.475184    2.238897   -2.855335
     74          7           0        2.092438    2.362750    0.414062
     75          6           0        1.176988    1.298766    0.774600
     76          6           0       -0.083512    1.831717    1.438680
     77          8           0       -0.508299    1.283284    2.452178
     78          1           0        1.707457    3.294286    0.425458
     79          1           0        1.635262    0.544106    1.416919
     80          1           0        0.956988    0.708379   -0.114243
     81          7           0       -0.730917    2.849107    0.852947
     82          6           0       -2.105189    3.220756    1.101049
     83          6           0       -3.084721    2.414919    0.246741
     84          8           0       -2.716231    2.043072   -0.863280
     85          6           0       -2.266721    4.724732    0.890899
     86          6           0       -3.471265    5.429736    1.455649
     87          6           0       -4.636056    5.636629    0.687693
     88          6           0       -3.415558    5.841520    2.794279
     89          6           0       -5.665238    6.435426    1.194555
     90          6           0       -4.466457    6.587436    3.336241
     91          6           0       -5.542151    6.961039    2.498503
     92          8           0       -6.584387    7.652878    3.041276
     93          1           0       -0.446176    3.121218   -0.073756
     94          1           0       -2.256164    3.001714    2.164829
     95          1           0       -2.383156    4.876751   -0.182895
     96          1           0       -1.366056    5.207401    1.260808
     97          1           0       -4.615715    5.262382   -0.316560
     98          1           0       -2.483422    5.795663    3.344660
     99          1           0       -6.564814    6.617716    0.639098
    100          1           0       -4.422250    6.835884    4.387487
    101          1           0       -6.581594    7.693486    3.993086
    102          7           0       -4.195399    2.056338    0.899669
    103          6           0       -5.164927    1.084357    0.450818
    104          6           0       -5.864451    1.307455   -0.876658
    105          8           0       -5.312518    1.950144   -1.772047
    106          6           0       -4.652725   -0.364406    0.473934
    107          6           0       -3.999398   -0.689119    1.807772
    108          6           0       -3.826854   -0.861888   -0.704772
    109          6           0       -4.781683   -0.318390    3.070345
    110          1           0       -4.387483    2.514122    1.786764
    111          1           0       -6.039291    1.100068    1.095909
    112          1           0       -5.542441   -0.993218    0.600031
    113          1           0       -2.963602   -0.335240    1.887763
    114          1           0       -3.823675   -1.761029    1.822942
    115          1           0       -4.426417   -0.636371   -1.582135
    116          1           0       -2.895197   -0.299385   -0.768067
    117          1           0       -3.661593   -1.923792   -0.527151
    118          1           0       -4.989274    0.740052    3.237393
    119          1           0       -5.784817   -0.743315    3.083014
    120          1           0       -4.271493   -0.696841    3.952605
    121          7           0       -7.107431    0.843497   -1.028461
    122          6           0       -7.855761    0.736613   -2.259346
    123          6           0       -9.353783    0.843044   -1.974560
    124          8           0      -10.102011    1.361723   -2.801377
    125          6           0       -7.490556   -0.549226   -2.996261
    126          8           0       -7.793445   -1.684519   -2.218849
    127          1           0       -7.515632    0.403796   -0.216959
    128          1           0       -7.584214    1.584289   -2.891175
    129          1           0       -6.429625   -0.562844   -3.274899
    130          1           0       -8.125702   -0.667845   -3.875648
    131          1           0       -7.266398   -2.441810   -2.486675
    132          7           0       -9.976199    0.175491   -0.997846
    133          6           0      -11.372705    0.227964   -0.586241
    134          6           0      -12.339436   -0.030919   -1.728261
    135          8           0      -13.278281    0.713612   -1.982316
    136          6           0      -11.723707    1.562834    0.062389
    137          1           0       -9.341444   -0.271672   -0.355716
    138          1           0      -11.522080   -0.544713    0.165794
    139          1           0      -11.690837    2.402736   -0.634808
    140          1           0      -12.744601    1.516144    0.454429
    141          1           0      -11.008437    1.715425    0.871590
    142          7           0      -12.346686   -1.174189   -2.420997
    143          6           0      -11.664810   -2.421967   -2.152491
    144          6           0      -12.369587   -3.393492   -1.206062
    145          8           0      -13.481136   -3.866903   -1.418994
    146          6           0      -11.318782   -3.102032   -3.475811
    147          1           0      -13.060031   -1.243593   -3.129320
    148          1           0      -10.718108   -2.257014   -1.634471
    149          1           0      -11.129574   -4.155869   -3.262674
    150          1           0      -12.251674   -3.108101   -4.027967
    151          1           0      -10.524140   -2.631937   -4.045157
    152          7           0      -11.770881   -3.800487   -0.089815
    153          6           0      -10.448117   -3.554770    0.440676
    154          6           0      -10.546262   -3.263377    1.930091
    155          8           0       -9.788171   -2.411992    2.391221
    156          6           0       -9.564281   -4.789957    0.254810
    157          6           0       -8.179097   -4.675297    0.874339
    158          6           0       -7.338541   -5.911731    0.574345
    159          8           0       -7.047706   -6.239701   -0.603089
    160          8           0       -7.003495   -6.687530    1.493193
    161          1           0      -12.407128   -4.379080    0.431163
    162          1           0       -9.969368   -2.665234    0.017209
    163          1           0       -9.590458   -4.912191   -0.834444
    164          1           0      -10.150840   -5.623162    0.653706
    165          1           0       -8.223593   -4.546003    1.956145
    166          1           0       -7.718172   -3.832497    0.360884
    167          7           0      -11.327987   -3.956657    2.769477
    168          6           0      -11.347160   -3.888180    4.211228
    169          1           0      -12.352379   -4.108505    4.571882
    170          1           0      -10.646949   -4.617577    4.619927
    171          1           0      -11.058943   -2.887078    4.531986
    172          1           0      -11.997681   -4.560886    2.308049
    173         20           0        5.571644   -1.058688   -0.988000
    174          8           0        3.642419   -1.717054    0.501713
    175          1           0        3.832162   -2.076806    1.367725
    176          1           0        2.793922   -2.083886    0.270224
 ---------------------------------------------------------------------

 SCF Done:  E(RB3LYP) =  -5333.30626957     A.U. after  106 cycles

 The electronic state is 1-A.
 Alpha  occ. eigenvalues -- -145.47357 -19.21980 -19.15365 -19.13170 -19.12931
 Alpha  occ. eigenvalues --  -19.12460 -19.12294 -19.11942 -19.10647 -19.09820
 Alpha  occ. eigenvalues --  -19.09697 -19.09175 -19.09035 -19.08140 -19.07696
 Alpha  occ. eigenvalues --  -19.07662 -19.07538 -19.07349 -19.07251 -19.06836
 Alpha  occ. eigenvalues --  -19.05926 -19.03946 -19.01078 -19.00913 -15.53266
 Alpha  occ. eigenvalues --  -14.61282 -14.39549 -14.39200 -14.38005 -14.36355
 Alpha  occ. eigenvalues --  -14.35893 -14.35785 -14.35158 -14.34963 -14.34704
 Alpha  occ. eigenvalues --  -14.34691 -14.33991 -14.33289 -14.33096 -14.32203
 Alpha  occ. eigenvalues --  -12.66869 -12.66838 -12.66783 -10.37990 -10.32266
 Alpha  occ. eigenvalues --  -10.31561 -10.30788 -10.30077 -10.29959 -10.29865
 Alpha  occ. eigenvalues --  -10.28924 -10.28067 -10.27915 -10.27887 -10.27216
 Alpha  occ. eigenvalues --  -10.27179 -10.27112 -10.27005 -10.26439 -10.26181
 Alpha  occ. eigenvalues --  -10.25982 -10.25969 -10.25497 -10.25361 -10.24991
 Alpha  occ. eigenvalues --  -10.24882 -10.24733 -10.24018 -10.23289 -10.23201
 Alpha  occ. eigenvalues --  -10.23192 -10.23070 -10.23032 -10.22639 -10.22031
 Alpha  occ. eigenvalues --  -10.21407 -10.21350 -10.21205 -10.21004 -10.20978
 Alpha  occ. eigenvalues --  -10.19589 -10.19013 -10.18845 -10.18834 -10.18782
 Alpha  occ. eigenvalues --  -10.18773 -10.18579 -10.18155 -10.17947 -10.16858
 Alpha  occ. eigenvalues --  -10.16665 -10.16603 -10.16400 -10.15931 -10.15882
 Alpha  occ. eigenvalues --  -10.15853 -10.13714  -1.90003  -1.17514  -1.17289
 Alpha  occ. eigenvalues --   -1.16971  -1.16580  -1.08044  -1.07152  -1.06318
 Alpha  occ. eigenvalues --   -1.06054  -1.05279  -1.04240  -1.03689  -1.02657
 Alpha  occ. eigenvalues --   -1.02387  -1.01930  -1.01639  -1.01453  -1.01017
 Alpha  occ. eigenvalues --   -1.00926  -1.00675  -1.00574  -1.00382  -0.99700
 Alpha  occ. eigenvalues --   -0.99697  -0.96521  -0.96033  -0.95632  -0.95140
 Alpha  occ. eigenvalues --   -0.94451  -0.92835  -0.92448  -0.92252  -0.91851
 Alpha  occ. eigenvalues --   -0.91786  -0.91139  -0.90955  -0.90743  -0.90528
 Alpha  occ. eigenvalues --   -0.90418  -0.89840  -0.89352  -0.88833  -0.85624
 Alpha  occ. eigenvalues --   -0.84682  -0.84300  -0.81855  -0.81119  -0.79511
 Alpha  occ. eigenvalues --   -0.79177  -0.78206  -0.77245  -0.77035  -0.76871
 Alpha  occ. eigenvalues --   -0.76616  -0.75674  -0.75498  -0.75142  -0.74979
 Alpha  occ. eigenvalues --   -0.74515  -0.74185  -0.72941  -0.72471  -0.71649
 Alpha  occ. eigenvalues --   -0.71226  -0.71085  -0.70042  -0.69761  -0.67580
 Alpha  occ. eigenvalues --   -0.66828  -0.66469  -0.65721  -0.65062  -0.64837
 Alpha  occ. eigenvalues --   -0.64490  -0.64387  -0.63669  -0.63595  -0.62209
 Alpha  occ. eigenvalues --   -0.62153  -0.61749  -0.61526  -0.61174  -0.61119
 Alpha  occ. eigenvalues --   -0.59785  -0.59523  -0.59435  -0.59384  -0.59123
 Alpha  occ. eigenvalues --   -0.58916  -0.58548  -0.58332  -0.58191  -0.57911
 Alpha  occ. eigenvalues --   -0.57432  -0.56879  -0.56795  -0.56385  -0.56306
 Alpha  occ. eigenvalues --   -0.55991  -0.54992  -0.54838  -0.54746  -0.54245
 Alpha  occ. eigenvalues --   -0.53850  -0.53680  -0.53232  -0.53148  -0.52862
 Alpha  occ. eigenvalues --   -0.52422  -0.51972  -0.51802  -0.51427  -0.50743
 Alpha  occ. eigenvalues --   -0.50683  -0.50396  -0.50238  -0.49890  -0.49562
 Alpha  occ. eigenvalues --   -0.49318  -0.49193  -0.48963  -0.48743  -0.48647
 Alpha  occ. eigenvalues --   -0.48508  -0.47819  -0.47698  -0.47475  -0.47246
 Alpha  occ. eigenvalues --   -0.47063  -0.47043  -0.46944  -0.46523  -0.46117
 Alpha  occ. eigenvalues --   -0.46059  -0.45967  -0.45886  -0.45780  -0.45376
 Alpha  occ. eigenvalues --   -0.45338  -0.45251  -0.44998  -0.44927  -0.44750
 Alpha  occ. eigenvalues --   -0.44504  -0.44428  -0.44008  -0.43870  -0.43651
 Alpha  occ. eigenvalues --   -0.43453  -0.43370  -0.43266  -0.43179  -0.43127
 Alpha  occ. eigenvalues --   -0.42717  -0.42540  -0.42349  -0.42291  -0.42149
 Alpha  occ. eigenvalues --   -0.42059  -0.41800  -0.41684  -0.41621  -0.41386
 Alpha  occ. eigenvalues --   -0.41324  -0.41134  -0.41001  -0.40803  -0.40691
 Alpha  occ. eigenvalues --   -0.40500  -0.40398  -0.40320  -0.40182  -0.40080
 Alpha  occ. eigenvalues --   -0.39533  -0.39488  -0.39462  -0.39379  -0.39129
 Alpha  occ. eigenvalues --   -0.38997  -0.38943  -0.38652  -0.38636  -0.38459
 Alpha  occ. eigenvalues --   -0.38431  -0.38358  -0.37970  -0.37875  -0.37849
 Alpha  occ. eigenvalues --   -0.37715  -0.37391  -0.37273  -0.37090  -0.36948
 Alpha  occ. eigenvalues --   -0.36842  -0.36572  -0.36422  -0.36290  -0.35891
 Alpha  occ. eigenvalues --   -0.35876  -0.35687  -0.35609  -0.35470  -0.34804
 Alpha  occ. eigenvalues --   -0.34710  -0.34676  -0.34370  -0.34361  -0.34314
 Alpha  occ. eigenvalues --   -0.33952  -0.33813  -0.33565  -0.33411  -0.33121
 Alpha  occ. eigenvalues --   -0.32859  -0.32657  -0.32541  -0.32335  -0.31578
 Alpha  occ. eigenvalues --   -0.31460  -0.30887  -0.30816  -0.30788  -0.29571
 Alpha  occ. eigenvalues --   -0.29238  -0.29026  -0.28931  -0.28756  -0.27997
 Alpha  occ. eigenvalues --   -0.27920  -0.27800  -0.27504  -0.27312  -0.26748
 Alpha  occ. eigenvalues --   -0.26660  -0.26206  -0.26060  -0.25744  -0.25677
 Alpha  occ. eigenvalues --   -0.25617  -0.25593  -0.25546  -0.24989  -0.24712
 Alpha  occ. eigenvalues --   -0.24667  -0.24580  -0.24550  -0.24378  -0.23995
 Alpha  occ. eigenvalues --   -0.23409  -0.23021  -0.22636  -0.22217  -0.22167
 Alpha  occ. eigenvalues --   -0.22120  -0.21809  -0.21747  -0.21122  -0.20077
 Alpha  occ. eigenvalues --   -0.17909  -0.17456  -0.13893
 Alpha virt. eigenvalues --   -0.13308  -0.13102  -0.07783  -0.06803  -0.04586
 Alpha virt. eigenvalues --   -0.03062  -0.02527  -0.01989  -0.01503  -0.01306
 Alpha virt. eigenvalues --   -0.00596  -0.00417  -0.00154  -0.00086  -0.00054

 Mulliken charges:
               1
     1  C    0.078559
     2  C   -0.020834
     3  O   -0.313489
     4  H    0.064607
     5  H    0.018328
     6  H    0.003841
     7  N   -0.125823
     8  C    0.122496
     9  C    0.065684
    10  O   -0.258321
    11  C    0.109212
    12  C    0.081613
    13  O   -0.342349
    14  O   -0.459807
    15  H    0.120262
    16  H   -0.022105
    17  H    0.025544
    18  H    0.007748
    19  N   -0.129864
    20  C    0.109701
    21  C    0.058214
    22  O   -0.299036
    23  C    0.039036
    24  C    0.092541
    25  C   -0.111802
    26  C    0.072565
    27  N    0.081556
    28  H    0.102207
    29  H    0.003405
    30  H    0.026297
    31  H    0.012841
    32  H    0.008383
    33  H    0.012183
    34  H    0.035873
    35  H    0.022995
    36  H    0.043972
    37  H    0.105723
    38  H    0.180864
    39  H    0.178283
    40  H    0.181718
    41  N   -0.112558
    42  C    0.137416
    43  C    0.035932
    44  O   -0.275447
    45  C    0.040630
    46  C    0.120530
    47  O   -0.341628
    48  O   -0.492115
    49  H    0.134255
    50  H    0.017652
    51  H    0.008811
    52  H    0.036649
    53  N   -0.183739
    54  C    0.195715
    55  C    0.038528
    56  O   -0.284653
    57  H    0.151016
    58  H    0.036975
    59  H    0.018144
    60  N   -0.110869
    61  C    0.142326
    62  C    0.072088
    63  O   -0.337633
    64  C    0.084504
    65  C   -0.036669
    66  N   -0.042660
    67  O   -0.255207
    68  H    0.151951
    69  H   -0.000670
    70  H   -0.003821
    71  H    0.048981
    72  H    0.115549
    73  H    0.124840
    74  N   -0.147240
    75  C    0.238336
    76  C    0.031435
    77  O   -0.257148
    78  H    0.138072
    79  H    0.021904
    80  H    0.007030
    81  N   -0.134926
    82  C    0.091473
    83  C    0.116311
    84  O   -0.263247
    85  C    0.156557
    86  C   -0.095657
    87  C    0.013273
    88  C   -0.014999
    89  C   -0.008711
    90  C   -0.054243
    91  C    0.187019
    92  O   -0.204416
    93  H    0.118831
    94  H    0.003491
    95  H    0.000691
    96  H    0.003993
    97  H   -0.005978
    98  H   -0.017884
    99  H   -0.016102
   100  H   -0.035531
   101  H    0.171652
   102  N   -0.111455
   103  C    0.146184
   104  C    0.039878
   105  O   -0.254707
   106  C   -0.141934
   107  C    0.024592
   108  C    0.115266
   109  C    0.018558
   110  H    0.143681
   111  H   -0.017380
   112  H   -0.008539
   113  H   -0.002845
   114  H   -0.007052
   115  H    0.007050
   116  H    0.016209
   117  H    0.007097
   118  H   -0.019896
   119  H    0.011208
   120  H    0.013536
   121  N   -0.135533
   122  C    0.136248
   123  C    0.052332
   124  O   -0.266247
   125  C    0.229900
   126  O   -0.334225
   127  H    0.113647
   128  H    0.033810
   129  H    0.026049
   130  H    0.006667
   131  H    0.186894
   132  N   -0.135126
   133  C    0.011986
   134  C    0.080319
   135  O   -0.259809
   136  C    0.099699
   137  H    0.120560
   138  H    0.024288
   139  H    0.040383
   140  H    0.018713
   141  H   -0.017128
   142  N   -0.083074
   143  C    0.058301
   144  C    0.028200
   145  O   -0.279413
   146  C    0.059254
   147  H    0.123835
   148  H   -0.007046
   149  H    0.019087
   150  H    0.007250
   151  H    0.031445
   152  N   -0.101033
   153  C    0.083882
   154  C    0.037200
   155  O   -0.297540
   156  C    0.046055
   157  C    0.099017
   158  C    0.043488
   159  O   -0.326445
   160  O   -0.296496
   161  H    0.106913
   162  H    0.011087
   163  H    0.003617
   164  H   -0.021782
   165  H    0.003907
   166  H   -0.022676
   167  N   -0.150540
   168  C    0.133438
   169  H    0.017381
   170  H    0.038296
   171  H    0.040589
   172  H    0.102786
   173  Ca   1.124498
   174  O   -0.297850
   175  H    0.204732
   176  H    0.185129
 Sum of Mulliken charges =  -0.00000

 Dipole moment (field-independent basis, Debye):
    X=             59.4462    Y=            -25.7737    Z=              5.1549  Tot=             64.9978
 Quadrupole moment (field-independent basis, Debye-Ang):
   XX=           -169.5547   YY=           -580.3387   ZZ=           -568.0230
   XY=           -482.9685   XZ=            -83.0222   YZ=             63.8529

 ESP charges:
               1
     1  C   -0.440155
     2  C    0.687870
     3  O   -0.592599
     4  H    0.161560
     5  H    0.119646
     6  H    0.088980
     7  N   -0.541896
     8  C    0.243254
     9  C    0.311460
    10  O   -0.487473
    11  C   -0.215145
    12  C    0.656226
    13  O   -0.638322
    14  O   -0.548832
    15  H    0.290496
    16  H    0.003885
    17  H    0.095016
    18  H    0.070409
    19  N   -0.191009
    20  C   -0.240250
    21  C    0.631762
    22  O   -0.572566
    23  C   -0.018951
    24  C   -0.182538
    25  C   -0.073447
    26  C    0.099767
    27  N   -0.410427
    28  H    0.206360
    29  H    0.111283
    30  H    0.077296
    31  H    0.048024
    32  H    0.081579
    33  H    0.073975
    34  H    0.058490
    35  H    0.077484
    36  H    0.062173
    37  H    0.086532
    38  H    0.340280
    39  H    0.326783
    40  H    0.322345
    41  N   -0.248005
    42  C   -0.227914
    43  C    0.533189
    44  O   -0.532123
    45  C   -0.131443
    46  C    0.591431
    47  O   -0.641773
    48  O   -0.664157
    49  H    0.152522
    50  H    0.154000
    51  H    0.074890
    52  H    0.104691
    53  N   -0.206768
    54  C   -0.449926
    55  C    0.688130
    56  O   -0.562958
    57  H    0.194558
    58  H    0.190941
    59  H    0.150174
    60  N   -0.449100
    61  C    0.018391
    62  C    0.338161
    63  O   -0.336130
    64  C   -0.266754
    65  C    0.744129
    66  N   -0.828414
    67  O   -0.574925
    68  H    0.355035
    69  H    0.082404
    70  H    0.097597
    71  H    0.139678
    72  H    0.369669
    73  H    0.358258
    74  N   -0.255035
    75  C   -0.168763
    76  C    0.630825
    77  O   -0.533774
    78  H    0.230263
    79  H    0.115270
    80  H    0.069840
    81  N   -0.525442
    82  C    0.311840
    83  C    0.567440
    84  O   -0.522887
    85  C   -0.228197
    86  C    0.083053
    87  C   -0.167062
    88  C   -0.156654
    89  C   -0.265883
    90  C   -0.346584
    91  C    0.431472
    92  O   -0.574468
    93  H    0.246947
    94  H    0.003667
    95  H    0.076638
    96  H    0.081065
    97  H    0.156649
    98  H    0.146664
    99  H    0.172350
   100  H    0.155505
   101  H    0.414524
   102  N   -0.717687
   103  C    0.216794
   104  C    0.560064
   105  O   -0.481128
   106  C    0.291691
   107  C    0.111478
   108  C   -0.511495
   109  C   -0.306025
   110  H    0.330366
   111  H    0.025190
   112  H   -0.057942
   113  H   -0.022299
   114  H    0.004457
   115  H    0.146978
   116  H    0.131357
   117  H    0.108254
   118  H    0.060134
   119  H    0.061843
   120  H    0.087923
   121  N   -0.558812
   122  C    0.033676
   123  C    0.519332
   124  O   -0.524088
   125  C    0.013369
   126  O   -0.577270
   127  H    0.241368
   128  H    0.104477
   129  H    0.078516
   130  H    0.066382
   131  H    0.419426
   132  N   -0.281149
   133  C    0.180779
   134  C    0.568268
   135  O   -0.541123
   136  C   -0.350385
   137  H    0.222937
   138  H    0.039084
   139  H    0.124408
   140  H    0.100780
   141  H    0.063386
   142  N   -0.556126
   143  C    0.317959
   144  C    0.473875
   145  O   -0.550569
   146  C   -0.493393
   147  H    0.323522
   148  H    0.060456
   149  H    0.141238
   150  H    0.124204
   151  H    0.151072
   152  N   -0.496228
   153  C   -0.177529
   154  C    0.499758
   155  O   -0.520656
   156  C    0.348226
   157  C   -0.548108
   158  C    0.759042
   159  O   -0.615382
   160  O   -0.589780
   161  H    0.297414
   162  H    0.071592
   163  H   -0.025056
   164  H   -0.034431
   165  H    0.162457
   166  H    0.117700
   167  N   -0.305416
   168  C   -0.128286
   169  H    0.076303
   170  H    0.086398
   171  H    0.097296
   172  H    0.261627
   173  Ca   1.104281
   174  O   -0.807010
   175  H    0.432302
   176  H    0.411888
 Sum of ESP charges =   0.00000

 Normal termination of Gaussian 16 at Wed Sep 18 11:44:08 2019.
