 Gaussian 16, Revision A.03,
 Gaussian 16:  ES64L-G16RevA.03 25-Dec-2016

 ----------------------------------------------------------------------
 #b3lyp/svp scf=(tight,noincore) Test #IOP(5/87=12) Density=Current Pop
 =(MK,readradii) iop(6/33=2) iop(6/42=6)
 ----------------------------------------------------------------------

 -----------------
 Ng-293_loop3_76.0
 -----------------
 Symbolic Z-matrix:
 Charge =  0 Multiplicity = 1

                         Standard orientation:
 ---------------------------------------------------------------------
 Center     Atomic      Atomic             Coordinates (Angstroms)
 Number     Number       Type             X           Y           Z
 ---------------------------------------------------------------------
      1          6           0        8.828600    0.306596    5.651223
      2          6           0        9.622762    0.447016    4.354655
      3          8           0       10.481199   -0.393093    4.115693
      4          1           0        9.267405   -0.482546    6.262244
      5          1           0        8.857362    1.247666    6.199421
      6          1           0        7.793914    0.053046    5.419078
      7          7           0        9.426212    1.532456    3.612638
      8          6           0        9.896017    1.580397    2.240966
      9          6           0        9.103743    0.632432    1.342821
     10          8           0        7.940249    0.309741    1.549587
     11          6           0        9.887982    2.945338    1.557612
     12          6           0        8.585640    3.704816    1.749176
     13          8           0        8.375258    4.500777    2.688264
     14          8           0        7.732846    3.463773    0.865071
     15          1           0        8.715653    2.173410    3.946832
     16          1           0       10.927397    1.216172    2.191017
     17          1           0        9.985784    2.781819    0.483091
     18          1           0       10.662927    3.611113    1.931383
     19          7           0        9.840367    0.197394    0.325606
     20          6           0        9.527366   -0.623603   -0.825478
     21          6           0        8.465346   -0.134172   -1.798654
     22          8           0        8.719743   -0.136006   -3.002929
     23          6           0        9.215862   -2.015239   -0.275101
     24          6           0        9.161360   -3.191644   -1.248805
     25          6           0       10.560498   -3.559498   -1.738801
     26          6           0       10.711184   -4.702438   -2.743779
     27          7           0       10.260368   -6.023733   -2.261550
     28          1           0       10.762709    0.607515    0.289724
     29          1           0       10.423563   -0.571701   -1.441787
     30          1           0        8.254923   -2.005407    0.215918
     31          1           0        9.938121   -2.255192    0.504107
     32          1           0        8.637391   -2.696261   -2.068472
     33          1           0        8.516643   -3.977605   -0.836004
     34          1           0       11.246469   -3.822603   -0.947461
     35          1           0       11.068156   -2.725304   -2.222231
     36          1           0       11.747100   -4.809667   -3.064528
     37          1           0       10.093990   -4.361649   -3.560317
     38          1           0        9.316408   -6.063917   -1.914094
     39          1           0       10.405693   -6.575853   -3.094763
     40          1           0       10.790244   -6.330944   -1.460768
     41          7           0        7.239881    0.060540   -1.300937
     42          6           0        6.074222    0.457509   -2.068176
     43          6           0        5.047109    1.311001   -1.335586
     44          8           0        4.448804    0.856326   -0.366101
     45          6           0        5.395303   -0.818405   -2.560734
     46          6           0        4.282650   -0.395082   -3.514778
     47          8           0        4.453250    0.620841   -4.230946
     48          8           0        3.272882   -1.132108   -3.506998
     49          1           0        7.131595    0.054880   -0.300366
     50          1           0        6.432013    0.961555   -2.970464
     51          1           0        4.908951   -1.428256   -1.799786
     52          1           0        6.123862   -1.412210   -3.097297
     53          7           0        4.664808    2.452545   -1.899700
     54          6           0        3.630277    3.342330   -1.416765
     55          6           0        2.331951    2.658530   -1.016554
     56          8           0        1.596725    2.202489   -1.893349
     57          1           0        4.994238    2.636598   -2.838050
     58          1           0        3.380339    4.060105   -2.195822
     59          1           0        4.072997    3.798484   -0.524452
     60          7           0        1.971331    2.618004    0.267234
     61          6           0        0.836770    1.854754    0.758376
     62          6           0       -0.440062    2.625371    0.470539
     63          8           0       -1.519543    2.091909    0.213174
     64          6           0        0.928131    1.476424    2.238383
     65          6           0        2.214807    0.706959    2.524893
     66          7           0        3.151348    1.288641    3.270974
     67          8           0        2.341393   -0.386773    1.986817
     68          1           0        2.688153    2.823580    0.940735
     69          1           0        0.721088    0.950079    0.169665
     70          1           0        0.118421    0.803166    2.504640
     71          1           0        0.974975    2.312238    2.934889
     72          1           0        3.105432    2.277409    3.487375
     73          1           0        4.024786    0.813627    3.460358
     74          7           0       -0.335180    3.948135    0.588416
     75          6           0       -1.384055    4.908019    0.272052
     76          6           0       -2.781868    4.545636    0.740769
     77          8           0       -3.085740    4.422887    1.921995
     78          1           0        0.604874    4.277477    0.764575
     79          1           0       -1.474281    5.046727   -0.804619
     80          1           0       -1.225346    5.907515    0.659374
     81          7           0       -3.646388    4.426728   -0.275039
     82          6           0       -5.075122    4.181688   -0.235361
     83          6           0       -5.558808    2.876724    0.394017
     84          8           0       -6.733245    2.808621    0.740659
     85          6           0       -5.852301    5.419835    0.198442
     86          6           0       -5.520149    6.713675   -0.509763
     87          6           0       -5.249208    7.864978    0.239165
     88          6           0       -5.392457    6.706765   -1.904878
     89          6           0       -4.796660    8.978493   -0.486013
     90          6           0       -4.993895    7.825934   -2.648860
     91          6           0       -4.689495    8.965714   -1.887781
     92          8           0       -4.460412   10.103808   -2.591531
     93          1           0       -3.349328    4.744691   -1.186552
     94          1           0       -5.498950    4.059533   -1.225082
     95          1           0       -5.778687    5.518341    1.282452
     96          1           0       -6.901748    5.213495   -0.004250
     97          1           0       -5.407746    7.928434    1.303749
     98          1           0       -5.451379    5.753912   -2.415760
     99          1           0       -4.664583    9.948411   -0.020487
    100          1           0       -4.992418    7.698406   -3.728505
    101          1           0       -4.303657    9.878826   -3.508106
    102          7           0       -4.659676    1.895201    0.484973
    103          6           0       -4.874800    0.544773    0.957165
    104          6           0       -5.698231   -0.250560   -0.039634
    105          8           0       -5.249294   -1.230948   -0.650121
    106          6           0       -5.316543    0.448763    2.419952
    107          6           0       -4.279873    1.083142    3.351767
    108          6           0       -5.557918   -1.002106    2.836264
    109          6           0       -4.946798    1.572677    4.631989
    110          1           0       -3.811219    2.026914   -0.039406
    111          1           0       -3.901715    0.065956    0.827400
    112          1           0       -6.234622    1.019090    2.509714
    113          1           0       -3.761792    1.889250    2.845920
    114          1           0       -3.509688    0.358783    3.613718
    115          1           0       -6.270537   -1.533940    2.212144
    116          1           0       -4.633589   -1.584297    2.857948
    117          1           0       -6.013527   -1.091585    3.824957
    118          1           0       -5.457932    0.707823    5.062999
    119          1           0       -4.115328    1.933457    5.235723
    120          1           0       -5.693818    2.330000    4.419805
    121          7           0       -6.874871    0.271824   -0.402584
    122          6           0       -7.657334   -0.278934   -1.486012
    123          6           0       -8.509092   -1.491195   -1.170687
    124          8           0       -8.765196   -2.309923   -2.048353
    125          6           0       -8.473830    0.852750   -2.114763
    126          8           0       -7.873633    2.128553   -2.055682
    127          1           0       -7.155230    1.118479    0.061285
    128          1           0       -6.982469   -0.619090   -2.276108
    129          1           0       -9.464826    0.965561   -1.681982
    130          1           0       -8.588802    0.546486   -3.158450
    131          1           0       -7.310873    2.151185   -2.834970
    132          7           0       -8.768748   -1.681547    0.129176
    133          6           0       -9.268850   -2.913760    0.699922
    134          6           0       -8.428088   -4.155165    0.433590
    135          8           0       -8.977587   -5.253616    0.452459
    136          6           0      -10.765822   -2.989732    0.380073
    137          1           0       -8.527204   -0.895427    0.719744
    138          1           0       -9.216871   -2.599430    1.735438
    139          1           0      -10.858328   -3.422235   -0.606529
    140          1           0      -11.296446   -3.609178    1.105694
    141          1           0      -11.253148   -2.018926    0.395889
    142          7           0       -7.136548   -3.998360    0.128407
    143          6           0       -6.249619   -5.000269   -0.416511
    144          6           0       -4.944355   -5.013497    0.363111
    145          8           0       -4.659837   -4.003666    1.014564
    146          6           0       -6.141953   -4.895469   -1.938590
    147          1           0       -6.789084   -3.046760    0.065755
    148          1           0       -6.723505   -5.942072   -0.152807
    149          1           0       -5.631879   -5.778565   -2.312441
    150          1           0       -7.168512   -4.963653   -2.303729
    151          1           0       -5.709568   -3.919765   -2.179309
    152          7           0       -4.117303   -6.043811    0.178343
    153          6           0       -2.949465   -6.196004    1.023559
    154          6           0       -3.157392   -6.077795    2.522957
    155          8           0       -2.301588   -5.708479    3.314667
    156          6           0       -1.705844   -5.527760    0.430047
    157          6           0       -1.685113   -5.254159   -1.062907
    158          6           0       -0.398756   -4.533002   -1.444113
    159          8           0        0.266113   -3.749317   -0.729489
    160          8           0        0.095080   -4.758566   -2.573469
    161          1           0       -4.398933   -6.821703   -0.401026
    162          1           0       -2.637993   -7.238444    0.922045
    163          1           0       -0.805308   -6.070809    0.686043
    164          1           0       -1.549631   -4.590932    0.970557
    165          1           0       -2.523947   -4.591082   -1.284461
    166          1           0       -1.751181   -6.189890   -1.611944
    167          7           0       -4.397828   -6.352125    2.954536
    168          6           0       -4.844146   -6.429142    4.324488
    169          1           0       -4.298190   -7.219300    4.840290
    170          1           0       -4.660102   -5.476866    4.821114
    171          1           0       -5.911092   -6.651282    4.347572
    172          1           0       -5.028112   -6.603666    2.204889
    173         20           0        2.171431   -3.255494   -2.594510
    174          8           0        1.372533   -2.579098   -4.995520
    175          1           0        0.429632   -2.599032   -5.150247
    176          1           0        1.738831   -2.195044   -5.788129
 ---------------------------------------------------------------------

 SCF Done:  E(RB3LYP) =  -5333.36310440     A.U. after   38 cycles

 The electronic state is 1-A.
 Alpha  occ. eigenvalues -- -145.46738 -19.18712 -19.15702 -19.13861 -19.09493
 Alpha  occ. eigenvalues --  -19.08983 -19.08949 -19.08916 -19.08893 -19.08728
 Alpha  occ. eigenvalues --  -19.08290 -19.08072 -19.07615 -19.07585 -19.07558
 Alpha  occ. eigenvalues --  -19.07504 -19.07480 -19.06915 -19.06903 -19.06830
 Alpha  occ. eigenvalues --  -19.05604 -19.03667 -18.97335 -18.96837 -15.52677
 Alpha  occ. eigenvalues --  -14.58028 -14.36351 -14.35238 -14.35204 -14.34722
 Alpha  occ. eigenvalues --  -14.34620 -14.34554 -14.34240 -14.34136 -14.33433
 Alpha  occ. eigenvalues --  -14.33372 -14.33144 -14.33055 -14.32792 -14.31449
 Alpha  occ. eigenvalues --  -12.66311 -12.66262 -12.66151 -10.34914 -10.27975
 Alpha  occ. eigenvalues --  -10.27942 -10.27491 -10.27416 -10.27368 -10.27338
 Alpha  occ. eigenvalues --  -10.27209 -10.26829 -10.26812 -10.26605 -10.26557
 Alpha  occ. eigenvalues --  -10.26514 -10.26453 -10.26143 -10.25585 -10.24933
 Alpha  occ. eigenvalues --  -10.24762 -10.24491 -10.24375 -10.24157 -10.23537
 Alpha  occ. eigenvalues --  -10.23091 -10.22988 -10.22902 -10.22580 -10.22508
 Alpha  occ. eigenvalues --  -10.21976 -10.21796 -10.21371 -10.21278 -10.21086
 Alpha  occ. eigenvalues --  -10.21049 -10.20535 -10.20082 -10.19207 -10.19137
 Alpha  occ. eigenvalues --  -10.19123 -10.19009 -10.18760 -10.18625 -10.17867
 Alpha  occ. eigenvalues --  -10.17743 -10.17462 -10.16910 -10.16754 -10.16478
 Alpha  occ. eigenvalues --  -10.16431 -10.16417 -10.16017 -10.15372 -10.14847
 Alpha  occ. eigenvalues --  -10.14625 -10.12909  -1.89295  -1.17018  -1.16688
 Alpha  occ. eigenvalues --   -1.15893  -1.13585  -1.05022  -1.04787  -1.03064
 Alpha  occ. eigenvalues --   -1.02999  -1.02506  -1.02362  -1.02221  -1.01955
 Alpha  occ. eigenvalues --   -1.01795  -1.01305  -1.00929  -1.00755  -1.00651
 Alpha  occ. eigenvalues --   -1.00525  -1.00184  -0.99940  -0.99800  -0.99150
 Alpha  occ. eigenvalues --   -0.98679  -0.92888  -0.92577  -0.92321  -0.92283
 Alpha  occ. eigenvalues --   -0.92125  -0.91670  -0.91352  -0.91149  -0.90348
 Alpha  occ. eigenvalues --   -0.90260  -0.90156  -0.89864  -0.89657  -0.89594
 Alpha  occ. eigenvalues --   -0.89144  -0.88769  -0.88708  -0.88218  -0.84726
 Alpha  occ. eigenvalues --   -0.82702  -0.81686  -0.79718  -0.78885  -0.78569
 Alpha  occ. eigenvalues --   -0.77988  -0.77650  -0.77340  -0.75678  -0.75637
 Alpha  occ. eigenvalues --   -0.74820  -0.74581  -0.74311  -0.74036  -0.72728
 Alpha  occ. eigenvalues --   -0.72403  -0.72284  -0.71546  -0.71353  -0.70973
 Alpha  occ. eigenvalues --   -0.69602  -0.68921  -0.68715  -0.68373  -0.66868
 Alpha  occ. eigenvalues --   -0.65889  -0.64941  -0.64740  -0.64393  -0.63935
 Alpha  occ. eigenvalues --   -0.63084  -0.62248  -0.61745  -0.61374  -0.61244
 Alpha  occ. eigenvalues --   -0.61015  -0.60450  -0.59710  -0.59229  -0.59149
 Alpha  occ. eigenvalues --   -0.58410  -0.58182  -0.58055  -0.57992  -0.57482
 Alpha  occ. eigenvalues --   -0.57370  -0.56916  -0.56343  -0.56331  -0.55947
 Alpha  occ. eigenvalues --   -0.55894  -0.55664  -0.55328  -0.54880  -0.54741
 Alpha  occ. eigenvalues --   -0.54274  -0.54047  -0.53593  -0.53489  -0.53156
 Alpha  occ. eigenvalues --   -0.52938  -0.52668  -0.52405  -0.51445  -0.51189
 Alpha  occ. eigenvalues --   -0.50993  -0.50345  -0.49887  -0.49699  -0.49214
 Alpha  occ. eigenvalues --   -0.48939  -0.48578  -0.48334  -0.48136  -0.47809
 Alpha  occ. eigenvalues --   -0.47307  -0.47009  -0.46934  -0.46886  -0.46801
 Alpha  occ. eigenvalues --   -0.46733  -0.46634  -0.46334  -0.46185  -0.45944
 Alpha  occ. eigenvalues --   -0.45612  -0.45534  -0.45253  -0.45017  -0.44627
 Alpha  occ. eigenvalues --   -0.44575  -0.44483  -0.44365  -0.44273  -0.44149
 Alpha  occ. eigenvalues --   -0.44040  -0.43497  -0.43431  -0.43410  -0.43154
 Alpha  occ. eigenvalues --   -0.43040  -0.42971  -0.42606  -0.42480  -0.42177
 Alpha  occ. eigenvalues --   -0.41835  -0.41745  -0.41675  -0.41606  -0.41585
 Alpha  occ. eigenvalues --   -0.41490  -0.41222  -0.41079  -0.40981  -0.40781
 Alpha  occ. eigenvalues --   -0.40733  -0.40518  -0.40405  -0.40338  -0.40192
 Alpha  occ. eigenvalues --   -0.40027  -0.39769  -0.39691  -0.39437  -0.39403
 Alpha  occ. eigenvalues --   -0.39256  -0.39167  -0.38907  -0.38687  -0.38542
 Alpha  occ. eigenvalues --   -0.38359  -0.38253  -0.38145  -0.38126  -0.37910
 Alpha  occ. eigenvalues --   -0.37702  -0.37560  -0.37557  -0.37507  -0.37309
 Alpha  occ. eigenvalues --   -0.37192  -0.37176  -0.37132  -0.37018  -0.36731
 Alpha  occ. eigenvalues --   -0.36555  -0.36421  -0.36037  -0.35976  -0.35887
 Alpha  occ. eigenvalues --   -0.35766  -0.35662  -0.35583  -0.35544  -0.35286
 Alpha  occ. eigenvalues --   -0.35238  -0.35090  -0.35007  -0.34432  -0.34386
 Alpha  occ. eigenvalues --   -0.34271  -0.34230  -0.34170  -0.34006  -0.33653
 Alpha  occ. eigenvalues --   -0.33646  -0.33123  -0.33112  -0.33035  -0.32997
 Alpha  occ. eigenvalues --   -0.32154  -0.32128  -0.31159  -0.31136  -0.30493
 Alpha  occ. eigenvalues --   -0.29989  -0.28568  -0.28566  -0.27723  -0.27600
 Alpha  occ. eigenvalues --   -0.27075  -0.26893  -0.26836  -0.26823  -0.26503
 Alpha  occ. eigenvalues --   -0.26429  -0.26249  -0.26143  -0.25864  -0.25568
 Alpha  occ. eigenvalues --   -0.25460  -0.24976  -0.24940  -0.24655  -0.24463
 Alpha  occ. eigenvalues --   -0.24406  -0.24062  -0.23974  -0.23780  -0.23676
 Alpha  occ. eigenvalues --   -0.23615  -0.23292  -0.23149  -0.23144  -0.23054
 Alpha  occ. eigenvalues --   -0.22782  -0.22511  -0.22386  -0.22350  -0.22217
 Alpha  occ. eigenvalues --   -0.21993  -0.21761  -0.21543  -0.21335  -0.19854
 Alpha  occ. eigenvalues --   -0.14553  -0.14492  -0.11928
 Alpha virt. eigenvalues --   -0.10956  -0.09088  -0.04930  -0.04459  -0.01939
 Alpha virt. eigenvalues --   -0.01075  -0.00012   0.00146   0.01375   0.01608
 Alpha virt. eigenvalues --    0.01685   0.01749   0.01755   0.01865   0.02162

 Mulliken charges:
               1
     1  C    0.049386
     2  C    0.010093
     3  O   -0.309310
     4  H    0.013998
     5  H    0.022353
     6  H    0.027868
     7  N   -0.090856
     8  C    0.080542
     9  C    0.061490
    10  O   -0.278605
    11  C    0.139502
    12  C    0.001989
    13  O   -0.366627
    14  O   -0.376484
    15  H    0.126203
    16  H   -0.015877
    17  H   -0.030845
    18  H   -0.013869
    19  N   -0.097367
    20  C    0.087076
    21  C    0.080111
    22  O   -0.297169
    23  C    0.047407
    24  C    0.025810
    25  C   -0.028326
    26  C    0.018581
    27  N    0.112310
    28  H    0.117601
    29  H   -0.011857
    30  H    0.025896
    31  H    0.005229
    32  H    0.027293
    33  H   -0.013324
    34  H    0.005634
    35  H    0.055319
    36  H    0.065796
    37  H    0.070442
    38  H    0.150485
    39  H    0.158152
    40  H    0.151875
    41  N   -0.129755
    42  C    0.124068
    43  C    0.111146
    44  O   -0.294773
    45  C    0.039649
    46  C    0.160009
    47  O   -0.354232
    48  O   -0.482824
    49  H    0.143115
    50  H    0.006795
    51  H   -0.052806
    52  H   -0.015465
    53  N   -0.106330
    54  C    0.248096
    55  C    0.017634
    56  O   -0.275609
    57  H    0.134732
    58  H    0.023990
    59  H    0.018117
    60  N   -0.133006
    61  C    0.118054
    62  C    0.080551
    63  O   -0.287580
    64  C    0.108527
    65  C   -0.001042
    66  N   -0.043789
    67  O   -0.254193
    68  H    0.113208
    69  H    0.029249
    70  H    0.046934
    71  H   -0.026906
    72  H    0.123152
    73  H    0.143671
    74  N   -0.122285
    75  C    0.233959
    76  C    0.048582
    77  O   -0.260800
    78  H    0.110329
    79  H   -0.018108
    80  H    0.032243
    81  N   -0.122230
    82  C    0.068823
    83  C    0.082096
    84  O   -0.299750
    85  C    0.155868
    86  C   -0.013841
    87  C   -0.003115
    88  C   -0.044223
    89  C   -0.018358
    90  C   -0.061337
    91  C    0.171771
    92  O   -0.190590
    93  H    0.125053
    94  H    0.015416
    95  H    0.002600
    96  H    0.018380
    97  H   -0.018322
    98  H   -0.044310
    99  H   -0.017525
   100  H   -0.033342
   101  H    0.169989
   102  N   -0.103151
   103  C    0.171230
   104  C    0.030838
   105  O   -0.285420
   106  C   -0.097633
   107  C    0.017927
   108  C    0.083556
   109  C    0.047447
   110  H    0.143230
   111  H    0.009317
   112  H   -0.013463
   113  H    0.013976
   114  H   -0.015605
   115  H   -0.023667
   116  H    0.035009
   117  H   -0.011122
   118  H   -0.010258
   119  H    0.009153
   120  H    0.012305
   121  N   -0.137814
   122  C    0.081824
   123  C    0.046285
   124  O   -0.267891
   125  C    0.224103
   126  O   -0.293190
   127  H    0.137126
   128  H    0.007276
   129  H    0.001304
   130  H    0.010725
   131  H    0.161453
   132  N   -0.173895
   133  C    0.090288
   134  C    0.081861
   135  O   -0.279918
   136  C    0.079877
   137  H    0.120613
   138  H    0.001009
   139  H    0.032973
   140  H    0.013548
   141  H   -0.005883
   142  N   -0.137318
   143  C    0.074422
   144  C    0.048945
   145  O   -0.246789
   146  C    0.081332
   147  H    0.159031
   148  H   -0.013537
   149  H   -0.014553
   150  H    0.040640
   151  H    0.045029
   152  N   -0.140600
   153  C    0.133047
   154  C    0.049705
   155  O   -0.250811
   156  C   -0.020631
   157  C    0.123286
   158  C    0.093658
   159  O   -0.408629
   160  O   -0.477956
   161  H    0.123264
   162  H   -0.000978
   163  H   -0.010789
   164  H    0.041442
   165  H    0.036902
   166  H   -0.018612
   167  N   -0.151651
   168  C    0.145298
   169  H    0.017802
   170  H    0.037266
   171  H    0.015531
   172  H    0.104444
   173  Ca   1.396947
   174  O   -0.305478
   175  H    0.186883
   176  H    0.190828
 Sum of Mulliken charges =  -0.00000

 Dipole moment (field-independent basis, Debye):
    X=             16.8846    Y=            -28.4846    Z=            -17.9899  Tot=             37.6842
 Quadrupole moment (field-independent basis, Debye-Ang):
   XX=           -445.7453   YY=           -430.0769   ZZ=           -541.2338
   XY=           -322.3040   XZ=           -119.6832   YZ=             46.4533

 ESP charges:
               1
     1  C   -0.446894
     2  C    0.788060
     3  O   -0.621937
     4  H    0.113859
     5  H    0.109538
     6  H    0.111117
     7  N   -0.672209
     8  C    0.446646
     9  C    0.419682
    10  O   -0.519299
    11  C   -0.429409
    12  C    0.848717
    13  O   -0.706832
    14  O   -0.723981
    15  H    0.329440
    16  H   -0.032727
    17  H    0.078609
    18  H    0.070447
    19  N   -0.553419
    20  C    0.073345
    21  C    0.539857
    22  O   -0.559329
    23  C    0.035918
    24  C   -0.336668
    25  C    0.182183
    26  C    0.024663
    27  N   -0.317601
    28  H    0.311072
    29  H    0.059711
    30  H    0.081187
    31  H    0.031098
    32  H    0.083271
    33  H    0.080018
    34  H   -0.015853
    35  H    0.013489
    36  H    0.069166
    37  H    0.069958
    38  H    0.281327
    39  H    0.278017
    40  H    0.293288
    41  N   -0.201158
    42  C   -0.264203
    43  C    0.665692
    44  O   -0.463938
    45  C   -0.312701
    46  C    0.806124
    47  O   -0.630537
    48  O   -0.773700
    49  H    0.236499
    50  H    0.131398
    51  H    0.022249
    52  H    0.078802
    53  N   -0.305802
    54  C   -0.307894
    55  C    0.658916
    56  O   -0.516265
    57  H    0.294041
    58  H    0.160399
    59  H    0.110014
    60  N   -0.598908
    61  C    0.059726
    62  C    0.500228
    63  O   -0.527462
    64  C   -0.293579
    65  C    0.764032
    66  N   -0.881511
    67  O   -0.571322
    68  H    0.320811
    69  H    0.128551
    70  H    0.126387
    71  H    0.051287
    72  H    0.393968
    73  H    0.407832
    74  N   -0.288939
    75  C   -0.158715
    76  C    0.641375
    77  O   -0.528505
    78  H    0.253862
    79  H    0.069625
    80  H    0.104548
    81  N   -0.594549
    82  C    0.239041
    83  C    0.454806
    84  O   -0.533318
    85  C   -0.174538
    86  C    0.053241
    87  C   -0.096794
    88  C   -0.100282
    89  C   -0.305459
    90  C   -0.368821
    91  C    0.400436
    92  O   -0.537570
    93  H    0.288074
    94  H    0.008176
    95  H    0.086625
    96  H    0.066935
    97  H    0.132192
    98  H    0.122640
    99  H    0.170195
   100  H    0.165809
   101  H    0.396920
   102  N   -0.388330
   103  C   -0.320349
   104  C    0.772693
   105  O   -0.564195
   106  C    0.323694
   107  C    0.343397
   108  C   -0.446022
   109  C   -0.353355
   110  H    0.325993
   111  H    0.107591
   112  H   -0.027349
   113  H   -0.052773
   114  H   -0.068250
   115  H    0.058732
   116  H    0.132822
   117  H    0.101265
   118  H    0.042543
   119  H    0.071921
   120  H    0.082288
   121  N   -0.719332
   122  C    0.278215
   123  C    0.225763
   124  O   -0.479072
   125  C    0.191234
   126  O   -0.560053
   127  H    0.407721
   128  H    0.042970
   129  H    0.033010
   130  H   -0.015908
   131  H    0.378190
   132  N   -0.200406
   133  C    0.109349
   134  C    0.544798
   135  O   -0.532778
   136  C   -0.260126
   137  H    0.197215
   138  H    0.060365
   139  H    0.106642
   140  H    0.060768
   141  H    0.071443
   142  N   -0.701763
   143  C    0.717911
   144  C    0.388690
   145  O   -0.445976
   146  C   -0.528301
   147  H    0.279685
   148  H   -0.084310
   149  H    0.077250
   150  H    0.168377
   151  H    0.151423
   152  N   -0.596187
   153  C   -0.093728
   154  C    0.442977
   155  O   -0.495531
   156  C    0.405073
   157  C   -0.291529
   158  C    0.821596
   159  O   -0.749690
   160  O   -0.835991
   161  H    0.331211
   162  H    0.068472
   163  H   -0.098614
   164  H   -0.032575
   165  H    0.095839
   166  H    0.064199
   167  N   -0.180915
   168  C   -0.298822
   169  H    0.106143
   170  H    0.140321
   171  H    0.125696
   172  H    0.206495
   173  Ca   1.623422
   174  O   -0.870704
   175  H    0.442805
   176  H    0.442212
 Sum of ESP charges =  -0.00000

 Normal termination of Gaussian 16 at Tue Sep 17 20:32:02 2019.
