 Gaussian 16, Revision A.03,
 Gaussian 16:  ES64L-G16RevA.03 25-Dec-2016

 ----------------------------------------------------------------------
 #b3lyp/svp scf=(tight,noincore) Test #IOP(5/87=12) Density=Current Pop
 =(MK,readradii) iop(6/33=2) iop(6/42=6)
 ----------------------------------------------------------------------

 -----------------
 Ng-293_loop3_42.0
 -----------------
 Symbolic Z-matrix:
 Charge =  0 Multiplicity = 1

                         Standard orientation:
 ---------------------------------------------------------------------
 Center     Atomic      Atomic             Coordinates (Angstroms)
 Number     Number       Type             X           Y           Z
 ---------------------------------------------------------------------
      1          6           0       -9.114992   -1.759709    6.833830
      2          6           0       -9.582753   -1.550266    5.398897
      3          8           0      -10.570547   -0.841494    5.214218
      4          1           0       -8.219592   -2.380561    6.836139
      5          1           0       -8.888739   -0.794322    7.287468
      6          1           0       -9.901252   -2.254759    7.404412
      7          7           0       -8.895312   -1.990200    4.347002
      8          6           0       -9.193518   -1.680691    2.958305
      9          6           0       -7.897970   -1.304544    2.242296
     10          8           0       -6.838873   -1.316087    2.873390
     11          6           0       -9.854746   -2.943813    2.404861
     12          6           0      -10.289101   -2.747586    0.966866
     13          8           0      -10.600466   -1.633887    0.502942
     14          8           0      -10.411037   -3.702136    0.164329
     15          1           0       -7.985371   -2.395474    4.560449
     16          1           0       -9.850230   -0.811188    2.915931
     17          1           0      -10.770425   -3.119210    2.969545
     18          1           0       -9.188431   -3.802533    2.505473
     19          7           0       -7.951224   -0.897115    0.980525
     20          6           0       -6.898451   -0.574795    0.036343
     21          6           0       -5.939462   -1.719157   -0.270539
     22          8           0       -6.180565   -2.820626    0.220413
     23          6           0       -6.245644    0.765560    0.360519
     24          6           0       -7.139785    2.001750    0.423348
     25          6           0       -7.763113    2.401642   -0.918162
     26          6           0       -8.219938    3.855742   -0.813254
     27          7           0       -9.431965    4.014769    0.006259
     28          1           0       -8.892785   -0.832541    0.619010
     29          1           0       -7.384672   -0.408491   -0.923934
     30          1           0       -5.432427    0.956663   -0.344717
     31          1           0       -5.783342    0.582569    1.327830
     32          1           0       -6.445308    2.746892    0.799335
     33          1           0       -7.945410    1.878855    1.145612
     34          1           0       -8.461312    1.644450   -1.250093
     35          1           0       -6.982246    2.380761   -1.681844
     36          1           0       -8.492209    4.285641   -1.785497
     37          1           0       -7.400700    4.354531   -0.298902
     38          1           0      -10.201956    3.419213   -0.271638
     39          1           0       -9.291957    3.773282    0.975734
     40          1           0       -9.741882    4.974756   -0.007032
     41          7           0       -4.966386   -1.449037   -1.140400
     42          6           0       -3.973624   -2.427147   -1.535146
     43          6           0       -2.900801   -2.559488   -0.461537
     44          8           0       -1.937870   -1.801646   -0.379440
     45          6           0       -3.323995   -2.161719   -2.876239
     46          6           0       -2.938747   -0.722862   -3.185553
     47          8           0       -3.657168    0.239685   -2.833169
     48          8           0       -1.959759   -0.450588   -3.902246
     49          1           0       -4.939178   -0.577322   -1.666872
     50          1           0       -4.582883   -3.327820   -1.649125
     51          1           0       -3.918777   -2.628446   -3.660204
     52          1           0       -2.365610   -2.676024   -2.969980
     53          7           0       -2.931656   -3.678522    0.276169
     54          6           0       -1.895721   -4.131570    1.188576
     55          6           0       -0.694615   -4.675617    0.442146
     56          8           0        0.343423   -4.849303    1.086127
     57          1           0       -3.753525   -4.250011    0.177520
     58          1           0       -2.275691   -4.941640    1.813324
     59          1           0       -1.759207   -3.274447    1.852204
     60          7           0       -0.798437   -5.033309   -0.844780
     61          6           0        0.265587   -5.639872   -1.608543
     62          6           0        1.564918   -4.868581   -1.800771
     63          8           0        1.567353   -3.710404   -2.201046
     64          6           0       -0.315567   -6.072273   -2.947157
     65          6           0       -0.916300   -7.470150   -2.846857
     66          7           0       -0.016573   -8.419575   -2.551587
     67          8           0       -2.124756   -7.692434   -2.791863
     68          1           0       -1.713663   -5.041704   -1.289854
     69          1           0        0.600863   -6.521765   -1.067845
     70          1           0        0.429951   -6.230786   -3.731043
     71          1           0       -1.136976   -5.451730   -3.287179
     72          1           0        0.973645   -8.242702   -2.603395
     73          1           0       -0.299944   -9.374794   -2.369219
     74          7           0        2.699863   -5.529439   -1.556505
     75          6           0        4.032054   -4.998363   -1.823010
     76          6           0        4.580181   -4.100746   -0.729923
     77          8           0        3.952426   -3.780837    0.282836
     78          1           0        2.606193   -6.252666   -0.861114
     79          1           0        3.944149   -4.484454   -2.779394
     80          1           0        4.695659   -5.855644   -1.856155
     81          7           0        5.790770   -3.595678   -1.002468
     82          6           0        6.706098   -2.928235   -0.102470
     83          6           0        6.060123   -1.644521    0.405168
     84          8           0        6.602842   -0.986138    1.296172
     85          6           0        7.028157   -3.903678    1.024379
     86          6           0        8.475134   -3.920606    1.468871
     87          6           0        8.836830   -3.598057    2.781592
     88          6           0        9.501955   -4.290733    0.585047
     89          6           0       10.146204   -3.685958    3.272219
     90          6           0       10.804203   -4.472225    1.042663
     91          6           0       11.133542   -4.146543    2.380746
     92          8           0       12.401832   -4.326697    2.854016
     93          1           0        6.238588   -3.958554   -1.833359
     94          1           0        7.635772   -2.677441   -0.611301
     95          1           0        6.892975   -4.955199    0.757119
     96          1           0        6.442425   -3.757401    1.938721
     97          1           0        8.043261   -3.308753    3.456463
     98          1           0        9.177687   -4.553227   -0.415276
     99          1           0       10.372407   -3.370138    4.278842
    100          1           0       11.498090   -4.955538    0.378939
    101          1           0       12.996225   -4.683956    2.193665
    102          7           0        4.974554   -1.143462   -0.178253
    103          6           0        4.350217    0.156567   -0.027498
    104          6           0        5.090442    1.366175   -0.569269
    105          8           0        4.571114    2.121562   -1.396184
    106          6           0        3.830259    0.420628    1.389934
    107          6           0        3.186908   -0.715202    2.180245
    108          6           0        2.964286    1.667016    1.487441
    109          6           0        1.837931   -1.246095    1.707684
    110          1           0        4.526115   -1.685942   -0.900207
    111          1           0        3.497049    0.177183   -0.704536
    112          1           0        4.700959    0.655047    2.006561
    113          1           0        3.082138   -0.304308    3.182637
    114          1           0        3.891455   -1.551331    2.208552
    115          1           0        3.436654    2.637111    1.343270
    116          1           0        2.210637    1.591996    0.708670
    117          1           0        2.465801    1.657747    2.457403
    118          1           0        1.367837   -1.812575    2.518556
    119          1           0        1.285270   -0.336512    1.517096
    120          1           0        2.044875   -1.787905    0.784799
    121          7           0        6.308085    1.547062   -0.051461
    122          6           0        7.268224    2.568608   -0.419534
    123          6           0        6.739111    3.879784    0.166775
    124          8           0        7.017692    4.914018   -0.441543
    125          6           0        8.623356    2.265137    0.227090
    126          8           0        8.449583    1.898188    1.580623
    127          1           0        6.634744    0.825584    0.584592
    128          1           0        7.451155    2.702614   -1.484184
    129          1           0        9.267499    3.140700    0.144212
    130          1           0        9.105280    1.430385   -0.285100
    131          1           0        9.148187    1.244607    1.637930
    132          7           0        5.931223    3.863657    1.219940
    133          6           0        5.320556    5.009048    1.860695
    134          6           0        4.360844    5.829153    1.012001
    135          8           0        4.085498    6.994651    1.305256
    136          6           0        6.333763    5.790754    2.682185
    137          1           0        5.650066    2.928960    1.501172
    138          1           0        4.617952    4.667207    2.627110
    139          1           0        5.806617    6.280898    3.502597
    140          1           0        7.136056    5.158915    3.058359
    141          1           0        6.860279    6.603018    2.177102
    142          7           0        3.769957    5.260877   -0.042284
    143          6           0        2.811504    5.933729   -0.894831
    144          6           0        1.437576    5.879619   -0.235820
    145          8           0        1.077924    5.087877    0.629451
    146          6           0        2.794439    5.227333   -2.244836
    147          1           0        3.846181    4.249389   -0.135461
    148          1           0        3.099787    6.962018   -1.143051
    149          1           0        2.711448    4.158975   -2.033356
    150          1           0        1.895114    5.468755   -2.810902
    151          1           0        3.707671    5.488963   -2.783870
    152          7           0        0.514251    6.742866   -0.645180
    153          6           0       -0.887103    6.822375   -0.274256
    154          6           0       -1.321586    6.854568    1.182312
    155          8           0       -2.535047    6.737070    1.383576
    156          6           0       -1.584276    5.648434   -0.951613
    157          6           0       -1.954850    5.889159   -2.408366
    158          6           0       -2.534180    4.752748   -3.235739
    159          8           0       -2.820850    3.672265   -2.679341
    160          8           0       -2.592013    4.775500   -4.487353
    161          1           0        0.781438    7.444461   -1.313668
    162          1           0       -1.224299    7.771963   -0.703536
    163          1           0       -2.512350    5.399437   -0.433076
    164          1           0       -0.970630    4.747526   -0.916928
    165          1           0       -1.000761    6.134678   -2.889338
    166          1           0       -2.638681    6.738381   -2.463119
    167          7           0       -0.438479    7.108597    2.143556
    168          6           0       -0.703743    6.876686    3.548993
    169          1           0       -0.169768    5.985027    3.876371
    170          1           0       -0.366800    7.735244    4.129849
    171          1           0       -1.774248    6.733787    3.698415
    172          1           0        0.521210    7.210643    1.853067
    173         20           0       -2.825724    1.909498   -4.660004
    174          8           0       -0.969400    1.214874   -6.393255
    175          1           0       -0.958259    0.356708   -6.813169
    176          1           0       -0.041707    1.388120   -6.197116
 ---------------------------------------------------------------------

 SCF Done:  E(RB3LYP) =  -5333.38497697     A.U. after   26 cycles

 The electronic state is 1-A.
 Alpha  occ. eigenvalues -- -145.46023 -19.22582 -19.17102 -19.14608 -19.12230
 Alpha  occ. eigenvalues --  -19.10969 -19.10689 -19.10497 -19.10386 -19.08979
 Alpha  occ. eigenvalues --  -19.08751 -19.08674 -19.08434 -19.07971 -19.07787
 Alpha  occ. eigenvalues --  -19.07686 -19.07492 -19.06930 -19.06888 -19.06717
 Alpha  occ. eigenvalues --  -19.04501 -19.02856 -18.96592 -18.95031 -15.51976
 Alpha  occ. eigenvalues --  -14.55862 -14.38602 -14.37435 -14.36867 -14.36642
 Alpha  occ. eigenvalues --  -14.35959 -14.35237 -14.35065 -14.34831 -14.34041
 Alpha  occ. eigenvalues --  -14.33817 -14.33655 -14.32695 -14.29743 -14.29501
 Alpha  occ. eigenvalues --  -12.65609 -12.65517 -12.65485 -10.33158 -10.31053
 Alpha  occ. eigenvalues --  -10.30172 -10.29823 -10.29156 -10.28664 -10.28125
 Alpha  occ. eigenvalues --  -10.27797 -10.27420 -10.27002 -10.26813 -10.26770
 Alpha  occ. eigenvalues --  -10.26659 -10.26442 -10.26418 -10.26404 -10.26048
 Alpha  occ. eigenvalues --  -10.25643 -10.25260 -10.25009 -10.24906 -10.23590
 Alpha  occ. eigenvalues --  -10.23248 -10.23157 -10.23151 -10.23067 -10.22714
 Alpha  occ. eigenvalues --  -10.22714 -10.22264 -10.22213 -10.21907 -10.21887
 Alpha  occ. eigenvalues --  -10.21347 -10.20791 -10.20669 -10.20585 -10.20403
 Alpha  occ. eigenvalues --  -10.19882 -10.19721 -10.19686 -10.19221 -10.18483
 Alpha  occ. eigenvalues --  -10.18317 -10.17874 -10.17423 -10.17284 -10.16699
 Alpha  occ. eigenvalues --  -10.16377 -10.15841 -10.15775 -10.15565 -10.15465
 Alpha  occ. eigenvalues --  -10.13930 -10.11256  -1.88650  -1.16413  -1.15752
 Alpha  occ. eigenvalues --   -1.15548  -1.11325  -1.08309  -1.05717  -1.05608
 Alpha  occ. eigenvalues --   -1.04460  -1.04338  -1.03738  -1.03555  -1.03156
 Alpha  occ. eigenvalues --   -1.02838  -1.02651  -1.02085  -1.01787  -1.01328
 Alpha  occ. eigenvalues --   -1.00843  -1.00477  -1.00237  -0.99682  -0.97655
 Alpha  occ. eigenvalues --   -0.96337  -0.95770  -0.93607  -0.93198  -0.93103
 Alpha  occ. eigenvalues --   -0.92669  -0.92598  -0.91631  -0.91575  -0.91535
 Alpha  occ. eigenvalues --   -0.91232  -0.90665  -0.90334  -0.90119  -0.90019
 Alpha  occ. eigenvalues --   -0.89975  -0.87901  -0.86556  -0.86128  -0.85705
 Alpha  occ. eigenvalues --   -0.81798  -0.80574  -0.80114  -0.79872  -0.79399
 Alpha  occ. eigenvalues --   -0.78882  -0.77765  -0.77713  -0.76928  -0.76409
 Alpha  occ. eigenvalues --   -0.75468  -0.75041  -0.74193  -0.74114  -0.72966
 Alpha  occ. eigenvalues --   -0.72407  -0.72072  -0.71933  -0.70354  -0.69536
 Alpha  occ. eigenvalues --   -0.69492  -0.69002  -0.68607  -0.67944  -0.67525
 Alpha  occ. eigenvalues --   -0.67288  -0.66012  -0.65142  -0.64886  -0.63667
 Alpha  occ. eigenvalues --   -0.63354  -0.62768  -0.62245  -0.61740  -0.61407
 Alpha  occ. eigenvalues --   -0.61385  -0.61292  -0.60803  -0.60615  -0.59978
 Alpha  occ. eigenvalues --   -0.59849  -0.59659  -0.59340  -0.58741  -0.58582
 Alpha  occ. eigenvalues --   -0.58237  -0.57876  -0.57359  -0.56706  -0.56323
 Alpha  occ. eigenvalues --   -0.56181  -0.55924  -0.55886  -0.55487  -0.54671
 Alpha  occ. eigenvalues --   -0.54499  -0.54154  -0.54109  -0.53727  -0.53423
 Alpha  occ. eigenvalues --   -0.52743  -0.52718  -0.52254  -0.52138  -0.52040
 Alpha  occ. eigenvalues --   -0.51600  -0.51245  -0.51004  -0.50658  -0.50456
 Alpha  occ. eigenvalues --   -0.50075  -0.49602  -0.49528  -0.49238  -0.48824
 Alpha  occ. eigenvalues --   -0.48764  -0.48344  -0.48135  -0.48119  -0.47641
 Alpha  occ. eigenvalues --   -0.47380  -0.47222  -0.47167  -0.46422  -0.46321
 Alpha  occ. eigenvalues --   -0.46140  -0.45770  -0.45483  -0.45448  -0.45233
 Alpha  occ. eigenvalues --   -0.45226  -0.44973  -0.44960  -0.44756  -0.44458
 Alpha  occ. eigenvalues --   -0.44248  -0.44099  -0.43882  -0.43822  -0.43616
 Alpha  occ. eigenvalues --   -0.43461  -0.43385  -0.43290  -0.43241  -0.43107
 Alpha  occ. eigenvalues --   -0.42505  -0.42497  -0.42164  -0.42049  -0.41953
 Alpha  occ. eigenvalues --   -0.41920  -0.41863  -0.41667  -0.41383  -0.41211
 Alpha  occ. eigenvalues --   -0.41008  -0.40996  -0.40881  -0.40721  -0.40693
 Alpha  occ. eigenvalues --   -0.40566  -0.40320  -0.40277  -0.40085  -0.40001
 Alpha  occ. eigenvalues --   -0.39865  -0.39696  -0.39642  -0.39572  -0.39509
 Alpha  occ. eigenvalues --   -0.39360  -0.39291  -0.39060  -0.38833  -0.38723
 Alpha  occ. eigenvalues --   -0.38611  -0.38524  -0.38181  -0.38010  -0.37879
 Alpha  occ. eigenvalues --   -0.37864  -0.37742  -0.37580  -0.37558  -0.37353
 Alpha  occ. eigenvalues --   -0.37243  -0.36976  -0.36957  -0.36736  -0.36673
 Alpha  occ. eigenvalues --   -0.36375  -0.36195  -0.36077  -0.35825  -0.35678
 Alpha  occ. eigenvalues --   -0.35504  -0.35317  -0.35108  -0.35028  -0.35010
 Alpha  occ. eigenvalues --   -0.34566  -0.34544  -0.34162  -0.34044  -0.33961
 Alpha  occ. eigenvalues --   -0.33160  -0.33138  -0.32911  -0.32801  -0.32114
 Alpha  occ. eigenvalues --   -0.31799  -0.31653  -0.31035  -0.30936  -0.30203
 Alpha  occ. eigenvalues --   -0.30054  -0.29270  -0.29199  -0.28982  -0.28823
 Alpha  occ. eigenvalues --   -0.28280  -0.28067  -0.27803  -0.27546  -0.27259
 Alpha  occ. eigenvalues --   -0.27048  -0.26985  -0.26608  -0.26519  -0.26492
 Alpha  occ. eigenvalues --   -0.26357  -0.26356  -0.26284  -0.26229  -0.26117
 Alpha  occ. eigenvalues --   -0.25362  -0.25199  -0.24823  -0.24562  -0.24390
 Alpha  occ. eigenvalues --   -0.24277  -0.24238  -0.23521  -0.23396  -0.23144
 Alpha  occ. eigenvalues --   -0.23097  -0.23073  -0.22869  -0.22645  -0.22247
 Alpha  occ. eigenvalues --   -0.21728  -0.21319  -0.20530  -0.20222  -0.18989
 Alpha  occ. eigenvalues --   -0.14643  -0.13368  -0.09956
 Alpha virt. eigenvalues --   -0.08866  -0.07988  -0.03024  -0.02084  -0.01922
 Alpha virt. eigenvalues --   -0.01681  -0.01512  -0.01071  -0.00579  -0.00336
 Alpha virt. eigenvalues --    0.00672   0.00764   0.01217   0.01481   0.01708

 Mulliken charges:
               1
     1  C    0.083201
     2  C   -0.007462
     3  O   -0.328495
     4  H   -0.015900
     5  H    0.029694
     6  H    0.028721
     7  N   -0.112245
     8  C    0.081260
     9  C    0.055904
    10  O   -0.309007
    11  C    0.141344
    12  C    0.004570
    13  O   -0.409640
    14  O   -0.342347
    15  H    0.113681
    16  H    0.000083
    17  H    0.009288
    18  H   -0.017234
    19  N   -0.098538
    20  C    0.096028
    21  C    0.104584
    22  O   -0.250166
    23  C    0.036465
    24  C   -0.012452
    25  C   -0.040066
    26  C    0.055253
    27  N    0.078109
    28  H    0.096146
    29  H   -0.011173
    30  H    0.012669
    31  H    0.031438
    32  H    0.022127
    33  H   -0.003752
    34  H    0.056911
    35  H    0.038865
    36  H    0.058944
    37  H    0.079386
    38  H    0.185530
    39  H    0.178083
    40  H    0.174308
    41  N   -0.155082
    42  C    0.092272
    43  C    0.089767
    44  O   -0.255310
    45  C    0.067230
    46  C    0.134661
    47  O   -0.453983
    48  O   -0.428617
    49  H    0.129545
    50  H   -0.002541
    51  H    0.018350
    52  H    0.022928
    53  N   -0.178415
    54  C    0.211554
    55  C    0.068793
    56  O   -0.291078
    57  H    0.130300
    58  H    0.040004
    59  H    0.056768
    60  N   -0.097879
    61  C    0.110875
    62  C    0.089421
    63  O   -0.261715
    64  C    0.075689
    65  C   -0.001595
    66  N   -0.070560
    67  O   -0.243159
    68  H    0.121094
    69  H   -0.024861
    70  H    0.015299
    71  H    0.028843
    72  H    0.106036
    73  H    0.131780
    74  N   -0.163053
    75  C    0.211303
    76  C    0.025322
    77  O   -0.230680
    78  H    0.129295
    79  H    0.038529
    80  H    0.013680
    81  N   -0.158461
    82  C    0.119573
    83  C    0.068313
    84  O   -0.307575
    85  C    0.171016
    86  C   -0.067135
    87  C    0.002916
    88  C   -0.020284
    89  C   -0.012007
    90  C   -0.027287
    91  C    0.174917
    92  O   -0.199738
    93  H    0.109827
    94  H    0.030792
    95  H    0.010505
    96  H    0.023446
    97  H   -0.020947
    98  H   -0.052689
    99  H   -0.019336
   100  H   -0.043147
   101  H    0.171368
   102  N   -0.064437
   103  C    0.167541
   104  C    0.023148
   105  O   -0.271493
   106  C   -0.133987
   107  C   -0.000845
   108  C    0.075509
   109  C    0.051952
   110  H    0.129899
   111  H    0.003819
   112  H   -0.002724
   113  H   -0.016239
   114  H    0.002638
   115  H   -0.035549
   116  H    0.021868
   117  H    0.011991
   118  H    0.019663
   119  H   -0.005910
   120  H    0.028241
   121  N   -0.161748
   122  C    0.134563
   123  C    0.037505
   124  O   -0.279237
   125  C    0.196141
   126  O   -0.292454
   127  H    0.146721
   128  H    0.014618
   129  H    0.020199
   130  H   -0.002884
   131  H    0.168690
   132  N   -0.122539
   133  C    0.066600
   134  C    0.068575
   135  O   -0.295430
   136  C    0.073950
   137  H    0.136156
   138  H    0.036317
   139  H    0.011018
   140  H    0.008751
   141  H    0.022313
   142  N   -0.119319
   143  C    0.070130
   144  C    0.058386
   145  O   -0.281472
   146  C    0.054490
   147  H    0.152998
   148  H    0.014184
   149  H    0.026515
   150  H   -0.002364
   151  H    0.043297
   152  N   -0.118230
   153  C    0.097657
   154  C    0.066079
   155  O   -0.304315
   156  C    0.062289
   157  C    0.025252
   158  C    0.086636
   159  O   -0.420917
   160  O   -0.420068
   161  H    0.105310
   162  H    0.004618
   163  H    0.015876
   164  H    0.017112
   165  H   -0.013651
   166  H    0.001057
   167  N   -0.112553
   168  C    0.125030
   169  H    0.030885
   170  H    0.016058
   171  H    0.038671
   172  H    0.123289
   173  Ca   1.330689
   174  O   -0.317373
   175  H    0.196181
   176  H    0.205665
 Sum of Mulliken charges =  -0.00000

 Dipole moment (field-independent basis, Debye):
    X=             14.9928    Y=              7.3789    Z=            -20.2199  Tot=             26.2312
 Quadrupole moment (field-independent basis, Debye-Ang):
   XX=           -609.2919   YY=           -513.2293   ZZ=           -490.3579
   XY=           -311.5267   XZ=             43.7473   YZ=             18.6428

 ESP charges:
               1
     1  C   -0.457578
     2  C    0.715572
     3  O   -0.602057
     4  H    0.088882
     5  H    0.130347
     6  H    0.130863
     7  N   -0.679325
     8  C    0.495294
     9  C    0.503821
    10  O   -0.578507
    11  C   -0.530988
    12  C    0.793780
    13  O   -0.718984
    14  O   -0.676017
    15  H    0.327644
    16  H   -0.036056
    17  H    0.151086
    18  H    0.119090
    19  N   -0.560133
    20  C    0.663512
    21  C    0.265111
    22  O   -0.469073
    23  C   -0.424081
    24  C    0.211984
    25  C   -0.053346
    26  C   -0.067065
    27  N   -0.296109
    28  H    0.197787
    29  H   -0.064292
    30  H    0.119114
    31  H    0.102586
    32  H    0.014663
    33  H   -0.065003
    34  H    0.060809
    35  H    0.033176
    36  H    0.097072
    37  H    0.106458
    38  H    0.318692
    39  H    0.298562
    40  H    0.303542
    41  N   -0.379867
    42  C    0.502762
    43  C    0.313180
    44  O   -0.474741
    45  C   -0.612764
    46  C    0.838733
    47  O   -0.731829
    48  O   -0.745188
    49  H    0.170516
    50  H   -0.029001
    51  H    0.148334
    52  H    0.159063
    53  N   -0.164559
    54  C   -0.287106
    55  C    0.549490
    56  O   -0.552774
    57  H    0.197902
    58  H    0.156357
    59  H    0.161273
    60  N   -0.246110
    61  C    0.050285
    62  C    0.569095
    63  O   -0.504987
    64  C   -0.347104
    65  C    0.638075
    66  N   -0.729916
    67  O   -0.522376
    68  H    0.181002
    69  H    0.032398
    70  H    0.112006
    71  H    0.123226
    72  H    0.302533
    73  H    0.363563
    74  N   -0.417379
    75  C   -0.263184
    76  C    0.755391
    77  O   -0.493896
    78  H    0.299069
    79  H    0.140372
    80  H    0.119524
    81  N   -0.808044
    82  C    0.492429
    83  C    0.372885
    84  O   -0.524398
    85  C   -0.411746
    86  C    0.097226
    87  C   -0.174664
    88  C   -0.124656
    89  C   -0.235780
    90  C   -0.356066
    91  C    0.402938
    92  O   -0.561887
    93  H    0.331295
    94  H    0.025647
    95  H    0.134495
    96  H    0.169628
    97  H    0.138361
    98  H    0.119216
    99  H    0.168419
   100  H    0.152724
   101  H    0.413724
   102  N   -0.667799
   103  C    0.198597
   104  C    0.463574
   105  O   -0.579224
   106  C    0.405212
   107  C   -0.037751
   108  C   -0.275702
   109  C   -0.212958
   110  H    0.379533
   111  H    0.016465
   112  H   -0.094326
   113  H   -0.008980
   114  H    0.026459
   115  H   -0.041242
   116  H    0.059932
   117  H    0.097391
   118  H    0.092970
   119  H    0.023880
   120  H    0.084800
   121  N   -0.148610
   122  C   -0.274387
   123  C    0.751176
   124  O   -0.603777
   125  C    0.207287
   126  O   -0.586936
   127  H    0.221175
   128  H    0.130690
   129  H    0.031864
   130  H    0.007958
   131  H    0.396240
   132  N   -0.437381
   133  C    0.264852
   134  C    0.514520
   135  O   -0.569260
   136  C   -0.351349
   137  H    0.213047
   138  H    0.056491
   139  H    0.080147
   140  H    0.091655
   141  H    0.112242
   142  N   -0.527444
   143  C    0.524947
   144  C    0.366915
   145  O   -0.455337
   146  C   -0.395399
   147  H    0.230049
   148  H   -0.020449
   149  H    0.137193
   150  H    0.077823
   151  H    0.106518
   152  N   -0.567262
   153  C   -0.142006
   154  C    0.484919
   155  O   -0.523454
   156  C    0.257293
   157  C   -0.153715
   158  C    0.815497
   159  O   -0.801779
   160  O   -0.803248
   161  H    0.308958
   162  H    0.122446
   163  H   -0.027172
   164  H    0.023651
   165  H    0.019712
   166  H    0.009303
   167  N   -0.360525
   168  C    0.038018
   169  H    0.049573
   170  H    0.022247
   171  H    0.058593
   172  H    0.301603
   173  Ca   1.559971
   174  O   -0.798227
   175  H    0.416884
   176  H    0.431484
 Sum of ESP charges =   0.00000

 Normal termination of Gaussian 16 at Tue Sep 17 10:17:36 2019.
