 Gaussian 16, Revision A.03,
 Gaussian 16:  ES64L-G16RevA.03 25-Dec-2016

 ----------------------------------------------------------------------
 #b3lyp/svp scf=(tight,noincore) Test #IOP(5/87=12) Density=Current Pop
 =(MK,readradii) iop(6/33=2) iop(6/42=6)
 ----------------------------------------------------------------------

 -----------------
 Ng-293_loop3_39.0
 -----------------
 Symbolic Z-matrix:
 Charge =  0 Multiplicity = 1

                         Standard orientation:
 ---------------------------------------------------------------------
 Center     Atomic      Atomic             Coordinates (Angstroms)
 Number     Number       Type             X           Y           Z
 ---------------------------------------------------------------------
      1          6           0        9.459268    1.853021    4.496076
      2          6           0        9.181145    2.371031    3.095215
      3          8           0        8.025959    2.527587    2.683955
      4          1           0       10.051226    0.939604    4.434502
      5          1           0       10.011247    2.604753    5.059249
      6          1           0        8.516177    1.640673    4.999728
      7          7           0       10.255669    2.525813    2.317499
      8          6           0       10.148801    2.373491    0.873900
      9          6           0        9.339514    1.169149    0.415625
     10          8           0        8.118331    1.061857    0.513609
     11          6           0        9.796979    3.657409    0.132094
     12          6           0       10.900964    4.708209    0.192402
     13          8           0       11.718221    4.676756   -0.754224
     14          8           0       10.976651    5.552284    1.110829
     15          1           0       11.183366    2.571694    2.699302
     16          1           0       11.136939    2.144974    0.471578
     17          1           0        8.891208    4.100629    0.538707
     18          1           0        9.602788    3.428304   -0.920379
     19          7           0       10.047144    0.250733   -0.259928
     20          6           0        9.602433   -1.066245   -0.682185
     21          6           0        8.468224   -0.904048   -1.685162
     22          8           0        8.611557   -0.557470   -2.854537
     23          6           0        9.367936   -2.060343    0.448380
     24          6           0       10.501851   -2.140742    1.465815
     25          6           0       10.179181   -3.106179    2.598429
     26          6           0       11.239287   -2.947787    3.688193
     27          7           0       10.875827   -3.788364    4.832888
     28          1           0       11.024406    0.430544   -0.399667
     29          1           0       10.401847   -1.483696   -1.292081
     30          1           0        9.156182   -3.092629    0.163169
     31          1           0        8.564732   -1.720590    1.103538
     32          1           0       10.632481   -1.123898    1.843657
     33          1           0       11.438624   -2.376829    0.960030
     34          1           0       10.285369   -4.090316    2.144118
     35          1           0        9.173832   -2.979631    3.003226
     36          1           0       11.105426   -1.923121    4.044058
     37          1           0       12.241516   -3.057738    3.258601
     38          1           0       11.540929   -3.871690    5.580682
     39          1           0       10.000414   -3.612440    5.306813
     40          1           0       10.894411   -4.734074    4.463718
     41          7           0        7.254635   -1.269491   -1.260834
     42          6           0        6.056594   -1.462024   -2.049585
     43          6           0        4.980372   -0.454582   -1.643130
     44          8           0        4.770492   -0.247015   -0.449369
     45          6           0        5.566702   -2.903630   -1.940592
     46          6           0        4.212246   -3.051400   -2.619204
     47          8           0        4.111373   -2.360105   -3.648105
     48          8           0        3.228724   -3.723803   -2.251838
     49          1           0        7.167714   -1.298128   -0.256780
     50          1           0        6.294233   -1.357030   -3.102156
     51          1           0        5.353612   -3.127756   -0.898259
     52          1           0        6.308062   -3.539041   -2.439028
     53          7           0        4.348800    0.284849   -2.560931
     54          6           0        3.283383    1.213646   -2.248806
     55          6           0        1.870446    0.683160   -2.091351
     56          8           0        1.525421   -0.439390   -2.456507
     57          1           0        4.480466    0.082957   -3.539401
     58          1           0        3.213577    1.939378   -3.056915
     59          1           0        3.550767    1.747691   -1.336172
     60          7           0        0.937014    1.452509   -1.531524
     61          6           0       -0.438030    1.061645   -1.257150
     62          6           0       -1.430730    2.179745   -1.488879
     63          8           0       -2.645521    1.967467   -1.550699
     64          6           0       -0.485705    0.550499    0.181237
     65          6           0        0.414068   -0.629135    0.544792
     66          7           0        0.204617   -1.857508    0.075611
     67          8           0        1.339443   -0.515779    1.347120
     68          1           0        1.259901    2.375861   -1.284816
     69          1           0       -0.742219    0.261859   -1.939727
     70          1           0       -1.505911    0.222670    0.348294
     71          1           0       -0.198752    1.326478    0.894410
     72          1           0       -0.490468   -2.029938   -0.629885
     73          1           0        0.880827   -2.560238    0.350948
     74          7           0       -0.985642    3.420628   -1.694323
     75          6           0       -1.879601    4.547298   -1.896444
     76          6           0       -2.899118    4.644778   -0.767248
     77          8           0       -2.626218    4.413309    0.402602
     78          1           0        0.016981    3.565596   -1.719420
     79          1           0       -2.312493    4.406143   -2.884209
     80          1           0       -1.348323    5.493674   -1.838000
     81          7           0       -4.163337    4.942296   -1.058336
     82          6           0       -5.299918    4.831545   -0.150580
     83          6           0       -5.624520    3.493726    0.495076
     84          8           0       -6.734524    3.278166    0.986527
     85          6           0       -5.382282    5.915565    0.908012
     86          6           0       -5.027690    7.302369    0.428491
     87          6           0       -3.822697    7.908428    0.807550
     88          6           0       -5.933940    7.981711   -0.390109
     89          6           0       -3.538154    9.197508    0.339993
     90          6           0       -5.584460    9.230839   -0.920809
     91          6           0       -4.422785    9.909960   -0.499494
     92          8           0       -4.215550   11.183134   -0.947804
     93          1           0       -4.304360    5.136561   -2.035768
     94          1           0       -6.166045    4.989759   -0.786656
     95          1           0       -4.743314    5.688257    1.764371
     96          1           0       -6.401266    5.960357    1.283998
     97          1           0       -3.028106    7.378706    1.316882
     98          1           0       -6.893098    7.596688   -0.700547
     99          1           0       -2.614383    9.668069    0.615348
    100          1           0       -6.218825    9.620135   -1.697551
    101          1           0       -4.832003   11.483760   -1.616766
    102          7           0       -4.764589    2.467823    0.409989
    103          6           0       -4.746157    1.146947    0.987524
    104          6           0       -5.826550    0.204702    0.472619
    105          8           0       -5.503168   -0.927540    0.113659
    106          6           0       -4.730443    1.239322    2.519425
    107          6           0       -3.556524    1.967931    3.165908
    108          6           0       -4.718144   -0.170605    3.102653
    109          6           0       -3.754587    2.507190    4.572133
    110          1           0       -3.888851    2.624314   -0.063291
    111          1           0       -3.837721    0.650320    0.661785
    112          1           0       -5.607230    1.813563    2.828604
    113          1           0       -3.233671    2.828830    2.576314
    114          1           0       -2.658048    1.349306    3.239690
    115          1           0       -5.613491   -0.726684    2.855207
    116          1           0       -3.776470   -0.628476    2.786574
    117          1           0       -4.676956   -0.090331    4.191717
    118          1           0       -3.664156    1.785032    5.388105
    119          1           0       -3.066967    3.341313    4.729352
    120          1           0       -4.790412    2.832879    4.686561
    121          7           0       -7.085754    0.650567    0.469747
    122          6           0       -8.190433    0.030591   -0.229692
    123          6           0       -8.556315   -1.331416    0.344474
    124          8           0       -9.159281   -2.130550   -0.368631
    125          6           0       -9.384906    0.966593   -0.154618
    126          8           0       -9.229363    2.201755   -0.831582
    127          1           0       -7.221819    1.558676    0.897093
    128          1           0       -7.899258   -0.154499   -1.265384
    129          1           0       -9.508608    1.293200    0.886164
    130          1           0      -10.297710    0.535994   -0.565923
    131          1           0       -9.845714    2.789313   -0.384941
    132          7           0       -8.250874   -1.540263    1.622162
    133          6           0       -8.389367   -2.792063    2.338274
    134          6           0       -7.803359   -4.080032    1.793635
    135          8           0       -8.409765   -5.149568    1.835627
    136          6           0       -9.857791   -2.884098    2.759891
    137          1           0       -7.945025   -0.711846    2.122044
    138          1           0       -7.871208   -2.605488    3.285217
    139          1           0      -10.083704   -3.755052    3.366852
    140          1           0      -10.176859   -2.112017    3.462021
    141          1           0      -10.467022   -2.872730    1.860109
    142          7           0       -6.801898   -3.826648    0.933825
    143          6           0       -6.271753   -4.802473    0.012297
    144          6           0       -4.786713   -4.987032    0.270547
    145          8           0       -4.217362   -4.100774    0.905043
    146          6           0       -6.603444   -4.408590   -1.420545
    147          1           0       -6.506855   -2.869801    0.831387
    148          1           0       -6.726036   -5.779758    0.185621
    149          1           0       -6.206714   -5.212486   -2.044851
    150          1           0       -7.680801   -4.372014   -1.587168
    151          1           0       -6.086056   -3.506922   -1.725018
    152          7           0       -4.225901   -6.026351   -0.346468
    153          6           0       -2.867063   -6.518639   -0.189589
    154          6           0       -2.399284   -6.947457    1.194679
    155          8           0       -1.202215   -7.210009    1.328071
    156          6           0       -1.868678   -5.548847   -0.807431
    157          6           0       -2.027119   -5.273851   -2.297288
    158          6           0       -0.840153   -4.502292   -2.861832
    159          8           0       -0.308634   -3.626377   -2.148838
    160          8           0       -0.525724   -4.547480   -4.072985
    161          1           0       -4.774840   -6.569347   -0.999783
    162          1           0       -2.845232   -7.474578   -0.715236
    163          1           0       -0.853218   -5.819958   -0.511729
    164          1           0       -2.022189   -4.626831   -0.251624
    165          1           0       -2.992582   -4.803624   -2.445840
    166          1           0       -2.125164   -6.217622   -2.831970
    167          7           0       -3.219739   -7.062097    2.241537
    168          6           0       -2.815631   -7.027891    3.633200
    169          1           0       -3.528950   -6.432054    4.203249
    170          1           0       -2.791057   -8.042720    4.030066
    171          1           0       -1.824267   -6.582106    3.713272
    172          1           0       -4.216398   -7.029849    2.094127
    173         20           0        1.319385   -2.667707   -4.018894
    174          8           0       -0.981747   -1.269018   -4.011089
    175          1           0       -1.885971   -1.469270   -3.761134
    176          1           0       -0.920883   -0.320123   -3.928062
 ---------------------------------------------------------------------

 SCF Done:  E(RB3LYP) =  -5333.35772479     A.U. after   33 cycles

 The electronic state is 1-A.
 Alpha  occ. eigenvalues -- -145.43608 -19.20397 -19.17151 -19.14381 -19.14298
 Alpha  occ. eigenvalues --  -19.13040 -19.12328 -19.11082 -19.09990 -19.09186
 Alpha  occ. eigenvalues --  -19.08652 -19.07997 -19.07884 -19.07361 -19.07280
 Alpha  occ. eigenvalues --  -19.06858 -19.06745 -19.06285 -19.06210 -19.06061
 Alpha  occ. eigenvalues --  -19.05589 -19.05487 -18.96373 -18.96236 -15.49450
 Alpha  occ. eigenvalues --  -14.56401 -14.40995 -14.40139 -14.38541 -14.35712
 Alpha  occ. eigenvalues --  -14.35604 -14.35265 -14.35168 -14.34634 -14.34558
 Alpha  occ. eigenvalues --  -14.34082 -14.32753 -14.32635 -14.32125 -14.31291
 Alpha  occ. eigenvalues --  -12.63056 -12.63043 -12.62965 -10.34201 -10.33282
 Alpha  occ. eigenvalues --  -10.32794 -10.31555 -10.30092 -10.28168 -10.28163
 Alpha  occ. eigenvalues --  -10.28090 -10.27903 -10.27263 -10.27176 -10.26804
 Alpha  occ. eigenvalues --  -10.26704 -10.26701 -10.26534 -10.26387 -10.26089
 Alpha  occ. eigenvalues --  -10.26022 -10.25797 -10.25737 -10.25430 -10.24954
 Alpha  occ. eigenvalues --  -10.24766 -10.24378 -10.24183 -10.23638 -10.23381
 Alpha  occ. eigenvalues --  -10.23068 -10.22876 -10.22517 -10.21654 -10.21503
 Alpha  occ. eigenvalues --  -10.21257 -10.21133 -10.20992 -10.20185 -10.20094
 Alpha  occ. eigenvalues --  -10.20059 -10.19907 -10.19831 -10.19772 -10.19691
 Alpha  occ. eigenvalues --  -10.18894 -10.17897 -10.17559 -10.17190 -10.17167
 Alpha  occ. eigenvalues --  -10.17126 -10.17121 -10.16709 -10.16577 -10.15702
 Alpha  occ. eigenvalues --  -10.15443 -10.10470  -1.86061  -1.13484  -1.13435
 Alpha  occ. eigenvalues --   -1.12897  -1.12226  -1.08191  -1.07387  -1.06302
 Alpha  occ. eigenvalues --   -1.06039  -1.05603  -1.04335  -1.03023  -1.01998
 Alpha  occ. eigenvalues --   -1.01782  -1.01710  -1.01672  -1.01551  -1.01131
 Alpha  occ. eigenvalues --   -1.00827  -1.00590  -1.00163  -0.99838  -0.99661
 Alpha  occ. eigenvalues --   -0.97998  -0.97584  -0.95772  -0.94870  -0.93142
 Alpha  occ. eigenvalues --   -0.92526  -0.92412  -0.91596  -0.91290  -0.91266
 Alpha  occ. eigenvalues --   -0.90693  -0.90648  -0.90218  -0.89884  -0.89673
 Alpha  occ. eigenvalues --   -0.89526  -0.88722  -0.88508  -0.86047  -0.85987
 Alpha  occ. eigenvalues --   -0.82678  -0.81857  -0.81661  -0.80658  -0.80620
 Alpha  occ. eigenvalues --   -0.78747  -0.77879  -0.77731  -0.77510  -0.75953
 Alpha  occ. eigenvalues --   -0.75786  -0.75311  -0.74830  -0.74354  -0.74273
 Alpha  occ. eigenvalues --   -0.73677  -0.73296  -0.71842  -0.71582  -0.70973
 Alpha  occ. eigenvalues --   -0.70121  -0.69957  -0.69629  -0.68669  -0.67971
 Alpha  occ. eigenvalues --   -0.67142  -0.65843  -0.65325  -0.64819  -0.64538
 Alpha  occ. eigenvalues --   -0.63754  -0.63559  -0.63260  -0.62773  -0.62664
 Alpha  occ. eigenvalues --   -0.61949  -0.61571  -0.61339  -0.60887  -0.60682
 Alpha  occ. eigenvalues --   -0.59926  -0.59478  -0.59420  -0.58896  -0.58568
 Alpha  occ. eigenvalues --   -0.58539  -0.58115  -0.57910  -0.57366  -0.56868
 Alpha  occ. eigenvalues --   -0.56699  -0.56496  -0.56475  -0.56274  -0.56239
 Alpha  occ. eigenvalues --   -0.55945  -0.55503  -0.55242  -0.54994  -0.54381
 Alpha  occ. eigenvalues --   -0.53776  -0.53640  -0.53133  -0.52907  -0.52423
 Alpha  occ. eigenvalues --   -0.51965  -0.51651  -0.51551  -0.50982  -0.50340
 Alpha  occ. eigenvalues --   -0.50308  -0.49669  -0.49503  -0.49300  -0.48656
 Alpha  occ. eigenvalues --   -0.48535  -0.48413  -0.48354  -0.47988  -0.47751
 Alpha  occ. eigenvalues --   -0.47363  -0.47301  -0.47138  -0.47060  -0.46967
 Alpha  occ. eigenvalues --   -0.46771  -0.46577  -0.46492  -0.46451  -0.46127
 Alpha  occ. eigenvalues --   -0.45906  -0.45622  -0.45529  -0.45420  -0.45408
 Alpha  occ. eigenvalues --   -0.45242  -0.45111  -0.44597  -0.44463  -0.44373
 Alpha  occ. eigenvalues --   -0.44124  -0.44003  -0.43809  -0.43753  -0.43578
 Alpha  occ. eigenvalues --   -0.43553  -0.43504  -0.42975  -0.42856  -0.42786
 Alpha  occ. eigenvalues --   -0.42714  -0.42581  -0.42162  -0.42061  -0.42032
 Alpha  occ. eigenvalues --   -0.41702  -0.41526  -0.41171  -0.41083  -0.40976
 Alpha  occ. eigenvalues --   -0.40903  -0.40882  -0.40669  -0.40298  -0.40185
 Alpha  occ. eigenvalues --   -0.40044  -0.39778  -0.39690  -0.39563  -0.39494
 Alpha  occ. eigenvalues --   -0.39404  -0.39129  -0.39089  -0.39071  -0.38978
 Alpha  occ. eigenvalues --   -0.38869  -0.38379  -0.38253  -0.38063  -0.38039
 Alpha  occ. eigenvalues --   -0.37928  -0.37735  -0.37628  -0.37424  -0.37284
 Alpha  occ. eigenvalues --   -0.37244  -0.37165  -0.37106  -0.36972  -0.36712
 Alpha  occ. eigenvalues --   -0.36531  -0.36487  -0.36412  -0.36286  -0.35822
 Alpha  occ. eigenvalues --   -0.35782  -0.35365  -0.35274  -0.35201  -0.35082
 Alpha  occ. eigenvalues --   -0.34653  -0.34632  -0.34625  -0.34211  -0.34091
 Alpha  occ. eigenvalues --   -0.33997  -0.33778  -0.33241  -0.33139  -0.33079
 Alpha  occ. eigenvalues --   -0.32564  -0.32357  -0.32101  -0.31764  -0.31362
 Alpha  occ. eigenvalues --   -0.31314  -0.31220  -0.31197  -0.30405  -0.30043
 Alpha  occ. eigenvalues --   -0.29391  -0.28558  -0.28262  -0.27595  -0.27214
 Alpha  occ. eigenvalues --   -0.27192  -0.26870  -0.26838  -0.26759  -0.26723
 Alpha  occ. eigenvalues --   -0.26251  -0.26179  -0.25881  -0.25509  -0.25200
 Alpha  occ. eigenvalues --   -0.24410  -0.24377  -0.24245  -0.24125  -0.24055
 Alpha  occ. eigenvalues --   -0.23830  -0.23746  -0.23463  -0.23407  -0.23356
 Alpha  occ. eigenvalues --   -0.23291  -0.23264  -0.22929  -0.22863  -0.22586
 Alpha  occ. eigenvalues --   -0.22475  -0.21818  -0.21496  -0.21051  -0.19824
 Alpha  occ. eigenvalues --   -0.13632  -0.13389  -0.10768
 Alpha virt. eigenvalues --   -0.09745  -0.06579  -0.03808  -0.03447  -0.03340
 Alpha virt. eigenvalues --   -0.02740  -0.02171  -0.01945  -0.01697  -0.01221
 Alpha virt. eigenvalues --   -0.00511  -0.00295   0.00436   0.01088   0.01553

 Mulliken charges:
               1
     1  C    0.043048
     2  C    0.045218
     3  O   -0.239545
     4  H   -0.034286
     5  H    0.032585
     6  H    0.022129
     7  N   -0.117455
     8  C    0.066938
     9  C    0.068886
    10  O   -0.241486
    11  C    0.160079
    12  C    0.006885
    13  O   -0.366596
    14  O   -0.350645
    15  H    0.109939
    16  H   -0.043420
    17  H   -0.001897
    18  H   -0.027851
    19  N   -0.133902
    20  C    0.106731
    21  C    0.086392
    22  O   -0.264634
    23  C    0.056059
    24  C   -0.043383
    25  C   -0.027503
    26  C    0.047182
    27  N    0.153660
    28  H    0.119189
    29  H    0.001125
    30  H    0.006737
    31  H    0.019085
    32  H    0.007947
    33  H   -0.000517
    34  H    0.024077
    35  H    0.031230
    36  H    0.058905
    37  H    0.084199
    38  H    0.112200
    39  H    0.131937
    40  H    0.121411
    41  N   -0.120100
    42  C    0.146158
    43  C    0.075934
    44  O   -0.260467
    45  C    0.115241
    46  C    0.073209
    47  O   -0.456073
    48  O   -0.368561
    49  H    0.126781
    50  H   -0.006133
    51  H   -0.000644
    52  H    0.019692
    53  N   -0.098671
    54  C    0.179878
    55  C    0.098148
    56  O   -0.356832
    57  H    0.119733
    58  H    0.016988
    59  H    0.062656
    60  N   -0.151730
    61  C    0.113123
    62  C    0.079565
    63  O   -0.302574
    64  C    0.105393
    65  C   -0.039467
    66  N   -0.015540
    67  O   -0.258604
    68  H    0.122053
    69  H   -0.017493
    70  H    0.043974
    71  H    0.016472
    72  H    0.115853
    73  H    0.148731
    74  N   -0.125686
    75  C    0.240836
    76  C    0.001401
    77  O   -0.281880
    78  H    0.106331
    79  H    0.018677
    80  H    0.046935
    81  N   -0.107485
    82  C    0.144613
    83  C    0.104818
    84  O   -0.323275
    85  C    0.141758
    86  C   -0.028860
    87  C    0.016865
    88  C   -0.015130
    89  C   -0.052027
    90  C   -0.072536
    91  C    0.202494
    92  O   -0.197254
    93  H    0.116161
    94  H    0.011937
    95  H    0.002000
    96  H    0.016745
    97  H   -0.009937
    98  H   -0.031597
    99  H   -0.025018
   100  H   -0.045785
   101  H    0.177315
   102  N   -0.105022
   103  C    0.173696
   104  C    0.034463
   105  O   -0.270824
   106  C   -0.127257
   107  C   -0.002796
   108  C    0.107437
   109  C    0.022180
   110  H    0.149794
   111  H   -0.004458
   112  H   -0.009778
   113  H    0.001746
   114  H   -0.007838
   115  H   -0.006367
   116  H    0.024296
   117  H   -0.010157
   118  H    0.008877
   119  H    0.016441
   120  H   -0.009189
   121  N   -0.141546
   122  C    0.128449
   123  C    0.036029
   124  O   -0.270113
   125  C    0.220986
   126  O   -0.313169
   127  H    0.141063
   128  H    0.020561
   129  H   -0.020698
   130  H    0.016887
   131  H    0.163512
   132  N   -0.129984
   133  C    0.058380
   134  C    0.100989
   135  O   -0.270534
   136  C    0.066562
   137  H    0.125001
   138  H    0.010501
   139  H    0.008682
   140  H   -0.020237
   141  H    0.034334
   142  N   -0.138840
   143  C    0.068393
   144  C    0.055179
   145  O   -0.254421
   146  C    0.073445
   147  H    0.148711
   148  H    0.000705
   149  H   -0.030759
   150  H    0.051487
   151  H    0.018256
   152  N   -0.137308
   153  C    0.105947
   154  C    0.050295
   155  O   -0.284703
   156  C    0.007393
   157  C    0.096256
   158  C    0.130957
   159  O   -0.429573
   160  O   -0.445557
   161  H    0.126100
   162  H    0.006023
   163  H    0.033138
   164  H    0.011188
   165  H   -0.004776
   166  H   -0.024367
   167  N   -0.133746
   168  C    0.131356
   169  H    0.020775
   170  H    0.018917
   171  H    0.042134
   172  H    0.113056
   173  Ca   1.331015
   174  O   -0.278865
   175  H    0.204386
   176  H    0.177139
 Sum of Mulliken charges =  -0.00000

 Dipole moment (field-independent basis, Debye):
    X=             -0.4920    Y=            -14.4245    Z=              5.2484  Tot=             15.3575
 Quadrupole moment (field-independent basis, Debye-Ang):
   XX=           -540.0891   YY=           -595.3811   ZZ=           -433.3107
   XY=           -392.8233   XZ=            192.4782   YZ=           -102.3364

 ESP charges:
               1
     1  C   -0.554608
     2  C    0.806939
     3  O   -0.555189
     4  H    0.106214
     5  H    0.137545
     6  H    0.140109
     7  N   -0.631739
     8  C    0.182194
     9  C    0.609079
    10  O   -0.476500
    11  C   -0.358408
    12  C    0.799557
    13  O   -0.688577
    14  O   -0.674213
    15  H    0.328225
    16  H   -0.001753
    17  H    0.098532
    18  H    0.076208
    19  N   -0.519083
    20  C    0.030016
    21  C    0.631371
    22  O   -0.576652
    23  C   -0.251872
    24  C    0.398912
    25  C   -0.116766
    26  C    0.134687
    27  N   -0.247349
    28  H    0.297227
    29  H    0.083775
    30  H    0.039956
    31  H    0.107131
    32  H   -0.145153
    33  H   -0.053542
    34  H    0.013834
    35  H    0.046524
    36  H    0.027248
    37  H    0.049154
    38  H    0.238990
    39  H    0.265131
    40  H    0.224411
    41  N   -0.563977
    42  C    0.323558
    43  C    0.572400
    44  O   -0.474172
    45  C   -0.342127
    46  C    0.819779
    47  O   -0.828187
    48  O   -0.746717
    49  H    0.237291
    50  H    0.055423
    51  H    0.065634
    52  H    0.109753
    53  N   -0.542620
    54  C    0.027277
    55  C    0.655643
    56  O   -0.559048
    57  H    0.309802
    58  H    0.049371
    59  H    0.106439
    60  N   -0.855314
    61  C    0.618724
    62  C    0.302843
    63  O   -0.481059
    64  C   -0.341293
    65  C    0.876836
    66  N   -0.951802
    67  O   -0.608246
    68  H    0.346109
    69  H   -0.082781
    70  H    0.064912
    71  H    0.071779
    72  H    0.371269
    73  H    0.438402
    74  N   -0.239986
    75  C   -0.275744
    76  C    0.704439
    77  O   -0.547166
    78  H    0.253899
    79  H    0.124164
    80  H    0.149028
    81  N   -0.693517
    82  C    0.258988
    83  C    0.394363
    84  O   -0.556713
    85  C   -0.273575
    86  C    0.078928
    87  C   -0.145748
    88  C   -0.059715
    89  C   -0.297182
    90  C   -0.397887
    91  C    0.444963
    92  O   -0.566760
    93  H    0.341988
    94  H    0.070658
    95  H    0.120386
    96  H    0.091603
    97  H    0.155528
    98  H    0.120001
    99  H    0.164468
   100  H    0.152055
   101  H    0.418631
   102  N   -0.202792
   103  C   -0.543515
   104  C    0.716549
   105  O   -0.548052
   106  C    0.309491
   107  C    0.273963
   108  C   -0.476592
   109  C   -0.324818
   110  H    0.255323
   111  H    0.184717
   112  H   -0.006126
   113  H   -0.032528
   114  H   -0.050752
   115  H    0.115848
   116  H    0.136675
   117  H    0.096935
   118  H    0.071670
   119  H    0.081886
   120  H    0.045045
   121  N   -0.450129
   122  C    0.189431
   123  C    0.208298
   124  O   -0.454940
   125  C    0.173675
   126  O   -0.610108
   127  H    0.341950
   128  H    0.082425
   129  H   -0.006547
   130  H    0.041112
   131  H    0.398298
   132  N   -0.354880
   133  C    0.449777
   134  C    0.344461
   135  O   -0.497440
   136  C   -0.380376
   137  H    0.208346
   138  H   -0.010447
   139  H    0.082043
   140  H    0.074437
   141  H    0.125920
   142  N   -0.611805
   143  C    0.921804
   144  C    0.278487
   145  O   -0.473909
   146  C   -0.348482
   147  H    0.217685
   148  H   -0.158650
   149  H    0.000148
   150  H    0.105895
   151  H    0.088671
   152  N   -0.538778
   153  C   -0.081545
   154  C    0.427921
   155  O   -0.503599
   156  C    0.180580
   157  C   -0.299743
   158  C    0.755862
   159  O   -0.706666
   160  O   -0.774441
   161  H    0.323470
   162  H    0.093326
   163  H    0.005438
   164  H    0.062637
   165  H    0.098682
   166  H    0.060727
   167  N   -0.247136
   168  C   -0.074892
   169  H    0.070210
   170  H    0.039717
   171  H    0.095818
   172  H    0.233282
   173  Ca   1.605167
   174  O   -0.774147
   175  H    0.432334
   176  H    0.380128
 Sum of ESP charges =  -0.00000

 Normal termination of Gaussian 16 at Tue Sep 17 10:20:10 2019.
