 Gaussian 16, Revision A.03,
 Gaussian 16:  ES64L-G16RevA.03 25-Dec-2016

 ----------------------------------------------------------------------
 #b3lyp/svp scf=(tight,noincore) Test #IOP(5/87=12) Density=Current Pop
 =(MK,readradii) iop(6/33=2) iop(6/42=6)
 ----------------------------------------------------------------------

 -----------------
 Ng-295_loop3_11.0
 -----------------
 Symbolic Z-matrix:
 Charge =  0 Multiplicity = 1

                         Standard orientation:
 ---------------------------------------------------------------------
 Center     Atomic      Atomic             Coordinates (Angstroms)
 Number     Number       Type             X           Y           Z
 ---------------------------------------------------------------------
      1          6           0       10.110675   -3.790997    4.614950
      2          6           0        8.722029   -3.616984    4.029475
      3          8           0        7.960638   -4.581800    3.909422
      4          1           0       10.234406   -3.115870    5.461738
      5          1           0       10.237728   -4.820569    4.950320
      6          1           0       10.857411   -3.561086    3.855628
      7          7           0        8.420610   -2.411612    3.546646
      8          6           0        7.462444   -2.145460    2.484204
      9          6           0        7.916347   -2.354228    1.048381
     10          8           0        8.925421   -1.786903    0.643026
     11          6           0        6.886103   -0.737532    2.667700
     12          6           0        5.588387   -0.517767    1.908333
     13          8           0        5.594759   -0.315900    0.673744
     14          8           0        4.497623   -0.243720    2.455536
     15          1           0        9.125259   -1.713652    3.727260
     16          1           0        6.627724   -2.802481    2.725378
     17          1           0        7.586853   -0.027733    2.223139
     18          1           0        6.706077   -0.427358    3.700648
     19          7           0        7.157229   -3.124459    0.255549
     20          6           0        7.497774   -3.460450   -1.105678
     21          6           0        7.401892   -2.291410   -2.079460
     22          8           0        7.863841   -2.495702   -3.192459
     23          6           0        6.700198   -4.628229   -1.696577
     24          6           0        5.204347   -4.463367   -1.910941
     25          6           0        4.487450   -5.710748   -2.410438
     26          6           0        4.516907   -5.982473   -3.920305
     27          7           0        4.113421   -4.823853   -4.734490
     28          1           0        6.424180   -3.663519    0.702265
     29          1           0        8.543802   -3.745316   -1.141430
     30          1           0        6.887672   -5.527902   -1.109515
     31          1           0        7.103002   -4.864697   -2.678174
     32          1           0        4.918520   -3.652267   -2.569288
     33          1           0        4.806199   -4.199056   -0.931086
     34          1           0        3.453672   -5.718370   -2.080065
     35          1           0        4.855476   -6.642396   -1.966828
     36          1           0        3.865692   -6.828507   -4.143566
     37          1           0        5.534119   -6.240667   -4.180909
     38          1           0        3.317165   -4.431113   -4.258536
     39          1           0        4.870947   -4.161915   -4.758830
     40          1           0        3.838248   -5.059598   -5.679374
     41          7           0        6.800664   -1.126288   -1.825069
     42          6           0        6.747518    0.027348   -2.701197
     43          6           0        7.100911    1.377513   -2.104233
     44          8           0        7.573182    2.220341   -2.870198
     45          6           0        5.340455    0.184639   -3.258722
     46          6           0        4.233432    0.046513   -2.224642
     47          8           0        3.617677   -1.026495   -2.077329
     48          8           0        4.014641    0.947406   -1.382608
     49          1           0        6.604369   -0.975359   -0.855178
     50          1           0        7.496651   -0.146238   -3.474222
     51          1           0        5.216256   -0.615690   -3.983944
     52          1           0        5.249815    1.081216   -3.866121
     53          7           0        7.034872    1.650100   -0.793266
     54          6           0        7.284379    2.951121   -0.226176
     55          6           0        6.066657    3.840752   -0.052654
     56          8           0        6.251648    5.038802    0.188499
     57          1           0        6.695159    0.935261   -0.153188
     58          1           0        8.071595    3.512963   -0.738060
     59          1           0        7.592730    2.885621    0.814367
     60          7           0        4.882099    3.257326   -0.259138
     61          6           0        3.604755    3.851766    0.088475
     62          6           0        2.953243    3.233774    1.328804
     63          8           0        2.639771    2.046191    1.256123
     64          6           0        2.654270    3.935966   -1.106384
     65          6           0        3.199680    4.636863   -2.338403
     66          7           0        3.732060    5.854352   -2.235970
     67          8           0        3.193054    3.990545   -3.387751
     68          1           0        4.879520    2.297807   -0.562973
     69          1           0        3.746187    4.882448    0.408307
     70          1           0        1.803034    4.510134   -0.747737
     71          1           0        2.325924    2.920378   -1.339989
     72          1           0        3.799749    6.357456   -1.360868
     73          1           0        4.274025    6.188752   -3.020476
     74          7           0        2.871697    4.039012    2.386510
     75          6           0        2.046217    3.629203    3.504382
     76          6           0        0.549146    3.745734    3.203055
     77          8           0       -0.311853    3.230112    3.912220
     78          1           0        3.196516    4.993788    2.327387
     79          1           0        2.195288    4.411817    4.242550
     80          1           0        2.242084    2.584379    3.745380
     81          7           0        0.226648    4.413166    2.101860
     82          6           0       -1.127976    4.602762    1.626837
     83          6           0       -1.498085    3.351375    0.841821
     84          8           0       -0.622877    2.755942    0.207179
     85          6           0       -1.323461    5.892536    0.824235
     86          6           0       -2.739467    6.047952    0.327673
     87          6           0       -3.046502    5.977851   -1.039995
     88          6           0       -3.777232    6.179020    1.257170
     89          6           0       -4.358739    6.295519   -1.421203
     90          6           0       -5.088225    6.483227    0.893774
     91          6           0       -5.362672    6.608036   -0.486082
     92          8           0       -6.579553    6.966436   -0.994757
     93          1           0        0.948655    4.969291    1.668812
     94          1           0       -1.730137    4.666614    2.531229
     95          1           0       -0.679878    5.816266   -0.053139
     96          1           0       -1.088206    6.681143    1.544064
     97          1           0       -2.279019    5.747280   -1.756310
     98          1           0       -3.664187    6.141149    2.332245
     99          1           0       -4.593533    6.218703   -2.473377
    100          1           0       -5.800848    6.708709    1.675392
    101          1           0       -7.190756    7.206192   -0.288040
    102          7           0       -2.717150    2.881043    1.088128
    103          6           0       -3.391635    1.636709    0.750779
    104          6           0       -3.909120    1.597873   -0.679606
    105          8           0       -3.312989    2.018288   -1.666764
    106          6           0       -2.538233    0.477394    1.263509
    107          6           0       -3.131625   -0.853079    0.799257
    108          6           0       -2.548761    0.581523    2.785759
    109          6           0       -2.347118   -2.101312    1.199084
    110          1           0       -3.223924    3.506666    1.697370
    111          1           0       -4.249882    1.584839    1.417203
    112          1           0       -1.535297    0.477871    0.851296
    113          1           0       -3.049800   -0.970357   -0.283171
    114          1           0       -4.143088   -0.925201    1.191611
    115          1           0       -1.957359   -0.189741    3.290037
    116          1           0       -1.956854    1.436224    3.103928
    117          1           0       -3.554230    0.472468    3.177856
    118          1           0       -2.599805   -2.360716    2.233376
    119          1           0       -2.650763   -2.904076    0.529480
    120          1           0       -1.282319   -1.930101    1.040689
    121          7           0       -5.121984    1.052648   -0.810331
    122          6           0       -5.852148    0.853373   -2.043924
    123          6           0       -7.352066    0.690084   -1.888422
    124          8           0       -8.064448    1.000802   -2.844543
    125          6           0       -5.320947   -0.373850   -2.789476
    126          8           0       -5.205729   -1.457944   -1.898822
    127          1           0       -5.603259    0.717070    0.002726
    128          1           0       -5.722288    1.686153   -2.737403
    129          1           0       -4.301350   -0.222105   -3.150302
    130          1           0       -5.970315   -0.633220   -3.619385
    131          1           0       -4.708061   -2.044601   -2.483596
    132          7           0       -7.743832    0.263423   -0.684479
    133          6           0       -9.082647   -0.030143   -0.228855
    134          6           0       -9.978658   -0.911428   -1.096036
    135          8           0      -11.038797   -0.541347   -1.573157
    136          6           0       -9.751620    1.216532    0.344534
    137          1           0       -7.047339    0.171024    0.044740
    138          1           0       -8.969238   -0.729646    0.604472
    139          1           0      -10.557838    1.007658    1.051488
    140          1           0       -9.082645    1.729209    1.027640
    141          1           0      -10.055125    1.922689   -0.431178
    142          7           0       -9.711422   -2.224156   -1.157914
    143          6           0       -8.446313   -2.905501   -0.975245
    144          6           0       -8.565026   -4.192207   -0.159589
    145          8           0       -9.580692   -4.878658   -0.298537
    146          6           0       -7.854383   -3.162647   -2.356221
    147          1           0      -10.427577   -2.844314   -1.503496
    148          1           0       -7.832318   -2.211396   -0.409446
    149          1           0       -8.545252   -3.807056   -2.907164
    150          1           0       -7.678794   -2.234199   -2.890779
    151          1           0       -6.868466   -3.620178   -2.327368
    152          7           0       -7.665473   -4.610177    0.730471
    153          6           0       -6.470013   -3.932152    1.215400
    154          6           0       -6.722029   -3.378959    2.611060
    155          8           0       -5.966003   -2.542020    3.083985
    156          6           0       -5.374890   -4.994219    1.172780
    157          6           0       -4.750159   -5.284113   -0.184707
    158          6           0       -3.363669   -5.904583   -0.082420
    159          8           0       -3.169896   -7.056929    0.386249
    160          8           0       -2.386682   -5.330943   -0.587427
    161          1           0       -7.852728   -5.483214    1.201049
    162          1           0       -6.218011   -3.055895    0.624834
    163          1           0       -5.766001   -5.849479    1.727183
    164          1           0       -4.541167   -4.733498    1.828014
    165          1           0       -4.786493   -4.343804   -0.751629
    166          1           0       -5.413207   -5.907428   -0.783410
    167          7           0       -7.691594   -3.909778    3.361243
    168          6           0       -8.142413   -3.578022    4.704522
    169          1           0       -7.695520   -2.632805    5.014209
    170          1           0       -9.228904   -3.484997    4.711541
    171          1           0       -7.840361   -4.366133    5.394826
    172          1           0       -8.175885   -4.629252    2.851418
    173         20           0        2.950836   -0.606901    0.437690
    174          8           0        0.824665    0.638476   -0.493671
    175          1           0        0.463583    1.482543   -0.251657
    176          1           0        0.295597    0.349366   -1.247795
 ---------------------------------------------------------------------

 SCF Done:  E(RB3LYP) =  -5333.41672095     A.U. after   25 cycles

 The electronic state is 1-A.
 Alpha  occ. eigenvalues -- -145.44821 -19.17584 -19.15808 -19.14201 -19.14075
 Alpha  occ. eigenvalues --  -19.12585 -19.11988 -19.11944 -19.11496 -19.10982
 Alpha  occ. eigenvalues --  -19.10557 -19.10282 -19.10246 -19.10160 -19.09831
 Alpha  occ. eigenvalues --  -19.08598 -19.08346 -19.08139 -19.08128 -19.08016
 Alpha  occ. eigenvalues --  -19.07802 -19.07691 -18.96517 -18.95827 -15.50648
 Alpha  occ. eigenvalues --  -14.57063 -14.40352 -14.39416 -14.38015 -14.37559
 Alpha  occ. eigenvalues --  -14.37447 -14.37242 -14.36779 -14.35364 -14.34981
 Alpha  occ. eigenvalues --  -14.34954 -14.34868 -14.33919 -14.33756 -14.33397
 Alpha  occ. eigenvalues --  -12.64252 -12.64225 -12.64177 -10.34639 -10.31882
 Alpha  occ. eigenvalues --  -10.31285 -10.30740 -10.30591 -10.30504 -10.29674
 Alpha  occ. eigenvalues --  -10.29376 -10.29322 -10.29281 -10.28369 -10.27949
 Alpha  occ. eigenvalues --  -10.27722 -10.27579 -10.27465 -10.27137 -10.27101
 Alpha  occ. eigenvalues --  -10.26905 -10.26862 -10.26790 -10.26511 -10.26350
 Alpha  occ. eigenvalues --  -10.25808 -10.25592 -10.24690 -10.24559 -10.24365
 Alpha  occ. eigenvalues --  -10.24358 -10.23649 -10.23629 -10.23584 -10.23049
 Alpha  occ. eigenvalues --  -10.22490 -10.22421 -10.22198 -10.21848 -10.21734
 Alpha  occ. eigenvalues --  -10.21100 -10.21015 -10.20933 -10.20793 -10.20438
 Alpha  occ. eigenvalues --  -10.19936 -10.19220 -10.18888 -10.18801 -10.18353
 Alpha  occ. eigenvalues --  -10.17532 -10.16823 -10.16424 -10.16283 -10.15764
 Alpha  occ. eigenvalues --  -10.14835 -10.12730  -1.87380  -1.14762  -1.14708
 Alpha  occ. eigenvalues --   -1.14453  -1.12657  -1.07259  -1.06680  -1.05974
 Alpha  occ. eigenvalues --   -1.05906  -1.05423  -1.04678  -1.04344  -1.04044
 Alpha  occ. eigenvalues --   -1.03928  -1.03274  -1.02807  -1.02588  -1.02192
 Alpha  occ. eigenvalues --   -1.01658  -1.01499  -1.01369  -1.01047  -1.00742
 Alpha  occ. eigenvalues --   -1.00448  -0.97341  -0.95950  -0.95266  -0.94820
 Alpha  occ. eigenvalues --   -0.94543  -0.94514  -0.93964  -0.93478  -0.92679
 Alpha  occ. eigenvalues --   -0.92561  -0.92365  -0.91619  -0.91332  -0.90608
 Alpha  occ. eigenvalues --   -0.90151  -0.89835  -0.89361  -0.89125  -0.86955
 Alpha  occ. eigenvalues --   -0.83766  -0.82720  -0.81380  -0.81057  -0.80127
 Alpha  occ. eigenvalues --   -0.79553  -0.78944  -0.78809  -0.77449  -0.76723
 Alpha  occ. eigenvalues --   -0.76638  -0.76236  -0.76139  -0.75179  -0.74541
 Alpha  occ. eigenvalues --   -0.74487  -0.72926  -0.72716  -0.72360  -0.71945
 Alpha  occ. eigenvalues --   -0.71892  -0.70782  -0.70181  -0.68783  -0.68132
 Alpha  occ. eigenvalues --   -0.67538  -0.67347  -0.67230  -0.66865  -0.65519
 Alpha  occ. eigenvalues --   -0.65393  -0.64941  -0.64308  -0.63797  -0.63548
 Alpha  occ. eigenvalues --   -0.63413  -0.63022  -0.61651  -0.60644  -0.60521
 Alpha  occ. eigenvalues --   -0.60393  -0.60035  -0.59681  -0.59528  -0.59384
 Alpha  occ. eigenvalues --   -0.59233  -0.58945  -0.58262  -0.57875  -0.57856
 Alpha  occ. eigenvalues --   -0.57580  -0.57049  -0.56835  -0.56757  -0.56492
 Alpha  occ. eigenvalues --   -0.56146  -0.55866  -0.55477  -0.55277  -0.54447
 Alpha  occ. eigenvalues --   -0.54390  -0.54086  -0.53493  -0.53217  -0.53008
 Alpha  occ. eigenvalues --   -0.52876  -0.52590  -0.52162  -0.51981  -0.51739
 Alpha  occ. eigenvalues --   -0.51673  -0.51480  -0.51424  -0.50995  -0.50624
 Alpha  occ. eigenvalues --   -0.50200  -0.49774  -0.49367  -0.48624  -0.48411
 Alpha  occ. eigenvalues --   -0.48323  -0.47975  -0.47913  -0.47765  -0.47582
 Alpha  occ. eigenvalues --   -0.47523  -0.47344  -0.47139  -0.47065  -0.46626
 Alpha  occ. eigenvalues --   -0.46442  -0.46420  -0.46209  -0.46145  -0.46028
 Alpha  occ. eigenvalues --   -0.45921  -0.45762  -0.45720  -0.45466  -0.45417
 Alpha  occ. eigenvalues --   -0.45109  -0.44999  -0.44879  -0.44780  -0.44595
 Alpha  occ. eigenvalues --   -0.44337  -0.44179  -0.44091  -0.44042  -0.43820
 Alpha  occ. eigenvalues --   -0.43591  -0.43117  -0.43022  -0.42908  -0.42766
 Alpha  occ. eigenvalues --   -0.42727  -0.42596  -0.42504  -0.42343  -0.42295
 Alpha  occ. eigenvalues --   -0.41815  -0.41784  -0.41553  -0.41483  -0.41399
 Alpha  occ. eigenvalues --   -0.41293  -0.41186  -0.41088  -0.40980  -0.40845
 Alpha  occ. eigenvalues --   -0.40754  -0.40624  -0.40369  -0.40162  -0.39900
 Alpha  occ. eigenvalues --   -0.39879  -0.39622  -0.39378  -0.39154  -0.39068
 Alpha  occ. eigenvalues --   -0.38900  -0.38713  -0.38590  -0.38403  -0.38345
 Alpha  occ. eigenvalues --   -0.38327  -0.38150  -0.38034  -0.37635  -0.37592
 Alpha  occ. eigenvalues --   -0.37569  -0.37342  -0.37253  -0.37065  -0.36815
 Alpha  occ. eigenvalues --   -0.36670  -0.36624  -0.36557  -0.36348  -0.36192
 Alpha  occ. eigenvalues --   -0.35831  -0.35592  -0.35331  -0.35185  -0.35179
 Alpha  occ. eigenvalues --   -0.35084  -0.34818  -0.34707  -0.34627  -0.34166
 Alpha  occ. eigenvalues --   -0.33528  -0.32760  -0.32293  -0.32037  -0.31576
 Alpha  occ. eigenvalues --   -0.31101  -0.30896  -0.30728  -0.30430  -0.29585
 Alpha  occ. eigenvalues --   -0.29402  -0.29206  -0.29142  -0.28740  -0.28372
 Alpha  occ. eigenvalues --   -0.28345  -0.27928  -0.27629  -0.27611  -0.27556
 Alpha  occ. eigenvalues --   -0.27497  -0.27180  -0.27156  -0.27069  -0.26966
 Alpha  occ. eigenvalues --   -0.26867  -0.26709  -0.26462  -0.26387  -0.26184
 Alpha  occ. eigenvalues --   -0.25930  -0.25821  -0.25754  -0.25202  -0.25086
 Alpha  occ. eigenvalues --   -0.25021  -0.24621  -0.24404  -0.23865  -0.23739
 Alpha  occ. eigenvalues --   -0.23479  -0.23303  -0.23226  -0.22856  -0.22688
 Alpha  occ. eigenvalues --   -0.14797  -0.13544  -0.10630
 Alpha virt. eigenvalues --   -0.09264  -0.08285  -0.03391  -0.03373  -0.02721
 Alpha virt. eigenvalues --   -0.02140  -0.01960  -0.01928  -0.01580  -0.01142
 Alpha virt. eigenvalues --   -0.00850  -0.00707  -0.00591  -0.00096   0.00223

 Mulliken charges:
               1
     1  C    0.035550
     2  C    0.015994
     3  O   -0.286815
     4  H    0.028883
     5  H    0.037328
     6  H    0.042539
     7  N   -0.114888
     8  C    0.100516
     9  C    0.093925
    10  O   -0.261801
    11  C    0.123547
    12  C    0.057128
    13  O   -0.429333
    14  O   -0.406394
    15  H    0.115592
    16  H   -0.006374
    17  H    0.026032
    18  H    0.023408
    19  N   -0.135741
    20  C    0.194274
    21  C    0.012247
    22  O   -0.307336
    23  C    0.010324
    24  C    0.016778
    25  C   -0.031192
    26  C    0.018589
    27  N    0.087360
    28  H    0.122410
    29  H    0.029408
    30  H    0.013640
    31  H    0.001189
    32  H   -0.002727
    33  H   -0.009921
    34  H    0.044439
    35  H    0.042568
    36  H    0.078344
    37  H    0.067653
    38  H    0.184535
    39  H    0.195120
    40  H    0.172986
    41  N   -0.116584
    42  C    0.103592
    43  C    0.066934
    44  O   -0.283127
    45  C    0.150157
    46  C    0.138542
    47  O   -0.455446
    48  O   -0.413009
    49  H    0.140764
    50  H    0.029995
    51  H   -0.047865
    52  H    0.042941
    53  N   -0.164968
    54  C    0.216465
    55  C    0.004586
    56  O   -0.311662
    57  H    0.133016
    58  H    0.043736
    59  H    0.013219
    60  N   -0.117703
    61  C    0.112660
    62  C    0.119106
    63  O   -0.328136
    64  C    0.116292
    65  C    0.003132
    66  N   -0.041491
    67  O   -0.252845
    68  H    0.141950
    69  H   -0.067676
    70  H   -0.022176
    71  H    0.031530
    72  H    0.115146
    73  H    0.134506
    74  N   -0.169294
    75  C    0.257110
    76  C   -0.012184
    77  O   -0.269821
    78  H    0.147338
    79  H    0.031753
    80  H    0.067533
    81  N   -0.096390
    82  C    0.030660
    83  C    0.137352
    84  O   -0.310750
    85  C    0.205323
    86  C   -0.051568
    87  C    0.020766
    88  C   -0.053058
    89  C   -0.009206
    90  C   -0.064922
    91  C    0.182222
    92  O   -0.193176
    93  H    0.099530
    94  H    0.006977
    95  H   -0.000405
    96  H    0.013034
    97  H   -0.011994
    98  H   -0.026114
    99  H   -0.007778
   100  H   -0.034778
   101  H    0.177902
   102  N   -0.099774
   103  C    0.133546
   104  C    0.114261
   105  O   -0.258035
   106  C   -0.082283
   107  C   -0.022219
   108  C    0.052364
   109  C    0.044726
   110  H    0.128478
   111  H   -0.026634
   112  H   -0.040645
   113  H    0.002589
   114  H   -0.014675
   115  H   -0.001398
   116  H    0.017440
   117  H    0.007662
   118  H    0.021782
   119  H    0.033035
   120  H   -0.052413
   121  N   -0.119652
   122  C    0.086394
   123  C    0.084931
   124  O   -0.252983
   125  C    0.201468
   126  O   -0.301325
   127  H    0.098026
   128  H    0.033525
   129  H    0.007372
   130  H    0.013579
   131  H    0.183871
   132  N   -0.139653
   133  C   -0.010595
   134  C    0.096826
   135  O   -0.233817
   136  C    0.097679
   137  H    0.126125
   138  H    0.022267
   139  H    0.010311
   140  H   -0.029395
   141  H    0.050825
   142  N   -0.129015
   143  C    0.041321
   144  C    0.067316
   145  O   -0.290452
   146  C    0.088762
   147  H    0.127644
   148  H   -0.023407
   149  H    0.016978
   150  H    0.016404
   151  H    0.004501
   152  N   -0.110084
   153  C    0.057114
   154  C    0.034245
   155  O   -0.281453
   156  C    0.039834
   157  C    0.111705
   158  C    0.023216
   159  O   -0.384316
   160  O   -0.377645
   161  H    0.127849
   162  H    0.031494
   163  H   -0.027751
   164  H    0.011820
   165  H   -0.052725
   166  H   -0.021398
   167  N   -0.143394
   168  C    0.133917
   169  H    0.039247
   170  H    0.024762
   171  H    0.031344
   172  H    0.095144
   173  Ca   1.364361
   174  O   -0.319652
   175  H    0.196782
   176  H    0.190519
 Sum of Mulliken charges =  -0.00000

 Dipole moment (field-independent basis, Debye):
    X=             14.4808    Y=              2.3942    Z=             -0.1284  Tot=             14.6780
 Quadrupole moment (field-independent basis, Debye-Ang):
   XX=           -678.2637   YY=           -548.7317   ZZ=           -504.9876
   XY=           -150.5141   XZ=            -62.5840   YZ=            122.1802

 ESP charges:
               1
     1  C   -0.438028
     2  C    0.731964
     3  O   -0.572076
     4  H    0.107598
     5  H    0.128620
     6  H    0.125598
     7  N   -0.565979
     8  C   -0.048440
     9  C    0.680890
    10  O   -0.533461
    11  C   -0.029010
    12  C    0.598428
    13  O   -0.612208
    14  O   -0.726643
    15  H    0.304850
    16  H    0.071319
    17  H    0.053251
    18  H    0.071582
    19  N   -0.519228
    20  C    0.130460
    21  C    0.411856
    22  O   -0.578265
    23  C   -0.096516
    24  C    0.192087
    25  C   -0.121262
    26  C    0.113969
    27  N   -0.400670
    28  H    0.281472
    29  H    0.081041
    30  H    0.041197
    31  H    0.027234
    32  H   -0.084484
    33  H   -0.027330
    34  H    0.056655
    35  H    0.063413
    36  H    0.071490
    37  H    0.048740
    38  H    0.331661
    39  H    0.355684
    40  H    0.318334
    41  N    0.154900
    42  C   -0.134661
    43  C    0.554746
    44  O   -0.534234
    45  C   -0.222564
    46  C    0.766633
    47  O   -0.798442
    48  O   -0.638703
    49  H   -0.239154
    50  H    0.123276
    51  H    0.032711
    52  H    0.122465
    53  N   -0.421202
    54  C   -0.090978
    55  C    0.535765
    56  O   -0.585543
    57  H    0.368346
    58  H    0.122328
    59  H    0.049817
    60  N   -0.123567
    61  C   -0.450070
    62  C    0.618571
    63  O   -0.504629
    64  C   -0.048447
    65  C    0.666155
    66  N   -0.849088
    67  O   -0.549544
    68  H    0.210364
    69  H    0.094361
    70  H    0.041421
    71  H    0.031460
    72  H    0.389458
    73  H    0.401324
    74  N   -0.289120
    75  C   -0.368515
    76  C    0.645074
    77  O   -0.561103
    78  H    0.298308
    79  H    0.162820
    80  H    0.189447
    81  N   -0.478553
    82  C    0.301800
    83  C    0.704986
    84  O   -0.646777
    85  C   -0.333961
    86  C    0.110220
    87  C   -0.185293
    88  C   -0.115281
    89  C   -0.230067
    90  C   -0.364570
    91  C    0.391153
    92  O   -0.546786
    93  H    0.255080
    94  H   -0.018774
    95  H    0.099171
    96  H    0.094947
    97  H    0.159136
    98  H    0.128525
    99  H    0.170660
   100  H    0.160352
   101  H    0.415736
   102  N   -0.498104
   103  C   -0.285028
   104  C    0.739720
   105  O   -0.532027
   106  C    0.216377
   107  C    0.038416
   108  C   -0.199787
   109  C   -0.264084
   110  H    0.274795
   111  H    0.163565
   112  H   -0.035639
   113  H    0.046965
   114  H    0.011061
   115  H    0.060026
   116  H    0.059935
   117  H    0.039984
   118  H    0.064857
   119  H    0.069224
   120  H    0.028882
   121  N   -0.462155
   122  C   -0.145321
   123  C    0.655361
   124  O   -0.525847
   125  C    0.029631
   126  O   -0.534648
   127  H    0.150654
   128  H    0.141028
   129  H    0.073603
   130  H    0.051096
   131  H    0.400156
   132  N   -0.430097
   133  C    0.095721
   134  C    0.687886
   135  O   -0.542793
   136  C   -0.413917
   137  H    0.347275
   138  H    0.068576
   139  H    0.119796
   140  H    0.098581
   141  H    0.137452
   142  N   -0.760093
   143  C    0.474577
   144  C    0.464767
   145  O   -0.551051
   146  C   -0.244713
   147  H    0.365742
   148  H   -0.087771
   149  H    0.066196
   150  H    0.088271
   151  H    0.052877
   152  N   -0.558649
   153  C    0.000950
   154  C    0.371393
   155  O   -0.490960
   156  C    0.116280
   157  C   -0.366287
   158  C    0.771261
   159  O   -0.696374
   160  O   -0.703464
   161  H    0.357152
   162  H    0.100944
   163  H   -0.020039
   164  H    0.037529
   165  H    0.038627
   166  H    0.095167
   167  N   -0.236610
   168  C   -0.076597
   169  H    0.081678
   170  H    0.060420
   171  H    0.068140
   172  H    0.217371
   173  Ca   1.624024
   174  O   -0.867876
   175  H    0.489820
   176  H    0.428443
 Sum of ESP charges =   0.00000

 Normal termination of Gaussian 16 at Tue Sep 17 23:50:40 2019.
