 Gaussian 16, Revision A.03,
 Gaussian 16:  ES64L-G16RevA.03 25-Dec-2016

 ----------------------------------------------------------------------
 #b3lyp/svp scf=(tight,noincore) Test #IOP(5/87=12) Density=Current Pop
 =(MK,readradii) iop(6/33=2) iop(6/42=6)
 ----------------------------------------------------------------------

 -----------------
 Ng-293_loop3_47.0
 -----------------
 Symbolic Z-matrix:
 Charge =  0 Multiplicity = 1

                         Standard orientation:
 ---------------------------------------------------------------------
 Center     Atomic      Atomic             Coordinates (Angstroms)
 Number     Number       Type             X           Y           Z
 ---------------------------------------------------------------------
      1          6           0        9.910612    1.438524    5.907925
      2          6           0       10.489816    1.884102    4.570134
      3          8           0       11.693915    2.139036    4.520584
      4          1           0        9.313992    0.538153    5.763335
      5          1           0       10.722454    1.227465    6.604229
      6          1           0        9.280668    2.229942    6.313476
      7          7           0        9.648435    1.903743    3.534860
      8          6           0        9.917205    2.204272    2.149203
      9          6           0        9.609719    1.018873    1.236142
     10          8           0        8.885478    0.091592    1.602373
     11          6           0        9.243856    3.501547    1.720160
     12          6           0        9.918626    4.113775    0.498537
     13          8           0        9.183337    4.778645   -0.263564
     14          8           0       11.138978    3.924385    0.267294
     15          1           0        8.745950    1.451387    3.665984
     16          1           0       10.972888    2.472461    2.171744
     17          1           0        9.192866    4.154990    2.575620
     18          1           0        8.206779    3.300692    1.466924
     19          7           0       10.006380    1.122410   -0.028943
     20          6           0        9.778201    0.231588   -1.156095
     21          6           0        8.412126   -0.324898   -1.542698
     22          8           0        8.348489   -1.007018   -2.562288
     23          6           0       10.782251   -0.922216   -1.117120
     24          6           0       12.245027   -0.574877   -0.907735
     25          6           0       13.067039   -1.866348   -0.908885
     26          6           0       14.518514   -1.588590   -0.549065
     27          7           0       15.348758   -2.803737   -0.552849
     28          1           0       10.712652    1.836848   -0.126706
     29          1           0       10.029603    0.869945   -1.994604
     30          1           0       10.712536   -1.481451   -2.049749
     31          1           0       10.423683   -1.720605   -0.467039
     32          1           0       12.365959   -0.055999    0.040653
     33          1           0       12.660917    0.130907   -1.632238
     34          1           0       12.993805   -2.363674   -1.880946
     35          1           0       12.690492   -2.577299   -0.173180
     36          1           0       14.526468   -1.103554    0.432351
     37          1           0       14.933922   -0.866404   -1.255382
     38          1           0       16.284099   -2.676544   -0.208379
     39          1           0       14.864975   -3.483841    0.020224
     40          1           0       15.238104   -3.329631   -1.406658
     41          7           0        7.333801   -0.004198   -0.821265
     42          6           0        5.977511   -0.251018   -1.277948
     43          6           0        5.034076    0.831725   -0.794835
     44          8           0        5.189931    1.281144    0.338095
     45          6           0        5.516209   -1.595564   -0.715370
     46          6           0        4.193236   -2.168194   -1.207243
     47          8           0        3.870218   -3.347806   -0.938219
     48          8           0        3.494585   -1.500419   -1.998485
     49          1           0        7.411817    0.440482    0.082932
     50          1           0        5.922472   -0.270683   -2.361408
     51          1           0        5.563070   -1.510948    0.364280
     52          1           0        6.200401   -2.349545   -1.100461
     53          7           0        4.074165    1.247294   -1.623976
     54          6           0        2.941905    2.066840   -1.232912
     55          6           0        1.690231    1.274213   -1.612457
     56          8           0        1.643517    0.507561   -2.560857
     57          1           0        4.122376    0.942940   -2.585404
     58          1           0        2.832830    3.046404   -1.701374
     59          1           0        2.967006    2.147360   -0.150144
     60          7           0        0.691158    1.629949   -0.805050
     61          6           0       -0.644417    1.089852   -0.925193
     62          6           0       -1.685405    2.198685   -0.864103
     63          8           0       -2.845255    1.954601   -1.197076
     64          6           0       -0.861785    0.073822    0.199855
     65          6           0       -0.124644   -1.248711   -0.017470
     66          7           0        0.355438   -1.892773    1.043522
     67          8           0        0.130450   -1.750197   -1.109047
     68          1           0        0.901861    2.346047   -0.125633
     69          1           0       -0.665921    0.456266   -1.811481
     70          1           0       -1.925860   -0.109711    0.326187
     71          1           0       -0.602780    0.627200    1.098793
     72          1           0        0.208463   -1.548582    1.977402
     73          1           0        0.701420   -2.832018    0.877044
     74          7           0       -1.397327    3.425109   -0.417453
     75          6           0       -2.174099    4.646996   -0.544801
     76          6           0       -3.537485    4.644594    0.136062
     77          8           0       -3.533930    4.583046    1.362886
     78          1           0       -0.475182    3.587093   -0.055224
     79          1           0       -2.326080    4.903812   -1.588758
     80          1           0       -1.654488    5.463704   -0.046914
     81          7           0       -4.656315    4.697349   -0.579017
     82          6           0       -5.991606    4.294938   -0.163490
     83          6           0       -6.074125    2.982720    0.583421
     84          8           0       -7.031153    2.740415    1.315464
     85          6           0       -6.641049    5.472591    0.571735
     86          6           0       -6.663152    6.777686   -0.177023
     87          6           0       -5.772994    7.818807    0.122788
     88          6           0       -7.637658    6.983865   -1.158618
     89          6           0       -5.860554    9.019942   -0.577932
     90          6           0       -7.674543    8.169912   -1.910372
     91          6           0       -6.757965    9.212087   -1.649302
     92          8           0       -6.836694   10.455412   -2.200885
     93          1           0       -4.543861    4.779107   -1.579052
     94          1           0       -6.633924    4.097332   -1.025046
     95          1           0       -6.096317    5.539257    1.510310
     96          1           0       -7.650690    5.144727    0.824183
     97          1           0       -4.996010    7.660427    0.847088
     98          1           0       -8.355343    6.185703   -1.282576
     99          1           0       -5.206108    9.872615   -0.438830
    100          1           0       -8.379424    8.354736   -2.706099
    101          1           0       -7.557053   10.557295   -2.828740
    102          7           0       -5.110836    2.072193    0.368911
    103          6           0       -4.995309    0.670792    0.745114
    104          6           0       -6.085457   -0.231653    0.193960
    105          8           0       -5.855237   -1.172048   -0.557409
    106          6           0       -4.741363    0.484050    2.239951
    107          6           0       -3.595489    1.322063    2.806703
    108          6           0       -4.356265   -0.961714    2.514845
    109          6           0       -3.515183    1.347663    4.330873
    110          1           0       -4.311098    2.428810   -0.123982
    111          1           0       -4.106997    0.321418    0.231462
    112          1           0       -5.638234    0.644396    2.830384
    113          1           0       -3.872790    2.347687    2.539681
    114          1           0       -2.617651    1.150849    2.382181
    115          1           0       -3.496112   -1.336876    1.963219
    116          1           0       -4.261814   -1.138094    3.583708
    117          1           0       -5.217079   -1.594893    2.282284
    118          1           0       -2.676370    1.925813    4.722455
    119          1           0       -4.314301    2.030899    4.622759
    120          1           0       -3.612498    0.366816    4.800522
    121          7           0       -7.353634    0.135927    0.389695
    122          6           0       -8.455333   -0.468485   -0.331585
    123          6           0       -8.795416   -1.884878    0.084556
    124          8           0       -9.458633   -2.552074   -0.705946
    125          6           0       -9.623722    0.520659   -0.226408
    126          8           0       -9.882111    0.645803    1.149519
    127          1           0       -7.465699    0.979345    0.940230
    128          1           0       -8.180577   -0.439007   -1.390141
    129          1           0      -10.520937    0.085649   -0.677153
    130          1           0       -9.316915    1.416544   -0.756843
    131          1           0      -10.813404    0.495181    1.315671
    132          7           0       -8.325922   -2.381979    1.232670
    133          6           0       -8.449583   -3.704898    1.806685
    134          6           0       -7.689149   -4.774235    1.026199
    135          8           0       -7.985325   -5.960330    1.153316
    136          6           0       -9.917388   -4.018650    2.023266
    137          1           0       -7.807146   -1.732210    1.826111
    138          1           0       -8.006437   -3.690861    2.801031
    139          1           0      -10.498553   -3.111107    2.206604
    140          1           0      -10.312785   -4.572929    1.165515
    141          1           0       -9.913803   -4.626237    2.917763
    142          7           0       -6.713467   -4.291449    0.259216
    143          6           0       -5.757386   -5.083436   -0.491294
    144          6           0       -4.323584   -4.826314   -0.025352
    145          8           0       -4.086685   -3.789177    0.585160
    146          6           0       -6.041848   -4.699196   -1.939618
    147          1           0       -6.568492   -3.295941    0.173513
    148          1           0       -6.015756   -6.137123   -0.471596
    149          1           0       -5.545832   -5.340825   -2.656472
    150          1           0       -7.099940   -4.767107   -2.164848
    151          1           0       -5.633193   -3.715507   -2.189130
    152          7           0       -3.451330   -5.825056   -0.157215
    153          6           0       -2.188895   -5.909056    0.556858
    154          6           0       -2.161737   -5.627353    2.046591
    155          8           0       -1.073926   -5.568718    2.627393
    156          6           0       -1.155189   -5.120319   -0.237085
    157          6           0       -1.097525   -5.544107   -1.706397
    158          6           0       -0.417043   -4.439418   -2.497730
    159          8           0       -1.112224   -3.540164   -3.024766
    160          8           0        0.829717   -4.445741   -2.656939
    161          1           0       -3.784148   -6.627381   -0.679619
    162          1           0       -1.907047   -6.951864    0.416100
    163          1           0       -0.150771   -5.221456    0.161183
    164          1           0       -1.517403   -4.100776   -0.110466
    165          1           0       -2.079476   -5.775261   -2.095806
    166          1           0       -0.558590   -6.498211   -1.700398
    167          7           0       -3.287690   -5.519084    2.765901
    168          6           0       -3.490477   -5.408767    4.189666
    169          1           0       -4.549968   -5.251790    4.394469
    170          1           0       -3.158954   -6.326019    4.676008
    171          1           0       -2.918244   -4.564830    4.574211
    172          1           0       -4.104672   -5.580946    2.178691
    173         20           0        1.394990   -2.076032   -3.359995
    174          8           0        0.299633   -2.643356   -5.720173
    175          1           0       -0.033822   -3.536707   -5.693110
    176          1           0        0.116301   -2.355982   -6.622063
 ---------------------------------------------------------------------

 SCF Done:  E(RB3LYP) =  -5333.42912411     A.U. after   26 cycles

 The electronic state is 1-A.
 Alpha  occ. eigenvalues -- -145.40446 -19.19457 -19.17422 -19.14986 -19.14386
 Alpha  occ. eigenvalues --  -19.13573 -19.12092 -19.12056 -19.10945 -19.09259
 Alpha  occ. eigenvalues --  -19.09095 -19.08091 -19.07622 -19.07606 -19.07086
 Alpha  occ. eigenvalues --  -19.06772 -19.06416 -19.04333 -19.03585 -19.03149
 Alpha  occ. eigenvalues --  -19.03053 -18.99805 -18.96886 -18.95640 -15.46304
 Alpha  occ. eigenvalues --  -14.57758 -14.41226 -14.40367 -14.38695 -14.36096
 Alpha  occ. eigenvalues --  -14.35647 -14.35190 -14.34602 -14.34376 -14.33742
 Alpha  occ. eigenvalues --  -14.33578 -14.33084 -14.31658 -14.31653 -14.30317
 Alpha  occ. eigenvalues --  -12.59919 -12.59885 -12.59821 -10.33834 -10.33606
 Alpha  occ. eigenvalues --  -10.32584 -10.31299 -10.31253 -10.29665 -10.27820
 Alpha  occ. eigenvalues --  -10.27706 -10.27611 -10.27493 -10.27205 -10.26685
 Alpha  occ. eigenvalues --  -10.26622 -10.26424 -10.26109 -10.25935 -10.25845
 Alpha  occ. eigenvalues --  -10.25748 -10.24676 -10.24659 -10.24082 -10.23718
 Alpha  occ. eigenvalues --  -10.23263 -10.23125 -10.22796 -10.22526 -10.22312
 Alpha  occ. eigenvalues --  -10.22306 -10.22303 -10.21992 -10.21877 -10.21525
 Alpha  occ. eigenvalues --  -10.21018 -10.20206 -10.20171 -10.19862 -10.19801
 Alpha  occ. eigenvalues --  -10.19717 -10.19333 -10.19290 -10.18872 -10.18761
 Alpha  occ. eigenvalues --  -10.17363 -10.17151 -10.17089 -10.16599 -10.16554
 Alpha  occ. eigenvalues --  -10.16332 -10.16131 -10.15964 -10.15433 -10.14949
 Alpha  occ. eigenvalues --  -10.13926 -10.10870  -1.83034  -1.13288  -1.10661
 Alpha  occ. eigenvalues --   -1.10347  -1.09991  -1.08162  -1.07361  -1.05843
 Alpha  occ. eigenvalues --   -1.05545  -1.05207  -1.04912  -1.04018  -1.02910
 Alpha  occ. eigenvalues --   -1.02720  -1.01931  -1.01171  -1.00901  -1.00159
 Alpha  occ. eigenvalues --   -0.99987  -0.99960  -0.99215  -0.98482  -0.98084
 Alpha  occ. eigenvalues --   -0.96899  -0.96490  -0.96415  -0.95486  -0.92504
 Alpha  occ. eigenvalues --   -0.92414  -0.91916  -0.91036  -0.90877  -0.90838
 Alpha  occ. eigenvalues --   -0.90780  -0.89788  -0.89560  -0.89340  -0.88438
 Alpha  occ. eigenvalues --   -0.87771  -0.87492  -0.87203  -0.85736  -0.85497
 Alpha  occ. eigenvalues --   -0.83361  -0.81735  -0.80839  -0.80491  -0.80088
 Alpha  occ. eigenvalues --   -0.78429  -0.77621  -0.77287  -0.76238  -0.75822
 Alpha  occ. eigenvalues --   -0.75579  -0.74885  -0.74717  -0.74220  -0.74112
 Alpha  occ. eigenvalues --   -0.73252  -0.72860  -0.71948  -0.71796  -0.70184
 Alpha  occ. eigenvalues --   -0.70001  -0.69799  -0.68440  -0.68010  -0.66993
 Alpha  occ. eigenvalues --   -0.66941  -0.65739  -0.65164  -0.64522  -0.64241
 Alpha  occ. eigenvalues --   -0.63426  -0.63365  -0.63185  -0.62896  -0.62520
 Alpha  occ. eigenvalues --   -0.62060  -0.60916  -0.60789  -0.60684  -0.60329
 Alpha  occ. eigenvalues --   -0.59917  -0.59377  -0.58772  -0.58284  -0.58153
 Alpha  occ. eigenvalues --   -0.58106  -0.57867  -0.57564  -0.57069  -0.56456
 Alpha  occ. eigenvalues --   -0.56372  -0.56090  -0.55650  -0.55600  -0.55522
 Alpha  occ. eigenvalues --   -0.55123  -0.54773  -0.54480  -0.54369  -0.53809
 Alpha  occ. eigenvalues --   -0.53454  -0.53385  -0.52776  -0.52455  -0.52309
 Alpha  occ. eigenvalues --   -0.52120  -0.51880  -0.51598  -0.51137  -0.50605
 Alpha  occ. eigenvalues --   -0.50389  -0.50112  -0.49284  -0.48871  -0.48327
 Alpha  occ. eigenvalues --   -0.48142  -0.48003  -0.47651  -0.47605  -0.47513
 Alpha  occ. eigenvalues --   -0.47170  -0.47023  -0.46931  -0.46736  -0.46578
 Alpha  occ. eigenvalues --   -0.46433  -0.46355  -0.46283  -0.46116  -0.45842
 Alpha  occ. eigenvalues --   -0.45631  -0.45345  -0.45265  -0.45167  -0.45166
 Alpha  occ. eigenvalues --   -0.44731  -0.44417  -0.44366  -0.44140  -0.43785
 Alpha  occ. eigenvalues --   -0.43463  -0.43391  -0.43244  -0.43184  -0.42997
 Alpha  occ. eigenvalues --   -0.42956  -0.42891  -0.42606  -0.42209  -0.41961
 Alpha  occ. eigenvalues --   -0.41818  -0.41705  -0.41495  -0.41329  -0.41299
 Alpha  occ. eigenvalues --   -0.41257  -0.41091  -0.40648  -0.40586  -0.40487
 Alpha  occ. eigenvalues --   -0.40452  -0.40250  -0.40145  -0.40059  -0.39893
 Alpha  occ. eigenvalues --   -0.39794  -0.39679  -0.39437  -0.39348  -0.39134
 Alpha  occ. eigenvalues --   -0.38962  -0.38813  -0.38735  -0.38397  -0.38359
 Alpha  occ. eigenvalues --   -0.38180  -0.38082  -0.37947  -0.37816  -0.37463
 Alpha  occ. eigenvalues --   -0.37352  -0.37104  -0.36899  -0.36870  -0.36763
 Alpha  occ. eigenvalues --   -0.36457  -0.36228  -0.36216  -0.36041  -0.36024
 Alpha  occ. eigenvalues --   -0.35783  -0.35569  -0.35249  -0.35216  -0.35170
 Alpha  occ. eigenvalues --   -0.34830  -0.34495  -0.34475  -0.34318  -0.34296
 Alpha  occ. eigenvalues --   -0.34113  -0.33986  -0.33784  -0.33752  -0.33475
 Alpha  occ. eigenvalues --   -0.33418  -0.33035  -0.32967  -0.32746  -0.32669
 Alpha  occ. eigenvalues --   -0.31935  -0.31833  -0.31810  -0.31694  -0.31640
 Alpha  occ. eigenvalues --   -0.30853  -0.30723  -0.30496  -0.29728  -0.29609
 Alpha  occ. eigenvalues --   -0.28997  -0.28483  -0.28358  -0.28181  -0.27617
 Alpha  occ. eigenvalues --   -0.27587  -0.27271  -0.26854  -0.26803  -0.26606
 Alpha  occ. eigenvalues --   -0.26467  -0.26385  -0.26115  -0.25005  -0.24883
 Alpha  occ. eigenvalues --   -0.24355  -0.24238  -0.23916  -0.23911  -0.23378
 Alpha  occ. eigenvalues --   -0.23201  -0.23108  -0.23032  -0.22802  -0.22653
 Alpha  occ. eigenvalues --   -0.22431  -0.22219  -0.22055  -0.21124  -0.20857
 Alpha  occ. eigenvalues --   -0.20178  -0.20107  -0.18912  -0.18763  -0.15876
 Alpha  occ. eigenvalues --   -0.14168  -0.13907  -0.11287
 Alpha virt. eigenvalues --   -0.10139  -0.04070  -0.04066  -0.03783  -0.03658
 Alpha virt. eigenvalues --   -0.03055  -0.02382  -0.01396  -0.01071  -0.00575
 Alpha virt. eigenvalues --   -0.00124  -0.00022   0.00197   0.01608   0.01707

 Mulliken charges:
               1
     1  C    0.041521
     2  C    0.014878
     3  O   -0.300583
     4  H    0.011839
     5  H    0.014328
     6  H    0.025881
     7  N   -0.127262
     8  C    0.066941
     9  C    0.060592
    10  O   -0.319591
    11  C    0.105032
    12  C    0.047356
    13  O   -0.359252
    14  O   -0.404757
    15  H    0.109250
    16  H    0.004348
    17  H   -0.008269
    18  H   -0.025614
    19  N   -0.124641
    20  C    0.187368
    21  C    0.075208
    22  O   -0.305420
    23  C    0.001020
    24  C    0.048563
    25  C   -0.076179
    26  C    0.033931
    27  N    0.116979
    28  H    0.124666
    29  H    0.019423
    30  H   -0.002725
    31  H    0.000687
    32  H    0.023922
    33  H    0.015233
    34  H    0.022642
    35  H    0.021490
    36  H    0.087574
    37  H    0.071741
    38  H    0.180439
    39  H    0.159287
    40  H    0.163229
    41  N   -0.104953
    42  C    0.126140
    43  C    0.070408
    44  O   -0.287614
    45  C    0.071142
    46  C    0.096786
    47  O   -0.357013
    48  O   -0.504615
    49  H    0.145002
    50  H   -0.029583
    51  H    0.017872
    52  H    0.025443
    53  N   -0.101105
    54  C    0.182515
    55  C    0.102638
    56  O   -0.333373
    57  H    0.120209
    58  H    0.040142
    59  H    0.031213
    60  N   -0.146825
    61  C    0.096338
    62  C    0.105226
    63  O   -0.292811
    64  C    0.025457
    65  C    0.116972
    66  N   -0.022917
    67  O   -0.325805
    68  H    0.125233
    69  H    0.040815
    70  H    0.085529
    71  H    0.009520
    72  H    0.122022
    73  H    0.174508
    74  N   -0.110484
    75  C    0.230921
    76  C   -0.006342
    77  O   -0.263576
    78  H    0.106829
    79  H    0.002155
    80  H    0.043085
    81  N   -0.097324
    82  C    0.078240
    83  C    0.082617
    84  O   -0.298869
    85  C    0.155414
    86  C   -0.026631
    87  C    0.008548
    88  C   -0.001256
    89  C   -0.018575
    90  C   -0.036198
    91  C    0.142900
    92  O   -0.194958
    93  H    0.127604
    94  H    0.024942
    95  H    0.006006
    96  H    0.014659
    97  H   -0.024909
    98  H   -0.031917
    99  H   -0.019806
   100  H   -0.046556
   101  H    0.177647
   102  N   -0.123360
   103  C    0.213032
   104  C    0.021201
   105  O   -0.265406
   106  C   -0.107292
   107  C    0.017679
   108  C    0.077029
   109  C    0.031702
   110  H    0.129922
   111  H   -0.004932
   112  H   -0.012853
   113  H    0.014392
   114  H   -0.049891
   115  H    0.018585
   116  H   -0.012509
   117  H   -0.016397
   118  H   -0.001565
   119  H    0.004779
   120  H    0.012855
   121  N   -0.161863
   122  C    0.142101
   123  C    0.056526
   124  O   -0.281675
   125  C    0.213526
   126  O   -0.315974
   127  H    0.145057
   128  H    0.014134
   129  H    0.011470
   130  H   -0.000957
   131  H    0.169503
   132  N   -0.143074
   133  C    0.047235
   134  C    0.060468
   135  O   -0.280923
   136  C    0.089702
   137  H    0.127270
   138  H    0.015459
   139  H    0.000658
   140  H    0.038213
   141  H    0.002355
   142  N   -0.137674
   143  C    0.064079
   144  C    0.093619
   145  O   -0.269930
   146  C    0.053455
   147  H    0.160374
   148  H    0.000766
   149  H   -0.016152
   150  H    0.036028
   151  H    0.034665
   152  N   -0.143805
   153  C    0.128865
   154  C    0.055865
   155  O   -0.293823
   156  C   -0.038084
   157  C    0.145934
   158  C    0.091637
   159  O   -0.414327
   160  O   -0.454028
   161  H    0.129782
   162  H    0.002300
   163  H    0.041326
   164  H    0.017898
   165  H   -0.042529
   166  H   -0.024346
   167  N   -0.117611
   168  C    0.142351
   169  H    0.018112
   170  H    0.025742
   171  H    0.028532
   172  H    0.110830
   173  Ca   1.350016
   174  O   -0.311212
   175  H    0.199463
   176  H    0.185944
 Sum of Mulliken charges =  -0.00000

 Dipole moment (field-independent basis, Debye):
    X=             12.9201    Y=             -9.1716    Z=            -12.8168  Tot=             20.3794
 Quadrupole moment (field-independent basis, Debye-Ang):
   XX=           -158.7943   YY=           -605.8404   ZZ=           -504.2172
   XY=           -345.5236   XZ=            -61.9907   YZ=            -21.7936

 ESP charges:
               1
     1  C   -0.434655
     2  C    0.755434
     3  O   -0.590443
     4  H    0.096160
     5  H    0.108481
     6  H    0.111615
     7  N   -0.713142
     8  C    0.590995
     9  C    0.214864
    10  O   -0.511691
    11  C   -0.264474
    12  C    0.703983
    13  O   -0.677365
    14  O   -0.703154
    15  H    0.299985
    16  H   -0.083217
    17  H    0.074642
    18  H    0.014478
    19  N   -0.195204
    20  C   -0.247592
    21  C    0.723749
    22  O   -0.581437
    23  C    0.145446
    24  C   -0.068891
    25  C   -0.095959
    26  C    0.125972
    27  N   -0.339105
    28  H    0.198843
    29  H    0.130138
    30  H   -0.027488
    31  H    0.041760
    32  H    0.038455
    33  H    0.058499
    34  H    0.044373
    35  H    0.035116
    36  H    0.073547
    37  H    0.054259
    38  H    0.317367
    39  H    0.288468
    40  H    0.298045
    41  N   -0.718874
    42  C    0.351488
    43  C    0.457613
    44  O   -0.516576
    45  C   -0.269986
    46  C    0.729669
    47  O   -0.677927
    48  O   -0.813419
    49  H    0.395368
    50  H   -0.001231
    51  H    0.074058
    52  H    0.098829
    53  N   -0.375619
    54  C    0.027106
    55  C    0.758705
    56  O   -0.586545
    57  H    0.239874
    58  H    0.027700
    59  H    0.071351
    60  N   -0.719618
    61  C    0.047208
    62  C    0.660279
    63  O   -0.548481
    64  C   -0.246996
    65  C    0.843072
    66  N   -0.802953
    67  O   -0.666398
    68  H    0.318019
    69  H    0.078495
    70  H    0.111484
    71  H    0.116119
    72  H    0.358206
    73  H    0.409566
    74  N   -0.464152
    75  C   -0.200135
    76  C    0.682530
    77  O   -0.524679
    78  H    0.329316
    79  H    0.101038
    80  H    0.141842
    81  N   -0.716823
    82  C    0.191368
    83  C    0.635817
    84  O   -0.534551
    85  C   -0.372407
    86  C    0.290186
    87  C   -0.309672
    88  C   -0.217314
    89  C   -0.131337
    90  C   -0.253699
    91  C    0.281516
    92  O   -0.533394
    93  H    0.359332
    94  H    0.067410
    95  H    0.144038
    96  H    0.096613
    97  H    0.177999
    98  H    0.145790
    99  H    0.129106
   100  H    0.127155
   101  H    0.419373
   102  N   -0.714318
   103  C    0.051639
   104  C    0.634028
   105  O   -0.543736
   106  C    0.214635
   107  C    0.237582
   108  C   -0.205266
   109  C   -0.313067
   110  H    0.391623
   111  H    0.028601
   112  H   -0.044062
   113  H    0.000777
   114  H   -0.127501
   115  H    0.008735
   116  H    0.075057
   117  H    0.004819
   118  H    0.082462
   119  H    0.067397
   120  H    0.050204
   121  N   -0.241689
   122  C   -0.366455
   123  C    0.788675
   124  O   -0.577770
   125  C    0.157818
   126  O   -0.616660
   127  H    0.253852
   128  H    0.150757
   129  H    0.043020
   130  H    0.058926
   131  H    0.425991
   132  N   -0.527169
   133  C    0.382061
   134  C    0.392391
   135  O   -0.541023
   136  C   -0.399460
   137  H    0.235388
   138  H    0.029541
   139  H    0.099526
   140  H    0.130055
   141  H    0.075291
   142  N   -0.303115
   143  C    0.487977
   144  C    0.386568
   145  O   -0.451484
   146  C   -0.228441
   147  H    0.030340
   148  H   -0.067901
   149  H    0.012551
   150  H    0.083488
   151  H    0.081974
   152  N   -0.446546
   153  C   -0.314253
   154  C    0.412028
   155  O   -0.511646
   156  C    0.311100
   157  C   -0.039504
   158  C    0.680824
   159  O   -0.726835
   160  O   -0.781781
   161  H    0.309391
   162  H    0.167154
   163  H   -0.021593
   164  H   -0.002392
   165  H   -0.015237
   166  H   -0.005176
   167  N   -0.050612
   168  C   -0.243526
   169  H    0.107626
   170  H    0.098620
   171  H    0.102568
   172  H    0.120690
   173  Ca   1.644492
   174  O   -0.842323
   175  H    0.416650
   176  H    0.442938
 Sum of ESP charges =   0.00000

 Normal termination of Gaussian 16 at Tue Sep 17 10:18:24 2019.
