 Gaussian 16, Revision A.03,
 Gaussian 16:  ES64L-G16RevA.03 25-Dec-2016

 ----------------------------------------------------------------------
 #b3lyp/svp scf=(tight,noincore) Test #IOP(5/87=12) Density=Current Pop
 =(MK,readradii) iop(6/33=2) iop(6/42=6)
 ----------------------------------------------------------------------

 -----------------
 Ng-293_loop3_61.0
 -----------------
 Symbolic Z-matrix:
 Charge =  0 Multiplicity = 1

                         Standard orientation:
 ---------------------------------------------------------------------
 Center     Atomic      Atomic             Coordinates (Angstroms)
 Number     Number       Type             X           Y           Z
 ---------------------------------------------------------------------
      1          6           0       -8.129133   -3.030823    6.326346
      2          6           0       -8.471307   -2.678427    4.885050
      3          8           0       -9.566341   -2.190948    4.633525
      4          1           0       -7.491075   -3.914128    6.342297
      5          1           0       -7.604764   -2.195826    6.790319
      6          1           0       -9.046419   -3.236573    6.878020
      7          7           0       -7.676561   -3.053716    3.875131
      8          6           0       -8.078028   -3.173222    2.494608
      9          6           0       -8.123509   -1.780480    1.874929
     10          8           0       -7.555839   -0.767702    2.269682
     11          6           0       -7.168342   -4.201932    1.834588
     12          6           0       -7.749145   -4.610943    0.484486
     13          8           0       -7.109754   -4.664074   -0.584418
     14          8           0       -8.926911   -5.031102    0.472857
     15          1           0       -6.719869   -3.334734    4.082663
     16          1           0       -9.104328   -3.531211    2.550752
     17          1           0       -7.001334   -5.014682    2.530035
     18          1           0       -6.239271   -3.647875    1.660955
     19          7           0       -8.846726   -1.714729    0.761720
     20          6           0       -9.113810   -0.606504   -0.121289
     21          6           0       -7.867797    0.059478   -0.691307
     22          8           0       -8.043864    0.942273   -1.529623
     23          6           0       -9.994271    0.394724    0.626996
     24          6           0      -11.347367   -0.274648    0.865469
     25          6           0      -12.219733   -0.505378   -0.365442
     26          6           0      -13.598377   -0.988397    0.052809
     27          7           0      -14.585811   -1.069203   -1.037807
     28          1           0       -9.292496   -2.560298    0.425118
     29          1           0       -9.636029   -1.022108   -0.975081
     30          1           0      -10.127250    1.300080    0.027289
     31          1           0       -9.490242    0.611011    1.564106
     32          1           0      -11.959006    0.322470    1.551871
     33          1           0      -11.169191   -1.227969    1.363900
     34          1           0      -11.786335   -1.323124   -0.938029
     35          1           0      -12.306775    0.457425   -0.874101
     36          1           0      -13.929585   -0.440214    0.943818
     37          1           0      -13.383058   -2.003626    0.384844
     38          1           0      -15.394234   -1.558908   -0.677887
     39          1           0      -14.898328   -0.193131   -1.426306
     40          1           0      -14.222683   -1.643961   -1.776584
     41          7           0       -6.629350   -0.379775   -0.437130
     42          6           0       -5.436299   -0.111127   -1.211892
     43          6           0       -4.498129   -1.310588   -1.287589
     44          8           0       -4.498168   -2.212784   -0.452519
     45          6           0       -4.689901    1.134116   -0.720098
     46          6           0       -3.600455    1.628760   -1.660967
     47          8           0       -3.663919    1.441279   -2.889064
     48          8           0       -2.695352    2.315591   -1.142938
     49          1           0       -6.545901   -0.969169    0.375920
     50          1           0       -5.817009    0.207362   -2.177409
     51          1           0       -4.293284    0.914029    0.273057
     52          1           0       -5.553481    1.781569   -0.559996
     53          7           0       -3.639643   -1.381353   -2.307636
     54          6           0       -2.735624   -2.491062   -2.545747
     55          6           0       -1.485062   -1.798567   -3.089756
     56          8           0       -1.532689   -0.837783   -3.845484
     57          1           0       -3.513300   -0.602394   -2.943057
     58          1           0       -3.112305   -3.115506   -3.362068
     59          1           0       -2.505839   -3.019794   -1.624041
     60          7           0       -0.348089   -2.172454   -2.496123
     61          6           0        0.903981   -1.511090   -2.781814
     62          6           0        2.036390   -2.428361   -3.221434
     63          8           0        3.156158   -1.930178   -3.302263
     64          6           0        1.239383   -0.627256   -1.584424
     65          6           0        0.309040    0.574619   -1.485641
     66          7           0       -0.509330    0.625710   -0.429488
     67          8           0        0.221057    1.502525   -2.289227
     68          1           0       -0.343005   -2.979872   -1.889287
     69          1           0        0.774670   -0.867299   -3.649979
     70          1           0        2.178927   -0.099677   -1.767503
     71          1           0        1.274284   -1.256431   -0.703106
     72          1           0       -0.501197   -0.217337    0.132389
     73          1           0       -1.205460    1.355873   -0.421437
     74          7           0        1.785645   -3.732094   -3.359665
     75          6           0        2.850455   -4.715079   -3.435950
     76          6           0        3.738307   -4.744232   -2.200447
     77          8           0        3.171333   -4.691840   -1.112699
     78          1           0        0.824141   -4.029457   -3.422794
     79          1           0        3.476286   -4.505171   -4.293840
     80          1           0        2.386558   -5.689144   -3.623020
     81          7           0        5.070133   -4.644594   -2.315832
     82          6           0        6.064387   -4.477385   -1.279879
     83          6           0        6.102428   -3.182781   -0.483793
     84          8           0        7.193920   -2.715490   -0.170609
     85          6           0        5.923514   -5.661812   -0.328571
     86          6           0        7.116757   -5.997687    0.527910
     87          6           0        8.348252   -6.209856   -0.105655
     88          6           0        6.945606   -6.073027    1.915004
     89          6           0        9.504521   -6.408819    0.675407
     90          6           0        8.079968   -6.429247    2.667952
     91          6           0        9.356232   -6.440690    2.071865
     92          8           0       10.394594   -6.997300    2.761350
     93          1           0        5.492759   -4.683672   -3.230414
     94          1           0        7.001220   -4.505442   -1.845791
     95          1           0        5.444160   -6.483656   -0.864194
     96          1           0        5.093635   -5.354736    0.314861
     97          1           0        8.477478   -6.244942   -1.176761
     98          1           0        5.969252   -6.009278    2.347635
     99          1           0       10.461424   -6.681472    0.266879
    100          1           0        7.941540   -6.641073    3.711679
    101          1           0       10.280116   -7.003509    3.710485
    102          7           0        4.951469   -2.524728   -0.322671
    103          6           0        4.685808   -1.352215    0.489508
    104          6           0        5.257203   -0.075052   -0.127957
    105          8           0        4.435943    0.769362   -0.483622
    106          6           0        4.956914   -1.541418    1.976822
    107          6           0        4.107621   -2.709448    2.477828
    108          6           0        4.384931   -0.380057    2.777058
    109          6           0        4.428456   -3.285128    3.854403
    110          1           0        4.167686   -3.019345   -0.715658
    111          1           0        3.615885   -1.260691    0.348838
    112          1           0        6.019790   -1.730875    2.130120
    113          1           0        4.160807   -3.517703    1.742917
    114          1           0        3.047490   -2.489287    2.484998
    115          1           0        4.908701    0.527199    2.487313
    116          1           0        3.359112   -0.081376    2.517474
    117          1           0        4.551867   -0.466944    3.851480
    118          1           0        5.508866   -3.362106    3.955343
    119          1           0        4.173613   -2.633920    4.700089
    120          1           0        4.014198   -4.284829    3.900097
    121          7           0        6.579425    0.108411   -0.192537
    122          6           0        7.334471    1.231766   -0.704571
    123          6           0        7.120912    2.461291    0.174953
    124          8           0        7.171550    3.548064   -0.380348
    125          6           0        8.817025    0.870892   -0.822910
    126          8           0        8.858476   -0.244472   -1.673348
    127          1           0        7.135405   -0.735099   -0.175879
    128          1           0        6.951844    1.453830   -1.698343
    129          1           0        9.220762    0.536582    0.127791
    130          1           0        9.388235    1.708028   -1.234034
    131          1           0        8.544636    0.037486   -2.536427
    132          7           0        6.762653    2.258123    1.448245
    133          6           0        6.168170    3.246209    2.317542
    134          6           0        5.244869    4.259873    1.649560
    135          8           0        5.424747    5.466576    1.653021
    136          6           0        7.265436    3.722966    3.277547
    137          1           0        6.957089    1.366671    1.865387
    138          1           0        5.454456    2.730968    2.959912
    139          1           0        7.695262    2.864523    3.789040
    140          1           0        8.038838    4.245077    2.713853
    141          1           0        6.876217    4.308150    4.106382
    142          7           0        4.214305    3.671581    1.033810
    143          6           0        3.316878    4.380312    0.137693
    144          6           0        2.454915    5.286960    1.002220
    145          8           0        1.927573    4.890572    2.036815
    146          6           0        2.451010    3.385731   -0.638698
    147          1           0        4.164974    2.662049    1.056446
    148          1           0        3.875940    5.010347   -0.563881
    149          1           0        3.084491    2.875049   -1.363201
    150          1           0        2.004129    2.582111   -0.056639
    151          1           0        1.657513    3.939591   -1.133674
    152          7           0        2.177896    6.463297    0.436011
    153          6           0        1.084521    7.333039    0.798059
    154          6           0        1.056623    7.689214    2.277741
    155          8           0        0.131138    7.330870    2.997162
    156          6           0       -0.278379    6.855863    0.296354
    157          6           0       -0.222144    6.791107   -1.227734
    158          6           0       -1.611093    6.447426   -1.730233
    159          8           0       -1.728551    5.275133   -2.152644
    160          8           0       -2.526240    7.307067   -1.735108
    161          1           0        2.686214    6.591797   -0.429842
    162          1           0        1.276678    8.319365    0.374222
    163          1           0       -1.023780    7.578293    0.620811
    164          1           0       -0.484122    5.860824    0.708381
    165          1           0        0.574517    6.150387   -1.586775
    166          1           0       -0.027389    7.718743   -1.780601
    167          7           0        1.999837    8.431078    2.863732
    168          6           0        2.217735    8.398964    4.296348
    169          1           0        2.917611    7.599107    4.538626
    170          1           0        2.629807    9.353562    4.623447
    171          1           0        1.270642    8.218524    4.804367
    172          1           0        2.712250    8.813663    2.252998
    173         20           0       -1.642868    3.063884   -3.566269
    174          8           0        0.801114    3.953800   -3.647492
    175          1           0        1.549338    3.373918   -3.775551
    176          1           0        1.124706    4.818396   -3.912562
 ---------------------------------------------------------------------

 SCF Done:  E(RB3LYP) =  -5333.37086477     A.U. after   28 cycles

 The electronic state is 1-A.
 Alpha  occ. eigenvalues -- -145.44645 -19.19958 -19.16135 -19.14271 -19.13373
 Alpha  occ. eigenvalues --  -19.12974 -19.12492 -19.12030 -19.11580 -19.10879
 Alpha  occ. eigenvalues --  -19.09286 -19.08282 -19.07447 -19.06572 -19.06497
 Alpha  occ. eigenvalues --  -19.06376 -19.06075 -19.05844 -19.04928 -19.03733
 Alpha  occ. eigenvalues --  -19.01559 -18.99000 -18.96361 -18.96070 -15.50472
 Alpha  occ. eigenvalues --  -14.56961 -14.39822 -14.39522 -14.38932 -14.36430
 Alpha  occ. eigenvalues --  -14.35574 -14.35415 -14.34844 -14.32636 -14.32577
 Alpha  occ. eigenvalues --  -14.32563 -14.31859 -14.31183 -14.30884 -14.30830
 Alpha  occ. eigenvalues --  -12.64074 -12.64055 -12.64004 -10.32864 -10.32452
 Alpha  occ. eigenvalues --  -10.31676 -10.30729 -10.30471 -10.29987 -10.29331
 Alpha  occ. eigenvalues --  -10.28022 -10.27354 -10.26196 -10.26131 -10.26094
 Alpha  occ. eigenvalues --  -10.25814 -10.25463 -10.25453 -10.25163 -10.25066
 Alpha  occ. eigenvalues --  -10.25056 -10.24691 -10.24372 -10.24286 -10.24176
 Alpha  occ. eigenvalues --  -10.23466 -10.23162 -10.23060 -10.22581 -10.21922
 Alpha  occ. eigenvalues --  -10.21881 -10.21114 -10.21000 -10.20437 -10.20183
 Alpha  occ. eigenvalues --  -10.20003 -10.19952 -10.19909 -10.19904 -10.19654
 Alpha  occ. eigenvalues --  -10.19648 -10.19616 -10.19433 -10.18869 -10.18489
 Alpha  occ. eigenvalues --  -10.18244 -10.18219 -10.18207 -10.18170 -10.17353
 Alpha  occ. eigenvalues --  -10.16603 -10.16414 -10.16391 -10.15617 -10.13444
 Alpha  occ. eigenvalues --  -10.12673 -10.12362  -1.87024  -1.14389  -1.14202
 Alpha  occ. eigenvalues --   -1.13948  -1.12230  -1.07279  -1.06250  -1.05782
 Alpha  occ. eigenvalues --   -1.05530  -1.04973  -1.04695  -1.04470  -1.03851
 Alpha  occ. eigenvalues --   -1.03000  -1.02473  -1.02417  -1.00465  -1.00414
 Alpha  occ. eigenvalues --   -0.99864  -0.98980  -0.98974  -0.98149  -0.97565
 Alpha  occ. eigenvalues --   -0.96640  -0.96231  -0.95122  -0.94270  -0.93852
 Alpha  occ. eigenvalues --   -0.93399  -0.92164  -0.92051  -0.91537  -0.90139
 Alpha  occ. eigenvalues --   -0.89782  -0.89532  -0.89390  -0.89367  -0.87998
 Alpha  occ. eigenvalues --   -0.87548  -0.87021  -0.86438  -0.85674  -0.84588
 Alpha  occ. eigenvalues --   -0.83053  -0.81559  -0.80691  -0.80430  -0.79280
 Alpha  occ. eigenvalues --   -0.78286  -0.77281  -0.76612  -0.75958  -0.75389
 Alpha  occ. eigenvalues --   -0.75182  -0.74597  -0.74554  -0.73651  -0.73330
 Alpha  occ. eigenvalues --   -0.72776  -0.72650  -0.71451  -0.71290  -0.70712
 Alpha  occ. eigenvalues --   -0.69364  -0.68932  -0.68780  -0.67716  -0.66795
 Alpha  occ. eigenvalues --   -0.66508  -0.65653  -0.65251  -0.64573  -0.63953
 Alpha  occ. eigenvalues --   -0.63624  -0.63040  -0.62862  -0.62688  -0.62026
 Alpha  occ. eigenvalues --   -0.61850  -0.61097  -0.60814  -0.60205  -0.59934
 Alpha  occ. eigenvalues --   -0.59462  -0.59400  -0.59175  -0.58930  -0.58393
 Alpha  occ. eigenvalues --   -0.57427  -0.57282  -0.56978  -0.56540  -0.56072
 Alpha  occ. eigenvalues --   -0.56037  -0.55560  -0.55320  -0.55291  -0.55175
 Alpha  occ. eigenvalues --   -0.54874  -0.54761  -0.54140  -0.54075  -0.53765
 Alpha  occ. eigenvalues --   -0.53026  -0.53012  -0.52539  -0.52310  -0.51630
 Alpha  occ. eigenvalues --   -0.51602  -0.51016  -0.50661  -0.49900  -0.49360
 Alpha  occ. eigenvalues --   -0.49269  -0.48947  -0.48813  -0.48537  -0.48438
 Alpha  occ. eigenvalues --   -0.48397  -0.48136  -0.47869  -0.47682  -0.47453
 Alpha  occ. eigenvalues --   -0.47037  -0.46898  -0.46869  -0.46417  -0.46333
 Alpha  occ. eigenvalues --   -0.46046  -0.45953  -0.45703  -0.45380  -0.45026
 Alpha  occ. eigenvalues --   -0.44963  -0.44881  -0.44839  -0.44725  -0.44571
 Alpha  occ. eigenvalues --   -0.44155  -0.44048  -0.43841  -0.43632  -0.43616
 Alpha  occ. eigenvalues --   -0.43494  -0.43396  -0.43075  -0.42956  -0.42736
 Alpha  occ. eigenvalues --   -0.42647  -0.42594  -0.42495  -0.42356  -0.42303
 Alpha  occ. eigenvalues --   -0.42025  -0.41899  -0.41530  -0.41509  -0.41437
 Alpha  occ. eigenvalues --   -0.41315  -0.41091  -0.40909  -0.40760  -0.40600
 Alpha  occ. eigenvalues --   -0.40540  -0.40291  -0.40224  -0.40096  -0.39820
 Alpha  occ. eigenvalues --   -0.39673  -0.39482  -0.39203  -0.39035  -0.38769
 Alpha  occ. eigenvalues --   -0.38616  -0.38480  -0.38394  -0.38316  -0.38251
 Alpha  occ. eigenvalues --   -0.38029  -0.37941  -0.37728  -0.37661  -0.37520
 Alpha  occ. eigenvalues --   -0.37447  -0.37175  -0.37052  -0.37026  -0.36991
 Alpha  occ. eigenvalues --   -0.36812  -0.36743  -0.36672  -0.36227  -0.36154
 Alpha  occ. eigenvalues --   -0.36039  -0.35571  -0.35491  -0.35383  -0.35267
 Alpha  occ. eigenvalues --   -0.35211  -0.35012  -0.34685  -0.34666  -0.34315
 Alpha  occ. eigenvalues --   -0.34213  -0.33781  -0.33723  -0.33440  -0.33203
 Alpha  occ. eigenvalues --   -0.32955  -0.32649  -0.32561  -0.32345  -0.32230
 Alpha  occ. eigenvalues --   -0.31780  -0.31348  -0.31246  -0.31239  -0.30806
 Alpha  occ. eigenvalues --   -0.30604  -0.30336  -0.29773  -0.29192  -0.28905
 Alpha  occ. eigenvalues --   -0.28891  -0.28851  -0.28661  -0.28390  -0.28281
 Alpha  occ. eigenvalues --   -0.27712  -0.27592  -0.27439  -0.27389  -0.27068
 Alpha  occ. eigenvalues --   -0.26346  -0.26272  -0.25819  -0.25110  -0.25094
 Alpha  occ. eigenvalues --   -0.24297  -0.24232  -0.24018  -0.23572  -0.23297
 Alpha  occ. eigenvalues --   -0.23093  -0.23039  -0.22891  -0.22708  -0.22676
 Alpha  occ. eigenvalues --   -0.21632  -0.21377  -0.21350  -0.20982  -0.20699
 Alpha  occ. eigenvalues --   -0.20585  -0.19762  -0.17829  -0.17231  -0.15321
 Alpha  occ. eigenvalues --   -0.14820  -0.13825  -0.10671
 Alpha virt. eigenvalues --   -0.09315  -0.07617  -0.03794  -0.03057  -0.02808
 Alpha virt. eigenvalues --   -0.02532  -0.01890  -0.01158  -0.00565  -0.00399
 Alpha virt. eigenvalues --    0.00000   0.00451   0.00560   0.00877   0.01087

 Mulliken charges:
               1
     1  C    0.060563
     2  C    0.026192
     3  O   -0.312225
     4  H    0.000091
     5  H    0.032873
     6  H    0.026709
     7  N   -0.123780
     8  C    0.054197
     9  C    0.085497
    10  O   -0.295790
    11  C    0.142511
    12  C   -0.016756
    13  O   -0.330922
    14  O   -0.408663
    15  H    0.108390
    16  H   -0.005411
    17  H   -0.005278
    18  H   -0.015455
    19  N   -0.138290
    20  C    0.066273
    21  C    0.084535
    22  O   -0.317794
    23  C    0.114481
    24  C   -0.020833
    25  C   -0.021301
    26  C   -0.012415
    27  N    0.127979
    28  H    0.120611
    29  H    0.008496
    30  H    0.004552
    31  H    0.040670
    32  H   -0.001361
    33  H    0.026426
    34  H    0.034200
    35  H    0.022681
    36  H    0.073448
    37  H    0.073787
    38  H    0.160772
    39  H    0.164639
    40  H    0.164769
    41  N   -0.100562
    42  C    0.080923
    43  C    0.087704
    44  O   -0.266884
    45  C    0.103746
    46  C    0.133816
    47  O   -0.440592
    48  O   -0.393171
    49  H    0.134209
    50  H    0.009036
    51  H    0.001295
    52  H    0.046348
    53  N   -0.181710
    54  C    0.283488
    55  C    0.013785
    56  O   -0.295156
    57  H    0.141694
    58  H    0.029491
    59  H    0.020705
    60  N   -0.164078
    61  C    0.085320
    62  C    0.067845
    63  O   -0.274506
    64  C    0.113406
    65  C    0.039552
    66  N   -0.021651
    67  O   -0.374114
    68  H    0.126479
    69  H    0.032980
    70  H    0.055997
    71  H    0.004368
    72  H    0.114070
    73  H    0.158460
    74  N   -0.124247
    75  C    0.249478
    76  C    0.042709
    77  O   -0.312451
    78  H    0.120581
    79  H   -0.000081
    80  H    0.036073
    81  N   -0.108553
    82  C    0.052331
    83  C    0.092297
    84  O   -0.281119
    85  C    0.115121
    86  C    0.004302
    87  C    0.023139
    88  C    0.013494
    89  C   -0.025752
    90  C   -0.054883
    91  C    0.190681
    92  O   -0.217287
    93  H    0.126654
    94  H    0.018869
    95  H    0.004565
    96  H    0.010715
    97  H   -0.033630
    98  H   -0.030992
    99  H   -0.015542
   100  H   -0.035611
   101  H    0.172650
   102  N   -0.124276
   103  C    0.183526
   104  C    0.078949
   105  O   -0.285102
   106  C   -0.078631
   107  C   -0.005578
   108  C    0.094928
   109  C    0.050868
   110  H    0.133883
   111  H   -0.036538
   112  H    0.004667
   113  H   -0.021707
   114  H   -0.018038
   115  H   -0.046605
   116  H    0.021230
   117  H    0.015961
   118  H   -0.006074
   119  H    0.015694
   120  H    0.016357
   121  N   -0.126841
   122  C    0.026281
   123  C    0.066077
   124  O   -0.256928
   125  C    0.277736
   126  O   -0.303137
   127  H    0.135887
   128  H    0.004508
   129  H    0.002920
   130  H    0.025888
   131  H    0.159306
   132  N   -0.136988
   133  C    0.035222
   134  C    0.091837
   135  O   -0.253308
   136  C    0.089573
   137  H    0.124199
   138  H    0.023368
   139  H   -0.019901
   140  H    0.032755
   141  H    0.012901
   142  N   -0.123283
   143  C    0.065855
   144  C    0.072274
   145  O   -0.271182
   146  C    0.038334
   147  H    0.127279
   148  H   -0.015681
   149  H    0.018367
   150  H    0.019652
   151  H    0.031726
   152  N   -0.113044
   153  C    0.096960
   154  C    0.063126
   155  O   -0.271079
   156  C    0.083157
   157  C    0.072315
   158  C    0.111659
   159  O   -0.485001
   160  O   -0.359076
   161  H    0.108860
   162  H   -0.021662
   163  H    0.017171
   164  H    0.036898
   165  H   -0.103939
   166  H   -0.038011
   167  N   -0.147826
   168  C    0.137026
   169  H    0.023326
   170  H   -0.001223
   171  H    0.045963
   172  H    0.098582
   173  Ca   1.382616
   174  O   -0.283319
   175  H    0.184282
   176  H    0.189160
 Sum of Mulliken charges =  -0.00000

 Dipole moment (field-independent basis, Debye):
    X=            -10.8067    Y=            -11.7066    Z=            -16.0757  Tot=             22.6331
 Quadrupole moment (field-independent basis, Debye-Ang):
   XX=            -70.1828   YY=           -687.8587   ZZ=           -478.8222
   XY=            -39.1892   XZ=             67.8313   YZ=            -24.3548

 ESP charges:
               1
     1  C   -0.409227
     2  C    0.777484
     3  O   -0.614655
     4  H    0.085560
     5  H    0.104336
     6  H    0.118352
     7  N   -0.717494
     8  C    0.386498
     9  C    0.559757
    10  O   -0.541611
    11  C   -0.429068
    12  C    0.784920
    13  O   -0.672696
    14  O   -0.736716
    15  H    0.324075
    16  H    0.003652
    17  H    0.133023
    18  H    0.056273
    19  N   -0.588289
    20  C    0.086721
    21  C    0.659578
    22  O   -0.587285
    23  C   -0.380240
    24  C    0.333082
    25  C   -0.282426
    26  C    0.191789
    27  N   -0.372965
    28  H    0.306337
    29  H    0.050848
    30  H    0.095757
    31  H    0.169706
    32  H   -0.038226
    33  H   -0.036379
    34  H    0.112660
    35  H    0.068309
    36  H    0.036182
    37  H    0.049889
    38  H    0.287921
    39  H    0.319808
    40  H    0.303458
    41  N   -0.553004
    42  C    0.297861
    43  C    0.331006
    44  O   -0.475848
    45  C   -0.227578
    46  C    0.664207
    47  O   -0.718239
    48  O   -0.651514
    49  H    0.303763
    50  H    0.015978
    51  H    0.064896
    52  H    0.120705
    53  N   -0.182711
    54  C   -0.074323
    55  C    0.557111
    56  O   -0.513884
    57  H    0.155002
    58  H    0.075750
    59  H    0.084240
    60  N   -0.646681
    61  C    0.230615
    62  C    0.471501
    63  O   -0.510590
    64  C   -0.222946
    65  C    0.624179
    66  N   -0.719740
    67  O   -0.598206
    68  H    0.325752
    69  H    0.044681
    70  H    0.073613
    71  H    0.101801
    72  H    0.347519
    73  H    0.388270
    74  N   -0.336319
    75  C   -0.182342
    76  C    0.718505
    77  O   -0.584355
    78  H    0.274695
    79  H    0.082327
    80  H    0.131453
    81  N   -0.857178
    82  C    0.614767
    83  C    0.287755
    84  O   -0.544151
    85  C   -0.368267
    86  C    0.190911
    87  C   -0.305082
    88  C   -0.205324
    89  C   -0.090008
    90  C   -0.194786
    91  C    0.240595
    92  O   -0.530374
    93  H    0.385925
    94  H   -0.014987
    95  H    0.108163
    96  H    0.125809
    97  H    0.158272
    98  H    0.146661
    99  H    0.134711
   100  H    0.122362
   101  H    0.404792
   102  N   -0.329892
   103  C   -0.336919
   104  C    0.670368
   105  O   -0.495674
   106  C    0.275489
   107  C    0.336553
   108  C   -0.565350
   109  C   -0.346914
   110  H    0.349385
   111  H    0.089614
   112  H    0.000591
   113  H   -0.096170
   114  H   -0.044553
   115  H    0.146357
   116  H    0.134386
   117  H    0.145745
   118  H    0.053841
   119  H    0.076811
   120  H    0.083978
   121  N   -0.490529
   122  C   -0.215444
   123  C    0.477657
   124  O   -0.484401
   125  C    0.188796
   126  O   -0.592911
   127  H    0.436665
   128  H    0.140912
   129  H    0.072154
   130  H    0.045567
   131  H    0.402224
   132  N   -0.371345
   133  C    0.297408
   134  C    0.598649
   135  O   -0.550841
   136  C   -0.442579
   137  H    0.215175
   138  H   -0.007701
   139  H    0.106010
   140  H    0.118045
   141  H    0.117181
   142  N   -0.604711
   143  C    0.142688
   144  C    0.576086
   145  O   -0.497559
   146  C   -0.215224
   147  H    0.288233
   148  H    0.057239
   149  H    0.072196
   150  H    0.090102
   151  H    0.054877
   152  N   -0.502498
   153  C    0.093127
   154  C    0.466655
   155  O   -0.500138
   156  C   -0.067039
   157  C    0.086225
   158  C    0.744011
   159  O   -0.871149
   160  O   -0.662574
   161  H    0.258412
   162  H    0.023609
   163  H    0.033633
   164  H    0.075954
   165  H   -0.031371
   166  H   -0.073680
   167  N   -0.391381
   168  C    0.012307
   169  H    0.057245
   170  H    0.021951
   171  H    0.072572
   172  H    0.258933
   173  Ca   1.637726
   174  O   -0.869042
   175  H    0.425178
   176  H    0.432655
 Sum of ESP charges =   0.00000

 Normal termination of Gaussian 16 at Tue Sep 17 12:57:31 2019.
