 Gaussian 16, Revision A.03,
 Gaussian 16:  ES64L-G16RevA.03 25-Dec-2016

 ----------------------------------------------------------------------
 #b3lyp/svp scf=(tight,noincore) Test #IOP(5/87=12) Density=Current Pop
 =(MK,readradii) iop(6/33=2) iop(6/42=6)
 ----------------------------------------------------------------------

 -----------------
 Ng-295_loop3_40.0
 -----------------
 Symbolic Z-matrix:
 Charge =  0 Multiplicity = 1

                         Standard orientation:
 ---------------------------------------------------------------------
 Center     Atomic      Atomic             Coordinates (Angstroms)
 Number     Number       Type             X           Y           Z
 ---------------------------------------------------------------------
      1          6           0      -10.933307    4.845186    3.425359
      2          6           0      -10.199006    4.092896    2.330205
      3          8           0      -10.147788    4.592107    1.211694
      4          1           0      -10.435360    4.674068    4.379565
      5          1           0      -10.928904    5.911794    3.200235
      6          1           0      -11.961991    4.489683    3.483859
      7          7           0       -9.711368    2.892672    2.665124
      8          6           0       -8.932845    2.114314    1.709845
      9          6           0       -9.903686    1.552069    0.683031
     10          8           0      -10.790476    0.810410    1.118286
     11          6           0       -8.178644    1.056941    2.506866
     12          6           0       -6.976136    0.558312    1.725621
     13          8           0       -6.991765    0.132025    0.551553
     14          8           0       -5.805342    0.719122    2.132540
     15          1           0       -9.830507    2.460597    3.565967
     16          1           0       -8.197853    2.750006    1.226334
     17          1           0       -8.781491    0.187596    2.772789
     18          1           0       -7.770678    1.563913    3.380332
     19          7           0       -9.656969    1.774338   -0.603953
     20          6           0      -10.503532    1.173414   -1.609349
     21          6           0      -10.058486   -0.198655   -2.108009
     22          8           0      -10.858335   -1.125315   -2.165822
     23          6           0      -10.691100    2.145458   -2.780864
     24          6           0      -11.344744    3.487450   -2.442773
     25          6           0      -12.626900    3.266853   -1.653146
     26          6           0      -12.979616    4.681702   -1.211450
     27          7           0      -13.819173    4.750621   -0.006629
     28          1           0       -8.870254    2.351731   -0.885905
     29          1           0      -11.457896    0.987907   -1.136298
     30          1           0      -11.381018    1.621225   -3.436145
     31          1           0       -9.763399    2.304903   -3.309683
     32          1           0      -11.467550    4.180506   -3.279966
     33          1           0      -10.659364    4.111040   -1.871205
     34          1           0      -12.436632    2.677530   -0.758609
     35          1           0      -13.445688    2.904928   -2.276039
     36          1           0      -13.566455    5.184484   -1.978150
     37          1           0      -12.078260    5.235752   -0.963484
     38          1           0      -13.483898    4.249081    0.802660
     39          1           0      -14.041455    5.694647    0.275338
     40          1           0      -14.693046    4.298968   -0.238479
     41          7           0       -8.754238   -0.297678   -2.375090
     42          6           0       -8.185093   -1.542987   -2.879351
     43          6           0       -8.100977   -2.566567   -1.756227
     44          8           0       -8.166549   -3.761889   -1.998312
     45          6           0       -6.784453   -1.259803   -3.412376
     46          6           0       -5.844334   -0.484966   -2.486362
     47          8           0       -6.055882    0.723183   -2.237920
     48          8           0       -4.969968   -1.116698   -1.856046
     49          1           0       -8.176185    0.515724   -2.224654
     50          1           0       -8.803418   -1.916247   -3.691417
     51          1           0       -6.830608   -0.743532   -4.373955
     52          1           0       -6.268816   -2.183243   -3.673868
     53          7           0       -7.859391   -2.105667   -0.523463
     54          6           0       -7.872413   -2.925210    0.672690
     55          6           0       -6.569107   -3.563584    1.122546
     56          8           0       -6.413586   -4.237492    2.135986
     57          1           0       -7.618813   -1.126773   -0.427088
     58          1           0       -8.635299   -3.691994    0.535043
     59          1           0       -8.145891   -2.378781    1.570201
     60          7           0       -5.564431   -3.375969    0.258644
     61          6           0       -4.181788   -3.741885    0.455375
     62          6           0       -3.419343   -2.688303    1.253588
     63          8           0       -3.926831   -1.588580    1.435974
     64          6           0       -3.563886   -3.930356   -0.921133
     65          6           0       -2.125084   -4.412543   -0.826026
     66          7           0       -1.900265   -5.647247   -0.363680
     67          8           0       -1.125323   -3.721014   -1.017509
     68          1           0       -5.664609   -2.719375   -0.509568
     69          1           0       -4.266276   -4.659332    1.030313
     70          1           0       -3.529480   -3.003334   -1.496326
     71          1           0       -4.187099   -4.686118   -1.410448
     72          1           0       -2.697031   -6.238000   -0.178271
     73          1           0       -0.969736   -6.025722   -0.470322
     74          7           0       -2.296004   -2.999170    1.896448
     75          6           0       -1.630085   -2.153368    2.870189
     76          6           0       -0.111586   -2.317287    2.792804
     77          8           0        0.600657   -1.724305    3.606120
     78          1           0       -1.942940   -3.925002    1.710217
     79          1           0       -2.090337   -2.394415    3.821539
     80          1           0       -1.865330   -1.112706    2.659517
     81          7           0        0.476162   -2.915366    1.762001
     82          6           0        1.903320   -2.976514    1.522459
     83          6           0        2.462438   -1.806930    0.726494
     84          8           0        1.860459   -1.441947   -0.280585
     85          6           0        2.236666   -4.359724    0.974820
     86          6           0        3.726693   -4.570197    0.819833
     87          6           0        4.440561   -4.156185   -0.310294
     88          6           0        4.400694   -5.407272    1.719015
     89          6           0        5.833675   -4.319070   -0.428632
     90          6           0        5.784769   -5.530589    1.724582
     91          6           0        6.486168   -4.940007    0.654184
     92          8           0        7.836330   -5.138095    0.590765
     93          1           0       -0.097780   -3.212219    0.984460
     94          1           0        2.465034   -2.927456    2.455717
     95          1           0        1.844702   -4.442179   -0.041923
     96          1           0        1.809211   -5.115624    1.641827
     97          1           0        3.937956   -3.811178   -1.192369
     98          1           0        3.832125   -5.980744    2.441758
     99          1           0        6.334421   -3.895140   -1.289350
    100          1           0        6.260834   -6.218116    2.408226
    101          1           0        8.224253   -5.670142    1.286927
    102          7           0        3.583891   -1.234761    1.172776
    103          6           0        4.318316   -0.178263    0.523367
    104          6           0        4.954370   -0.562766   -0.798901
    105          8           0        4.296037   -1.012873   -1.737038
    106          6           0        3.662337    1.196345    0.583734
    107          6           0        4.553180    2.310692    0.013618
    108          6           0        3.400183    1.493467    2.053187
    109          6           0        4.300647    2.663625   -1.450781
    110          1           0        3.874883   -1.652699    2.053827
    111          1           0        5.192245   -0.153670    1.178915
    112          1           0        2.747934    1.097640   -0.003483
    113          1           0        5.589621    2.011364    0.117020
    114          1           0        4.414433    3.289387    0.485110
    115          1           0        2.715578    0.742989    2.447900
    116          1           0        4.372852    1.424444    2.545682
    117          1           0        2.988131    2.495409    2.172878
    118          1           0        5.008294    3.399180   -1.833397
    119          1           0        4.243231    1.812721   -2.126699
    120          1           0        3.428194    3.274466   -1.672368
    121          7           0        6.263565   -0.329661   -0.938442
    122          6           0        7.045483   -0.709190   -2.094280
    123          6           0        8.384158   -1.331371   -1.708352
    124          8           0        8.939798   -2.151862   -2.431581
    125          6           0        7.265576    0.491193   -2.991798
    126          8           0        7.774852    1.636991   -2.341579
    127          1           0        6.759601   -0.062668   -0.098940
    128          1           0        6.446014   -1.497029   -2.569198
    129          1           0        6.365564    0.739846   -3.558147
    130          1           0        8.016047    0.239797   -3.747770
    131          1           0        7.534461    2.402192   -2.865772
    132          7           0        8.952585   -0.938682   -0.562321
    133          6           0       10.214969   -1.338269    0.028624
    134          6           0       11.499341   -1.042381   -0.721935
    135          8           0       12.307262   -1.940630   -0.971763
    136          6           0       10.104778   -2.789816    0.497845
    137          1           0        8.469761   -0.212771   -0.044889
    138          1           0       10.332985   -0.687708    0.887543
    139          1           0        9.163021   -2.949634    1.028178
    140          1           0       10.295577   -3.453723   -0.337513
    141          1           0       10.815972   -2.870092    1.334002
    142          7           0       11.776868    0.155752   -1.219083
    143          6           0       11.023136    1.392841   -1.241377
    144          6           0       11.722100    2.429485   -0.376207
    145          8           0       12.949644    2.531517   -0.381386
    146          6           0       10.981811    1.763908   -2.721986
    147          1           0       12.661879    0.165794   -1.718639
    148          1           0       10.002913    1.214023   -0.915695
    149          1           0       12.019825    1.700885   -3.074059
    150          1           0       10.275118    1.124497   -3.231141
    151          1           0       10.563057    2.765644   -2.862593
    152          7           0       11.009659    3.246099    0.409456
    153          6           0        9.579448    3.423537    0.517213
    154          6           0        9.174186    3.671346    1.966955
    155          8           0        8.144182    3.130312    2.376926
    156          6           0        9.203808    4.555794   -0.445590
    157          6           0        7.753249    4.962743   -0.272181
    158          6           0        7.357803    6.204882   -1.061682
    159          8           0        7.610128    7.299434   -0.497776
    160          8           0        6.819930    6.108465   -2.181458
    161          1           0       11.545494    3.881262    0.982561
    162          1           0        8.895222    2.645187    0.182389
    163          1           0        9.385351    4.256038   -1.475390
    164          1           0        9.790174    5.446562   -0.199000
    165          1           0        7.485407    5.104034    0.776102
    166          1           0        7.119025    4.123580   -0.554076
    167          7           0        9.868393    4.553848    2.684078
    168          6           0        9.574956    4.873027    4.066728
    169          1           0       10.268177    4.339771    4.717189
    170          1           0        9.683591    5.946664    4.222975
    171          1           0        8.553762    4.572855    4.300752
    172          1           0       10.733498    4.890450    2.278131
    173         20           0       -4.491047    0.722476   -0.069318
    174          8           0       -2.407239    1.535015    1.179892
    175          1           0       -1.514718    1.278173    0.948508
    176          1           0       -2.310970    2.039445    1.999149
 ---------------------------------------------------------------------

 SCF Done:  E(RB3LYP) =  -5333.40212970     A.U. after   51 cycles

 The electronic state is 1-A.
 Alpha  occ. eigenvalues -- -145.45889 -19.24614 -19.15538 -19.15017 -19.13472
 Alpha  occ. eigenvalues --  -19.13344 -19.12421 -19.12375 -19.12177 -19.11930
 Alpha  occ. eigenvalues --  -19.11264 -19.10653 -19.09838 -19.09798 -19.09278
 Alpha  occ. eigenvalues --  -19.08466 -19.07971 -19.07925 -19.07730 -19.06999
 Alpha  occ. eigenvalues --  -19.06226 -19.05327 -18.96315 -18.95948 -15.51787
 Alpha  occ. eigenvalues --  -14.56374 -14.40859 -14.40112 -14.38882 -14.37928
 Alpha  occ. eigenvalues --  -14.36587 -14.36258 -14.35299 -14.34923 -14.34725
 Alpha  occ. eigenvalues --  -14.34666 -14.34170 -14.33580 -14.33193 -14.31780
 Alpha  occ. eigenvalues --  -12.65402 -12.65355 -12.65299 -10.34088 -10.34057
 Alpha  occ. eigenvalues --  -10.31972 -10.31543 -10.31050 -10.30926 -10.30355
 Alpha  occ. eigenvalues --  -10.29705 -10.29670 -10.27983 -10.27940 -10.27890
 Alpha  occ. eigenvalues --  -10.27281 -10.27024 -10.26925 -10.26920 -10.26241
 Alpha  occ. eigenvalues --  -10.25871 -10.25821 -10.25796 -10.25553 -10.25440
 Alpha  occ. eigenvalues --  -10.24942 -10.24768 -10.24746 -10.24587 -10.24037
 Alpha  occ. eigenvalues --  -10.23297 -10.23177 -10.22677 -10.22376 -10.22356
 Alpha  occ. eigenvalues --  -10.22190 -10.22093 -10.21804 -10.20909 -10.20834
 Alpha  occ. eigenvalues --  -10.20545 -10.20102 -10.19629 -10.18861 -10.18562
 Alpha  occ. eigenvalues --  -10.18371 -10.18237 -10.17975 -10.17477 -10.16243
 Alpha  occ. eigenvalues --  -10.16068 -10.15576 -10.15409 -10.15144 -10.14005
 Alpha  occ. eigenvalues --  -10.13745 -10.09775  -1.88586  -1.16185  -1.15928
 Alpha  occ. eigenvalues --   -1.15661  -1.12215  -1.10005  -1.08380  -1.07152
 Alpha  occ. eigenvalues --   -1.06937  -1.06823  -1.06227  -1.05099  -1.04124
 Alpha  occ. eigenvalues --   -1.03636  -1.03485  -1.02362  -1.02022  -1.01561
 Alpha  occ. eigenvalues --   -1.01305  -1.00496  -1.00239  -1.00168  -0.99578
 Alpha  occ. eigenvalues --   -0.98718  -0.97735  -0.96806  -0.96646  -0.95521
 Alpha  occ. eigenvalues --   -0.94200  -0.93790  -0.92856  -0.92347  -0.92188
 Alpha  occ. eigenvalues --   -0.92065  -0.91883  -0.90677  -0.90378  -0.90183
 Alpha  occ. eigenvalues --   -0.90165  -0.89779  -0.89127  -0.88577  -0.84649
 Alpha  occ. eigenvalues --   -0.84034  -0.82627  -0.81196  -0.80637  -0.80528
 Alpha  occ. eigenvalues --   -0.79914  -0.78835  -0.77973  -0.77052  -0.76890
 Alpha  occ. eigenvalues --   -0.76090  -0.75183  -0.74486  -0.73864  -0.73630
 Alpha  occ. eigenvalues --   -0.73523  -0.73308  -0.72838  -0.71135  -0.71022
 Alpha  occ. eigenvalues --   -0.70600  -0.69908  -0.69567  -0.69373  -0.68870
 Alpha  occ. eigenvalues --   -0.67530  -0.66276  -0.65430  -0.65202  -0.64802
 Alpha  occ. eigenvalues --   -0.64650  -0.63804  -0.63421  -0.63241  -0.63048
 Alpha  occ. eigenvalues --   -0.62526  -0.61811  -0.61494  -0.61423  -0.61037
 Alpha  occ. eigenvalues --   -0.60495  -0.60047  -0.59656  -0.59308  -0.58737
 Alpha  occ. eigenvalues --   -0.58576  -0.58299  -0.58082  -0.57796  -0.57629
 Alpha  occ. eigenvalues --   -0.57579  -0.57167  -0.56984  -0.56773  -0.56482
 Alpha  occ. eigenvalues --   -0.55774  -0.55728  -0.55656  -0.55201  -0.54802
 Alpha  occ. eigenvalues --   -0.54338  -0.54321  -0.54021  -0.53216  -0.53091
 Alpha  occ. eigenvalues --   -0.52516  -0.52205  -0.51840  -0.51527  -0.51294
 Alpha  occ. eigenvalues --   -0.51237  -0.51211  -0.50625  -0.50435  -0.50298
 Alpha  occ. eigenvalues --   -0.49964  -0.49881  -0.49604  -0.49482  -0.48958
 Alpha  occ. eigenvalues --   -0.48521  -0.48406  -0.48223  -0.48046  -0.47878
 Alpha  occ. eigenvalues --   -0.47623  -0.47273  -0.47209  -0.47021  -0.46608
 Alpha  occ. eigenvalues --   -0.46442  -0.46255  -0.46006  -0.45930  -0.45842
 Alpha  occ. eigenvalues --   -0.45716  -0.45711  -0.45522  -0.45348  -0.45163
 Alpha  occ. eigenvalues --   -0.44818  -0.44684  -0.44601  -0.44279  -0.44204
 Alpha  occ. eigenvalues --   -0.44028  -0.43868  -0.43774  -0.43278  -0.43222
 Alpha  occ. eigenvalues --   -0.43128  -0.43034  -0.42910  -0.42786  -0.42761
 Alpha  occ. eigenvalues --   -0.42304  -0.42270  -0.42016  -0.41956  -0.41883
 Alpha  occ. eigenvalues --   -0.41649  -0.41501  -0.41490  -0.41116  -0.40957
 Alpha  occ. eigenvalues --   -0.40894  -0.40638  -0.40467  -0.40382  -0.40313
 Alpha  occ. eigenvalues --   -0.40282  -0.40122  -0.40003  -0.39747  -0.39603
 Alpha  occ. eigenvalues --   -0.39487  -0.39360  -0.39300  -0.39162  -0.38942
 Alpha  occ. eigenvalues --   -0.38896  -0.38662  -0.38592  -0.38347  -0.38090
 Alpha  occ. eigenvalues --   -0.37929  -0.37735  -0.37497  -0.37468  -0.37363
 Alpha  occ. eigenvalues --   -0.37068  -0.36606  -0.36429  -0.36257  -0.35978
 Alpha  occ. eigenvalues --   -0.35631  -0.35573  -0.35274  -0.35189  -0.34996
 Alpha  occ. eigenvalues --   -0.34766  -0.34574  -0.34087  -0.33953  -0.33654
 Alpha  occ. eigenvalues --   -0.33318  -0.33083  -0.32902  -0.32831  -0.32783
 Alpha  occ. eigenvalues --   -0.32413  -0.32149  -0.32036  -0.31618  -0.31497
 Alpha  occ. eigenvalues --   -0.31013  -0.30820  -0.30779  -0.30499  -0.30044
 Alpha  occ. eigenvalues --   -0.29898  -0.29577  -0.29522  -0.29305  -0.28922
 Alpha  occ. eigenvalues --   -0.28853  -0.28609  -0.28154  -0.27939  -0.27841
 Alpha  occ. eigenvalues --   -0.27402  -0.27233  -0.26686  -0.26465  -0.26381
 Alpha  occ. eigenvalues --   -0.26341  -0.26238  -0.26193  -0.25916  -0.25662
 Alpha  occ. eigenvalues --   -0.25132  -0.24983  -0.24931  -0.24410  -0.24003
 Alpha  occ. eigenvalues --   -0.23740  -0.23689  -0.23461  -0.23061  -0.22878
 Alpha  occ. eigenvalues --   -0.21966  -0.21478  -0.21389  -0.21189  -0.21134
 Alpha  occ. eigenvalues --   -0.13356  -0.13016  -0.10781
 Alpha virt. eigenvalues --   -0.10288  -0.08744  -0.04724  -0.03535  -0.03333
 Alpha virt. eigenvalues --   -0.02561  -0.02136  -0.02013  -0.01366  -0.01342
 Alpha virt. eigenvalues --   -0.00982  -0.00528  -0.00073   0.00398   0.00561

 Mulliken charges:
               1
     1  C    0.046277
     2  C    0.031316
     3  O   -0.310873
     4  H    0.029163
     5  H    0.033613
     6  H    0.016850
     7  N   -0.116406
     8  C    0.074980
     9  C    0.092367
    10  O   -0.291453
    11  C    0.146411
    12  C    0.083833
    13  O   -0.440339
    14  O   -0.426287
    15  H    0.133271
    16  H   -0.014976
    17  H    0.042838
    18  H    0.009391
    19  N   -0.104248
    20  C    0.062495
    21  C    0.084080
    22  O   -0.246796
    23  C    0.090549
    24  C    0.002466
    25  C   -0.021222
    26  C    0.038320
    27  N    0.132008
    28  H    0.131442
    29  H    0.009667
    30  H    0.011656
    31  H    0.003395
    32  H    0.010239
    33  H    0.005693
    34  H    0.048414
    35  H    0.035820
    36  H    0.046785
    37  H    0.063828
    38  H    0.137065
    39  H    0.121038
    40  H    0.118296
    41  N   -0.152748
    42  C    0.122324
    43  C    0.060996
    44  O   -0.262271
    45  C    0.125093
    46  C    0.110606
    47  O   -0.432207
    48  O   -0.420134
    49  H    0.115138
    50  H    0.015912
    51  H    0.015032
    52  H    0.018531
    53  N   -0.200585
    54  C    0.228242
    55  C    0.030869
    56  O   -0.284560
    57  H    0.154461
    58  H    0.042418
    59  H    0.017768
    60  N   -0.149873
    61  C    0.059829
    62  C    0.108320
    63  O   -0.330195
    64  C    0.125398
    65  C   -0.052283
    66  N   -0.056487
    67  O   -0.250622
    68  H    0.149446
    69  H    0.014227
    70  H    0.039973
    71  H    0.039417
    72  H    0.119779
    73  H    0.142495
    74  N   -0.159763
    75  C    0.253789
    76  C    0.004916
    77  O   -0.296885
    78  H    0.123265
    79  H    0.048761
    80  H    0.020318
    81  N   -0.124667
    82  C    0.161191
    83  C    0.053341
    84  O   -0.259559
    85  C    0.155715
    86  C   -0.089312
    87  C    0.001550
    88  C   -0.023827
    89  C   -0.031996
    90  C   -0.031736
    91  C    0.173280
    92  O   -0.199135
    93  H    0.129839
    94  H   -0.025328
    95  H    0.014319
    96  H   -0.014906
    97  H    0.004786
    98  H   -0.035575
    99  H   -0.001449
   100  H   -0.037026
   101  H    0.174620
   102  N   -0.132766
   103  C    0.148459
   104  C    0.086001
   105  O   -0.265248
   106  C   -0.053653
   107  C    0.040099
   108  C    0.074036
   109  C   -0.018532
   110  H    0.131687
   111  H   -0.048560
   112  H    0.002174
   113  H   -0.008094
   114  H    0.017216
   115  H    0.000707
   116  H    0.003265
   117  H    0.003270
   118  H    0.019299
   119  H    0.016141
   120  H   -0.019078
   121  N   -0.141665
   122  C    0.095085
   123  C    0.068083
   124  O   -0.258934
   125  C    0.244212
   126  O   -0.318419
   127  H    0.122362
   128  H    0.037054
   129  H    0.016985
   130  H   -0.001298
   131  H    0.197283
   132  N   -0.138768
   133  C    0.011624
   134  C    0.050796
   135  O   -0.271093
   136  C    0.114705
   137  H    0.123152
   138  H    0.002080
   139  H   -0.021850
   140  H    0.060277
   141  H   -0.008778
   142  N   -0.088265
   143  C    0.049698
   144  C    0.074371
   145  O   -0.283876
   146  C    0.073053
   147  H    0.131241
   148  H   -0.020068
   149  H    0.018295
   150  H    0.020173
   151  H    0.008387
   152  N   -0.081335
   153  C    0.057837
   154  C    0.059533
   155  O   -0.289012
   156  C    0.065618
   157  C    0.040195
   158  C    0.058767
   159  O   -0.374585
   160  O   -0.366821
   161  H    0.102995
   162  H    0.010397
   163  H   -0.002063
   164  H   -0.020202
   165  H   -0.012499
   166  H   -0.045709
   167  N   -0.151403
   168  C    0.129220
   169  H    0.016398
   170  H    0.029575
   171  H    0.047285
   172  H    0.111500
   173  Ca   1.369195
   174  O   -0.326575
   175  H    0.215419
   176  H    0.220142
 Sum of Mulliken charges =  -0.00000

 Dipole moment (field-independent basis, Debye):
    X=            -60.4765    Y=              5.5214    Z=             10.3001  Tot=             61.5953
 Quadrupole moment (field-independent basis, Debye-Ang):
   XX=           -361.0677   YY=           -597.3892   ZZ=           -555.5461
   XY=           -373.8532   XZ=             74.4073   YZ=             17.6505

 ESP charges:
               1
     1  C   -0.437162
     2  C    0.790101
     3  O   -0.609389
     4  H    0.117623
     5  H    0.119946
     6  H    0.098059
     7  N   -0.715866
     8  C    0.383654
     9  C    0.496481
    10  O   -0.520118
    11  C   -0.424651
    12  C    0.956990
    13  O   -0.868108
    14  O   -0.812450
    15  H    0.368584
    16  H   -0.019938
    17  H    0.132564
    18  H    0.108697
    19  N   -0.635072
    20  C    0.360430
    21  C    0.436468
    22  O   -0.508002
    23  C   -0.378265
    24  C    0.208747
    25  C   -0.240870
    26  C    0.093340
    27  N   -0.216682
    28  H    0.338611
    29  H   -0.009251
    30  H    0.093864
    31  H    0.094944
    32  H   -0.006594
    33  H    0.020214
    34  H    0.120489
    35  H    0.096065
    36  H    0.059983
    37  H    0.044375
    38  H    0.244818
    39  H    0.233622
    40  H    0.226848
    41  N   -0.408475
    42  C   -0.008250
    43  C    0.414181
    44  O   -0.546941
    45  C   -0.253011
    46  C    0.805980
    47  O   -0.772740
    48  O   -0.783329
    49  H    0.293970
    50  H    0.133366
    51  H    0.080936
    52  H    0.102899
    53  N    0.130874
    54  C   -0.690995
    55  C    0.766441
    56  O   -0.582987
    57  H    0.165011
    58  H    0.228657
    59  H    0.206192
    60  N   -0.469710
    61  C    0.217451
    62  C    0.359642
    63  O   -0.466225
    64  C   -0.462384
    65  C    0.718788
    66  N   -0.789413
    67  O   -0.559918
    68  H    0.285034
    69  H    0.045357
    70  H    0.160405
    71  H    0.148357
    72  H    0.353374
    73  H    0.379787
    74  N   -0.241832
    75  C   -0.021697
    76  C    0.473862
    77  O   -0.567894
    78  H    0.176129
    79  H    0.101303
    80  H    0.054429
    81  N   -0.326536
    82  C    0.257268
    83  C    0.594698
    84  O   -0.534022
    85  C   -0.240008
    86  C   -0.020605
    87  C   -0.108211
    88  C   -0.058013
    89  C   -0.249041
    90  C   -0.388929
    91  C    0.397369
    92  O   -0.545086
    93  H    0.163064
    94  H    0.003267
    95  H    0.107125
    96  H    0.068080
    97  H    0.146424
    98  H    0.111432
    99  H    0.165967
   100  H    0.163808
   101  H    0.415482
   102  N   -0.645739
   103  C    0.050966
   104  C    0.623901
   105  O   -0.480341
   106  C    0.341117
   107  C   -0.328454
   108  C   -0.381709
   109  C   -0.130758
   110  H    0.328906
   111  H    0.080012
   112  H   -0.017071
   113  H    0.047398
   114  H    0.145469
   115  H    0.094791
   116  H    0.090309
   117  H    0.076151
   118  H    0.069553
   119  H    0.033270
   120  H    0.039678
   121  N   -0.546556
   122  C   -0.257947
   123  C    0.708812
   124  O   -0.537218
   125  C    0.152515
   126  O   -0.422892
   127  H    0.253131
   128  H    0.159622
   129  H    0.073921
   130  H    0.002251
   131  H    0.340423
   132  N   -0.472072
   133  C    0.306199
   134  C    0.562455
   135  O   -0.551140
   136  C   -0.407791
   137  H    0.256421
   138  H    0.005052
   139  H    0.103430
   140  H    0.143956
   141  H    0.073184
   142  N   -0.720327
   143  C    0.476887
   144  C    0.472848
   145  O   -0.552969
   146  C   -0.306370
   147  H    0.364443
   148  H    0.022197
   149  H    0.080470
   150  H    0.097066
   151  H    0.054509
   152  N   -0.468859
   153  C   -0.411361
   154  C    0.639076
   155  O   -0.555461
   156  C    0.069663
   157  C   -0.399688
   158  C    0.757087
   159  O   -0.666374
   160  O   -0.672826
   161  H    0.299735
   162  H    0.180306
   163  H    0.064438
   164  H    0.038440
   165  H    0.113432
   166  H    0.085634
   167  N   -0.321902
   168  C   -0.131680
   169  H    0.058911
   170  H    0.084793
   171  H    0.109344
   172  H    0.292832
   173  Ca   1.670015
   174  O   -0.874105
   175  H    0.457130
   176  H    0.466213
 Sum of ESP charges =  -0.00000

 Normal termination of Gaussian 16 at Wed Sep 18 11:25:15 2019.
