 Gaussian 16, Revision A.03,
 Gaussian 16:  ES64L-G16RevA.03 25-Dec-2016

 ----------------------------------------------------------------------
 #b3lyp/svp scf=(tight,noincore) Test #IOP(5/87=12) Density=Current Pop
 =(MK,readradii) iop(6/33=2) iop(6/42=6)
 ----------------------------------------------------------------------

 -----------------
 Ng-295_loop3_21.0
 -----------------
 Symbolic Z-matrix:
 Charge =  0 Multiplicity = 1

                         Standard orientation:
 ---------------------------------------------------------------------
 Center     Atomic      Atomic             Coordinates (Angstroms)
 Number     Number       Type             X           Y           Z
 ---------------------------------------------------------------------
      1          6           0        5.591543   -3.289077    6.538434
      2          6           0        4.934117   -3.054610    5.183622
      3          8           0        3.740241   -3.315368    5.045187
      4          1           0        4.842912   -3.196728    7.325970
      5          1           0        6.024285   -4.289205    6.564598
      6          1           0        6.376239   -2.548784    6.694844
      7          7           0        5.554784   -2.533091    4.129776
      8          6           0        4.975447   -2.422871    2.800746
      9          6           0        5.803463   -2.999587    1.667615
     10          8           0        7.014975   -2.839614    1.724618
     11          6           0        4.780091   -0.926162    2.545406
     12          6           0        4.044182   -0.630618    1.241684
     13          8           0        2.791877   -0.665061    1.253805
     14          8           0        4.676399   -0.524511    0.167839
     15          1           0        6.545826   -2.352857    4.203603
     16          1           0        4.007205   -2.910469    2.724220
     17          1           0        5.799372   -0.561752    2.595110
     18          1           0        4.302043   -0.485771    3.412197
     19          7           0        5.207318   -3.800767    0.764221
     20          6           0        5.844406   -4.531154   -0.302341
     21          6           0        6.614582   -3.649404   -1.287047
     22          8           0        7.603866   -4.123004   -1.833783
     23          6           0        4.827873   -5.515138   -0.871583
     24          6           0        5.433697   -6.623253   -1.720558
     25          6           0        4.351186   -7.572493   -2.209552
     26          6           0        5.047402   -8.787148   -2.833408
     27          7           0        4.124112   -9.827569   -3.301554
     28          1           0        4.210130   -3.948331    0.808270
     29          1           0        6.566811   -5.200012    0.162481
     30          1           0        4.112246   -4.991942   -1.512008
     31          1           0        4.237717   -6.032403   -0.118488
     32          1           0        6.139084   -7.180751   -1.113577
     33          1           0        6.074077   -6.255356   -2.527196
     34          1           0        3.638008   -6.970760   -2.769815
     35          1           0        3.743985   -7.850552   -1.349732
     36          1           0        5.820789   -9.204217   -2.193934
     37          1           0        5.450507   -8.423273   -3.778553
     38          1           0        3.539657   -9.559847   -4.084903
     39          1           0        4.685446  -10.611621   -3.602164
     40          1           0        3.593974  -10.267381   -2.562554
     41          7           0        6.276662   -2.395852   -1.584229
     42          6           0        7.070600   -1.377021   -2.232417
     43          6           0        7.691490   -0.324497   -1.325285
     44          8           0        8.380962    0.602205   -1.775233
     45          6           0        6.339740   -0.625426   -3.335661
     46          6           0        4.972621   -0.127949   -2.883110
     47          8           0        4.805649    1.024440   -2.405281
     48          8           0        3.992962   -0.899005   -2.898636
     49          1           0        5.377553   -2.095483   -1.222316
     50          1           0        7.816689   -1.934213   -2.798357
     51          1           0        6.335509   -1.289596   -4.207992
     52          1           0        6.911626    0.165261   -3.813427
     53          7           0        7.561704   -0.521006   -0.013554
     54          6           0        8.146764    0.407182    0.930412
     55          6           0        7.494127    1.778698    0.991333
     56          8           0        8.057050    2.654125    1.643363
     57          1           0        6.956403   -1.285012    0.255714
     58          1           0        9.225503    0.523137    0.839991
     59          1           0        8.086865    0.016404    1.947567
     60          7           0        6.391706    2.029245    0.270572
     61          6           0        5.618426    3.230999    0.452846
     62          6           0        4.275462    2.807314    1.047437
     63          8           0        3.538548    2.110034    0.349686
     64          6           0        5.563493    4.015285   -0.849029
     65          6           0        4.962080    5.402782   -0.730483
     66          7           0        5.217146    6.345143   -1.631592
     67          8           0        4.167934    5.581366    0.196631
     68          1           0        5.937984    1.255291   -0.196044
     69          1           0        6.131817    3.855151    1.180421
     70          1           0        5.089627    3.463905   -1.675305
     71          1           0        6.601651    4.121125   -1.167816
     72          1           0        5.818522    6.036530   -2.384258
     73          1           0        4.709661    7.220194   -1.680009
     74          7           0        3.798818    3.471947    2.102413
     75          6           0        2.669784    2.997500    2.874929
     76          6           0        1.308770    3.392096    2.312848
     77          8           0        0.367553    3.293264    3.097095
     78          1           0        4.373829    4.238747    2.407667
     79          1           0        2.855037    3.185099    3.935442
     80          1           0        2.755428    1.911450    2.862272
     81          7           0        1.162950    3.724726    1.029613
     82          6           0       -0.087334    3.603477    0.310871
     83          6           0       -0.503233    2.195107   -0.096709
     84          8           0        0.284485    1.442681   -0.678477
     85          6           0        0.031875    4.508593   -0.905129
     86          6           0        0.065829    5.997435   -0.624601
     87          6           0        1.284197    6.662296   -0.800491
     88          6           0       -1.109139    6.674011   -0.271054
     89          6           0        1.387839    8.028591   -0.499332
     90          6           0       -0.968211    8.045867   -0.028876
     91          6           0        0.270861    8.726736   -0.000279
     92          8           0        0.293172   10.044360    0.339821
     93          1           0        2.010750    3.823872    0.494911
     94          1           0       -0.851629    4.027152    0.959526
     95          1           0       -0.794913    4.495173   -1.618951
     96          1           0        0.833023    4.219076   -1.589045
     97          1           0        2.127208    6.120670   -1.208748
     98          1           0       -2.013838    6.096536   -0.209072
     99          1           0        2.314468    8.587857   -0.525432
    100          1           0       -1.827625    8.622102    0.301066
    101          1           0       -0.563761   10.451999    0.513017
    102          7           0       -1.751984    1.893171    0.248481
    103          6           0       -2.650046    0.779450   -0.032607
    104          6           0       -2.776288    0.448589   -1.508444
    105          8           0       -1.915007    0.667628   -2.355625
    106          6           0       -2.525800   -0.461090    0.830945
    107          6           0       -2.928366   -0.256203    2.292917
    108          6           0       -1.167023   -1.157194    0.734172
    109          6           0       -4.375571    0.062504    2.642380
    110          1           0       -2.212915    2.689543    0.661196
    111          1           0       -3.636056    1.178834    0.212498
    112          1           0       -3.327249   -1.091152    0.454778
    113          1           0       -2.366886    0.586750    2.703611
    114          1           0       -2.748061   -1.151045    2.868459
    115          1           0       -0.887583   -1.303602   -0.313529
    116          1           0       -0.352868   -0.537860    1.105491
    117          1           0       -1.157388   -2.084506    1.305574
    118          1           0       -4.736796    1.069504    2.437767
    119          1           0       -5.012089   -0.590495    2.047874
    120          1           0       -4.597155   -0.192063    3.676979
    121          7           0       -3.975666   -0.043740   -1.850213
    122          6           0       -4.439148   -0.404531   -3.174152
    123          6           0       -5.821891    0.111205   -3.524920
    124          8           0       -6.272281   -0.077855   -4.658236
    125          6           0       -4.189733   -1.886241   -3.429157
    126          8           0       -4.960948   -2.741574   -2.608771
    127          1           0       -4.595782   -0.322398   -1.105427
    128          1           0       -3.743056    0.109491   -3.848716
    129          1           0       -3.128131   -2.117710   -3.373280
    130          1           0       -4.409821   -2.060509   -4.486698
    131          1           0       -4.741955   -3.668591   -2.747629
    132          7           0       -6.640897    0.641431   -2.615970
    133          6           0       -8.051046    0.962930   -2.753148
    134          6           0       -9.025795    0.023046   -3.434236
    135          8           0       -9.211730    0.144485   -4.644062
    136          6           0       -8.058723    2.385028   -3.300395
    137          1           0       -6.249132    0.894232   -1.715463
    138          1           0       -8.510173    1.067993   -1.775465
    139          1           0       -7.536737    3.055046   -2.610535
    140          1           0       -7.594714    2.473279   -4.280501
    141          1           0       -9.073642    2.758026   -3.443965
    142          7           0       -9.602752   -0.980839   -2.766152
    143          6           0       -9.372899   -1.426348   -1.404833
    144          6           0      -10.594646   -1.330960   -0.506647
    145          8           0      -11.711987   -1.205098   -1.011234
    146          6           0       -8.910408   -2.852875   -1.697957
    147          1           0      -10.168799   -1.570400   -3.357598
    148          1           0       -8.609136   -0.833057   -0.901671
    149          1           0       -9.719479   -3.322934   -2.241877
    150          1           0       -8.058075   -2.934641   -2.377400
    151          1           0       -8.692432   -3.500053   -0.849754
    152          7           0      -10.478759   -1.552829    0.803714
    153          6           0       -9.281728   -1.503447    1.624432
    154          6           0       -9.217374   -0.239118    2.460810
    155          8           0       -8.188717    0.416788    2.591398
    156          6           0       -9.208905   -2.775575    2.464365
    157          6           0       -8.277233   -2.500404    3.637083
    158          6           0       -7.864698   -3.819593    4.295685
    159          8           0       -7.052998   -4.602544    3.761804
    160          8           0       -8.443817   -4.093166    5.363571
    161          1           0      -11.320381   -1.844452    1.264831
    162          1           0       -8.332474   -1.569648    1.102672
    163          1           0       -8.742064   -3.488098    1.778457
    164          1           0      -10.170603   -3.030337    2.900523
    165          1           0       -8.750617   -1.846064    4.372710
    166          1           0       -7.383598   -2.038775    3.224877
    167          7           0      -10.393082    0.087388    3.030112
    168          6           0      -10.717190    1.246161    3.824592
    169          1           0      -10.695144    2.135732    3.194889
    170          1           0      -11.713049    1.127875    4.250835
    171          1           0       -9.988292    1.352198    4.627681
    172          1           0      -11.109056   -0.623078    2.973365
    173         20           0        2.492203    0.280242   -1.148922
    174          8           0        1.966331   -2.366627   -1.125658
    175          1           0        2.084792   -2.813708   -1.971167
    176          1           0        1.977158   -3.081023   -0.485954
 ---------------------------------------------------------------------

 SCF Done:  E(RB3LYP) =  -5333.39792954     A.U. after   44 cycles

 The electronic state is 1-A.
 Alpha  occ. eigenvalues -- -145.39681 -19.19764 -19.16881 -19.14750 -19.14696
 Alpha  occ. eigenvalues --  -19.12846 -19.12511 -19.11901 -19.10439 -19.10277
 Alpha  occ. eigenvalues --  -19.09719 -19.08719 -19.08464 -19.08275 -19.08263
 Alpha  occ. eigenvalues --  -19.08101 -19.08011 -19.07276 -19.07263 -19.07190
 Alpha  occ. eigenvalues --  -19.06684 -19.06603 -18.97670 -18.97634 -15.45507
 Alpha  occ. eigenvalues --  -14.57227 -14.39697 -14.39435 -14.37599 -14.37157
 Alpha  occ. eigenvalues --  -14.37038 -14.36396 -14.36206 -14.36126 -14.35705
 Alpha  occ. eigenvalues --  -14.34474 -14.33922 -14.33811 -14.33233 -14.33229
 Alpha  occ. eigenvalues --  -12.59102 -12.59098 -12.59040 -10.35929 -10.32772
 Alpha  occ. eigenvalues --  -10.31248 -10.30778 -10.30345 -10.29825 -10.29670
 Alpha  occ. eigenvalues --  -10.28906 -10.28899 -10.28682 -10.28345 -10.27609
 Alpha  occ. eigenvalues --  -10.27460 -10.27174 -10.26480 -10.26386 -10.26286
 Alpha  occ. eigenvalues --  -10.26269 -10.26171 -10.26058 -10.25884 -10.25855
 Alpha  occ. eigenvalues --  -10.25803 -10.25668 -10.24961 -10.24891 -10.24689
 Alpha  occ. eigenvalues --  -10.24013 -10.23520 -10.23334 -10.23218 -10.22864
 Alpha  occ. eigenvalues --  -10.21357 -10.21207 -10.21123 -10.21028 -10.20907
 Alpha  occ. eigenvalues --  -10.20254 -10.20025 -10.19848 -10.19778 -10.19736
 Alpha  occ. eigenvalues --  -10.19595 -10.19508 -10.18839 -10.18426 -10.18170
 Alpha  occ. eigenvalues --  -10.17825 -10.17521 -10.16945 -10.16748 -10.16616
 Alpha  occ. eigenvalues --  -10.15786 -10.11523  -1.82377  -1.13165  -1.10007
 Alpha  occ. eigenvalues --   -1.09921  -1.09636  -1.06632  -1.06295  -1.05550
 Alpha  occ. eigenvalues --   -1.05424  -1.05280  -1.04830  -1.03966  -1.03383
 Alpha  occ. eigenvalues --   -1.03223  -1.02807  -1.02759  -1.02385  -1.02091
 Alpha  occ. eigenvalues --   -1.01969  -1.01562  -1.00843  -1.00474  -0.99919
 Alpha  occ. eigenvalues --   -0.99726  -0.96485  -0.96484  -0.94543  -0.94027
 Alpha  occ. eigenvalues --   -0.93211  -0.93044  -0.92432  -0.92119  -0.92037
 Alpha  occ. eigenvalues --   -0.91968  -0.91851  -0.91839  -0.90929  -0.90804
 Alpha  occ. eigenvalues --   -0.90720  -0.90372  -0.89789  -0.89210  -0.85733
 Alpha  occ. eigenvalues --   -0.84520  -0.83946  -0.82046  -0.80266  -0.80129
 Alpha  occ. eigenvalues --   -0.78951  -0.78404  -0.78054  -0.77415  -0.77171
 Alpha  occ. eigenvalues --   -0.76599  -0.75811  -0.75410  -0.74842  -0.74583
 Alpha  occ. eigenvalues --   -0.73397  -0.73107  -0.73099  -0.72460  -0.72062
 Alpha  occ. eigenvalues --   -0.71942  -0.70645  -0.69498  -0.67769  -0.67606
 Alpha  occ. eigenvalues --   -0.67314  -0.66788  -0.66567  -0.66392  -0.65882
 Alpha  occ. eigenvalues --   -0.65117  -0.65034  -0.63980  -0.63551  -0.63187
 Alpha  occ. eigenvalues --   -0.63039  -0.61522  -0.61252  -0.61164  -0.60858
 Alpha  occ. eigenvalues --   -0.60144  -0.59980  -0.59641  -0.59618  -0.59440
 Alpha  occ. eigenvalues --   -0.59315  -0.58501  -0.58091  -0.58028  -0.57799
 Alpha  occ. eigenvalues --   -0.57662  -0.57521  -0.57090  -0.56857  -0.56369
 Alpha  occ. eigenvalues --   -0.56292  -0.56175  -0.55957  -0.55630  -0.55383
 Alpha  occ. eigenvalues --   -0.54835  -0.53948  -0.53553  -0.52949  -0.52633
 Alpha  occ. eigenvalues --   -0.52507  -0.52243  -0.51935  -0.51486  -0.51449
 Alpha  occ. eigenvalues --   -0.50902  -0.50794  -0.50722  -0.50343  -0.50136
 Alpha  occ. eigenvalues --   -0.49994  -0.49391  -0.49282  -0.49006  -0.48629
 Alpha  occ. eigenvalues --   -0.48503  -0.48082  -0.47890  -0.47863  -0.47830
 Alpha  occ. eigenvalues --   -0.47513  -0.47064  -0.47019  -0.46597  -0.46193
 Alpha  occ. eigenvalues --   -0.46150  -0.46004  -0.45807  -0.45549  -0.45447
 Alpha  occ. eigenvalues --   -0.45203  -0.45190  -0.45075  -0.44852  -0.44717
 Alpha  occ. eigenvalues --   -0.44638  -0.44534  -0.44329  -0.44311  -0.44008
 Alpha  occ. eigenvalues --   -0.43949  -0.43764  -0.43681  -0.43510  -0.43352
 Alpha  occ. eigenvalues --   -0.43170  -0.43091  -0.42969  -0.42827  -0.42539
 Alpha  occ. eigenvalues --   -0.42466  -0.42266  -0.41986  -0.41785  -0.41669
 Alpha  occ. eigenvalues --   -0.41628  -0.41454  -0.41231  -0.41216  -0.41065
 Alpha  occ. eigenvalues --   -0.41028  -0.40794  -0.40752  -0.40732  -0.40570
 Alpha  occ. eigenvalues --   -0.40374  -0.40331  -0.40290  -0.39912  -0.39881
 Alpha  occ. eigenvalues --   -0.39663  -0.39576  -0.39057  -0.38723  -0.38573
 Alpha  occ. eigenvalues --   -0.38459  -0.38398  -0.38207  -0.38090  -0.37862
 Alpha  occ. eigenvalues --   -0.37811  -0.37652  -0.37538  -0.37355  -0.37199
 Alpha  occ. eigenvalues --   -0.37098  -0.36963  -0.36959  -0.36626  -0.36523
 Alpha  occ. eigenvalues --   -0.36457  -0.36313  -0.36076  -0.36052  -0.35645
 Alpha  occ. eigenvalues --   -0.35431  -0.35180  -0.35003  -0.34932  -0.34348
 Alpha  occ. eigenvalues --   -0.34302  -0.34218  -0.34021  -0.33972  -0.33801
 Alpha  occ. eigenvalues --   -0.33780  -0.33664  -0.32917  -0.32396  -0.32101
 Alpha  occ. eigenvalues --   -0.31969  -0.31204  -0.30691  -0.30581  -0.29734
 Alpha  occ. eigenvalues --   -0.29089  -0.29041  -0.28972  -0.28867  -0.28588
 Alpha  occ. eigenvalues --   -0.28496  -0.27959  -0.27691  -0.27364  -0.27041
 Alpha  occ. eigenvalues --   -0.26756  -0.26586  -0.26493  -0.26267  -0.26094
 Alpha  occ. eigenvalues --   -0.25909  -0.25832  -0.25769  -0.25625  -0.25234
 Alpha  occ. eigenvalues --   -0.24868  -0.24787  -0.24388  -0.24256  -0.24244
 Alpha  occ. eigenvalues --   -0.23974  -0.23954  -0.23634  -0.23277  -0.22902
 Alpha  occ. eigenvalues --   -0.22724  -0.22366  -0.22334  -0.22242  -0.22091
 Alpha  occ. eigenvalues --   -0.14814  -0.14631  -0.11908
 Alpha virt. eigenvalues --   -0.11224  -0.05002  -0.04333  -0.04103  -0.02856
 Alpha virt. eigenvalues --   -0.02554  -0.02264  -0.02108  -0.01614  -0.00989
 Alpha virt. eigenvalues --   -0.00711  -0.00521  -0.00246   0.00368   0.00481

 Mulliken charges:
               1
     1  C    0.078187
     2  C   -0.004790
     3  O   -0.297393
     4  H    0.045261
     5  H    0.038220
     6  H    0.009072
     7  N   -0.109280
     8  C    0.114978
     9  C    0.070044
    10  O   -0.285400
    11  C    0.147292
    12  C    0.110924
    13  O   -0.426337
    14  O   -0.430252
    15  H    0.115936
    16  H   -0.001503
    17  H   -0.029174
    18  H    0.003076
    19  N   -0.112646
    20  C    0.158766
    21  C    0.056133
    22  O   -0.284265
    23  C    0.010520
    24  C   -0.023319
    25  C   -0.010758
    26  C    0.065375
    27  N    0.164997
    28  H    0.113508
    29  H    0.015000
    30  H   -0.014300
    31  H    0.008856
    32  H    0.003967
    33  H    0.042119
    34  H    0.021861
    35  H    0.005079
    36  H    0.070351
    37  H    0.049271
    38  H    0.114093
    39  H    0.102056
    40  H    0.110384
    41  N   -0.139678
    42  C    0.105362
    43  C    0.056548
    44  O   -0.284338
    45  C    0.141089
    46  C    0.112123
    47  O   -0.403354
    48  O   -0.462099
    49  H    0.133121
    50  H    0.028327
    51  H   -0.029080
    52  H    0.014085
    53  N   -0.148483
    54  C    0.241548
    55  C    0.014725
    56  O   -0.300785
    57  H    0.155404
    58  H    0.027493
    59  H    0.016081
    60  N   -0.156568
    61  C    0.137818
    62  C    0.112036
    63  O   -0.391390
    64  C    0.088724
    65  C   -0.004513
    66  N   -0.018263
    67  O   -0.309064
    68  H    0.184459
    69  H   -0.010279
    70  H    0.055207
    71  H    0.025690
    72  H    0.126879
    73  H    0.136226
    74  N   -0.125561
    75  C    0.187275
    76  C    0.061482
    77  O   -0.283187
    78  H    0.137804
    79  H    0.030681
    80  H    0.053001
    81  N   -0.108752
    82  C    0.115303
    83  C    0.206655
    84  O   -0.402613
    85  C    0.074672
    86  C   -0.055007
    87  C    0.053324
    88  C    0.031546
    89  C   -0.036180
    90  C   -0.041252
    91  C    0.169155
    92  O   -0.200024
    93  H    0.142845
    94  H   -0.006161
    95  H    0.007870
    96  H   -0.006445
    97  H   -0.037062
    98  H   -0.041494
    99  H   -0.028806
   100  H   -0.041489
   101  H    0.182372
   102  N   -0.097597
   103  C    0.104911
   104  C    0.083964
   105  O   -0.258781
   106  C   -0.049467
   107  C    0.009578
   108  C    0.071166
   109  C    0.008305
   110  H    0.138880
   111  H   -0.011486
   112  H   -0.022392
   113  H    0.005614
   114  H    0.016466
   115  H   -0.014390
   116  H    0.034048
   117  H    0.014719
   118  H    0.005963
   119  H   -0.001576
   120  H    0.040276
   121  N   -0.171618
   122  C    0.115843
   123  C    0.075757
   124  O   -0.262610
   125  C    0.241071
   126  O   -0.315444
   127  H    0.127343
   128  H    0.036432
   129  H   -0.016080
   130  H    0.004325
   131  H    0.176350
   132  N   -0.125070
   133  C    0.051343
   134  C    0.062215
   135  O   -0.251940
   136  C    0.064333
   137  H    0.106066
   138  H    0.013173
   139  H   -0.015596
   140  H    0.037338
   141  H    0.008205
   142  N   -0.087956
   143  C    0.028567
   144  C    0.072780
   145  O   -0.264726
   146  C    0.044735
   147  H    0.127501
   148  H    0.020504
   149  H    0.000592
   150  H    0.026824
   151  H    0.019700
   152  N   -0.084156
   153  C    0.020258
   154  C    0.074853
   155  O   -0.266394
   156  C    0.038369
   157  C    0.047482
   158  C    0.059114
   159  O   -0.355918
   160  O   -0.338069
   161  H    0.121314
   162  H    0.011382
   163  H    0.014421
   164  H   -0.013737
   165  H   -0.014541
   166  H   -0.022211
   167  N   -0.159994
   168  C    0.137326
   169  H    0.022641
   170  H    0.018161
   171  H    0.036185
   172  H    0.103687
   173  Ca   1.331426
   174  O   -0.276326
   175  H    0.181199
   176  H    0.174461
 Sum of Mulliken charges =  -0.00000

 Dipole moment (field-independent basis, Debye):
    X=             23.9466    Y=            -18.0800    Z=            -17.1823  Tot=             34.5768
 Quadrupole moment (field-independent basis, Debye-Ang):
   XX=           -799.3765   YY=           -237.1311   ZZ=           -635.2326
   XY=           -227.8672   XZ=              3.6144   YZ=            161.5724

 ESP charges:
               1
     1  C   -0.446089
     2  C    0.730474
     3  O   -0.585731
     4  H    0.147964
     5  H    0.121716
     6  H    0.102228
     7  N   -0.589378
     8  C    0.045069
     9  C    0.613557
    10  O   -0.511571
    11  C   -0.153258
    12  C    0.813204
    13  O   -0.764606
    14  O   -0.718039
    15  H    0.323134
    16  H    0.081277
    17  H    0.025485
    18  H    0.097982
    19  N   -0.504097
    20  C    0.010106
    21  C    0.499486
    22  O   -0.566998
    23  C    0.038424
    24  C   -0.074828
    25  C    0.031245
    26  C   -0.004122
    27  N   -0.264652
    28  H    0.265374
    29  H    0.103929
    30  H    0.001975
    31  H    0.035208
    32  H    0.024111
    33  H    0.053417
    34  H    0.026656
    35  H    0.010873
    36  H    0.107051
    37  H    0.078839
    38  H    0.245062
    39  H    0.230872
    40  H    0.243801
    41  N   -0.228743
    42  C   -0.044759
    43  C    0.373774
    44  O   -0.512682
    45  C   -0.220384
    46  C    0.736361
    47  O   -0.709114
    48  O   -0.769835
    49  H    0.145850
    50  H    0.154425
    51  H    0.062900
    52  H    0.106635
    53  N   -0.077042
    54  C   -0.275428
    55  C    0.528911
    56  O   -0.563609
    57  H    0.112399
    58  H    0.153658
    59  H    0.123527
    60  N   -0.213717
    61  C    0.173211
    62  C    0.298189
    63  O   -0.566474
    64  C   -0.127374
    65  C    0.671168
    66  N   -0.835571
    67  O   -0.568581
    68  H    0.150821
    69  H    0.011780
    70  H    0.060829
    71  H    0.063902
    72  H    0.361283
    73  H    0.410731
    74  N   -0.342014
    75  C   -0.094936
    76  C    0.546476
    77  O   -0.544919
    78  H    0.309504
    79  H    0.114215
    80  H    0.098474
    81  N   -0.310014
    82  C   -0.120910
    83  C    0.652224
    84  O   -0.642235
    85  C   -0.204941
    86  C    0.101537
    87  C   -0.193191
    88  C   -0.055306
    89  C   -0.269320
    90  C   -0.390037
    91  C    0.455541
    92  O   -0.575465
    93  H    0.294414
    94  H    0.101608
    95  H    0.071649
    96  H    0.104429
    97  H    0.134179
    98  H    0.110564
    99  H    0.157201
   100  H    0.145933
   101  H    0.423080
   102  N   -0.456973
   103  C   -0.052498
   104  C    0.600499
   105  O   -0.494932
   106  C    0.287497
   107  C   -0.105881
   108  C   -0.513020
   109  C   -0.063581
   110  H    0.320016
   111  H    0.059595
   112  H    0.001723
   113  H    0.013660
   114  H    0.063985
   115  H    0.081279
   116  H    0.165939
   117  H    0.133302
   118  H    0.024519
   119  H   -0.003872
   120  H    0.063862
   121  N   -0.494813
   122  C   -0.101129
   123  C    0.546098
   124  O   -0.499761
   125  C    0.366489
   126  O   -0.659361
   127  H    0.277584
   128  H    0.099479
   129  H   -0.017398
   130  H   -0.024562
   131  H    0.412492
   132  N   -0.334641
   133  C    0.152507
   134  C    0.701188
   135  O   -0.543385
   136  C   -0.434960
   137  H    0.210736
   138  H    0.069431
   139  H    0.100355
   140  H    0.137474
   141  H    0.104328
   142  N   -0.856468
   143  C    0.546411
   144  C    0.586045
   145  O   -0.554863
   146  C   -0.338505
   147  H    0.393582
   148  H   -0.108149
   149  H    0.084008
   150  H    0.124746
   151  H    0.078011
   152  N   -0.750842
   153  C   -0.072940
   154  C    0.627804
   155  O   -0.577168
   156  C   -0.044499
   157  C   -0.189144
   158  C    0.682111
   159  O   -0.648384
   160  O   -0.627374
   161  H    0.384093
   162  H    0.139052
   163  H    0.058229
   164  H    0.047964
   165  H    0.041038
   166  H    0.036352
   167  N   -0.273053
   168  C   -0.263931
   169  H    0.106110
   170  H    0.115811
   171  H    0.122362
   172  H    0.263614
   173  Ca   1.641105
   174  O   -0.726298
   175  H    0.384389
   176  H    0.385580
 Sum of ESP charges =   0.00000

 Normal termination of Gaussian 16 at Tue Sep 17 23:57:14 2019.
