 Gaussian 16, Revision A.03,
 Gaussian 16:  ES64L-G16RevA.03 25-Dec-2016

 ----------------------------------------------------------------------
 #b3lyp/svp scf=(tight,noincore) Test #IOP(5/87=12) Density=Current Pop
 =(MK,readradii) iop(6/33=2) iop(6/42=6)
 ----------------------------------------------------------------------

 ----------------
 Ng-295_loop3_5.0
 ----------------
 Symbolic Z-matrix:
 Charge =  0 Multiplicity = 1

                         Standard orientation:
 ---------------------------------------------------------------------
 Center     Atomic      Atomic             Coordinates (Angstroms)
 Number     Number       Type             X           Y           Z
 ---------------------------------------------------------------------
      1          6           0        8.499986   -2.405390    5.633500
      2          6           0        7.388734   -2.729816    4.649646
      3          8           0        6.787476   -3.803270    4.759120
      4          1           0        8.085176   -1.861537    6.482222
      5          1           0        8.957417   -3.330682    5.984505
      6          1           0        9.253175   -1.790393    5.141981
      7          7           0        6.995018   -1.774336    3.801385
      8          6           0        6.044148   -2.053126    2.748284
      9          6           0        6.459384   -2.995380    1.624703
     10          8           0        7.625980   -3.057458    1.229987
     11          6           0        5.441368   -0.723333    2.306572
     12          6           0        4.206791   -0.849938    1.425953
     13          8           0        3.126036   -0.364658    1.826168
     14          8           0        4.467531   -1.053062    0.222269
     15          1           0        7.619771   -0.980734    3.749626
     16          1           0        5.180214   -2.452560    3.294335
     17          1           0        6.283606   -0.233512    1.798724
     18          1           0        5.202034   -0.165701    3.207164
     19          7           0        5.489685   -3.638580    0.978112
     20          6           0        5.771098   -4.556006   -0.112683
     21          6           0        6.279883   -3.831329   -1.342025
     22          8           0        7.379277   -4.164795   -1.805526
     23          6           0        4.519733   -5.320620   -0.529878
     24          6           0        4.543223   -6.595387   -1.371909
     25          6           0        5.092696   -7.814247   -0.633967
     26          6           0        5.152188   -9.052802   -1.533379
     27          7           0        3.915594   -9.450538   -2.229110
     28          1           0        4.543748   -3.530911    1.311743
     29          1           0        6.536321   -5.265122    0.198746
     30          1           0        3.828813   -4.576661   -0.936517
     31          1           0        4.095444   -5.648687    0.408499
     32          1           0        5.026248   -6.370371   -2.315813
     33          1           0        3.517968   -6.922346   -1.557516
     34          1           0        4.504427   -8.073266    0.241618
     35          1           0        6.092178   -7.514372   -0.343946
     36          1           0        5.411802   -9.810923   -0.796322
     37          1           0        6.031662   -8.963687   -2.171409
     38          1           0        4.013035  -10.403198   -2.537401
     39          1           0        3.151063   -9.367916   -1.581371
     40          1           0        3.785956   -8.846699   -3.032523
     41          7           0        5.546303   -2.830727   -1.848735
     42          6           0        5.905712   -1.962993   -2.954295
     43          6           0        6.793915   -0.796992   -2.536040
     44          8           0        7.459100   -0.136971   -3.340342
     45          6           0        4.717410   -1.476104   -3.781204
     46          6           0        3.674839   -0.917125   -2.829527
     47          8           0        3.787336    0.312420   -2.612126
     48          8           0        2.888022   -1.704027   -2.254805
     49          1           0        4.774106   -2.558799   -1.265840
     50          1           0        6.456425   -2.563770   -3.667585
     51          1           0        4.220217   -2.249278   -4.364985
     52          1           0        5.076142   -0.716726   -4.465862
     53          7           0        6.845559   -0.533463   -1.237662
     54          6           0        7.732530    0.404788   -0.566566
     55          6           0        7.163368    1.795048   -0.312926
     56          8           0        7.870230    2.681242    0.156549
     57          1           0        6.145347   -0.973719   -0.651251
     58          1           0        8.577777    0.548713   -1.233306
     59          1           0        8.193467    0.040850    0.352121
     60          7           0        5.933762    2.028564   -0.762745
     61          6           0        5.246874    3.252726   -0.400238
     62          6           0        4.142454    2.932258    0.586755
     63          8           0        3.459138    1.933938    0.359299
     64          6           0        4.699061    4.035067   -1.593864
     65          6           0        5.858213    4.686921   -2.333900
     66          7           0        6.213184    4.201046   -3.524455
     67          8           0        6.354106    5.737411   -1.922729
     68          1           0        5.423326    1.263883   -1.175201
     69          1           0        5.873046    3.896129    0.210452
     70          1           0        4.050204    4.829751   -1.232808
     71          1           0        4.264164    3.332766   -2.294248
     72          1           0        5.729340    3.354404   -3.790708
     73          1           0        6.811003    4.825295   -4.052022
     74          7           0        3.959363    3.676283    1.685575
     75          6           0        3.146384    3.237959    2.810669
     76          6           0        1.660362    3.105323    2.500435
     77          8           0        0.901684    2.467526    3.235706
     78          1           0        4.380055    4.585463    1.634494
     79          1           0        3.292190    3.924016    3.636603
     80          1           0        3.555563    2.285134    3.140515
     81          7           0        1.158043    3.793106    1.472607
     82          6           0       -0.220222    3.789212    1.028904
     83          6           0       -0.784788    2.387748    0.841119
     84          8           0        0.030327    1.566707    0.440520
     85          6           0       -0.403322    4.665475   -0.211231
     86          6           0       -0.079848    6.123029    0.005336
     87          6           0       -1.118925    6.896542    0.540404
     88          6           0        1.179537    6.675316   -0.201371
     89          6           0       -0.921618    8.261770    0.793822
     90          6           0        1.418985    8.040567    0.047132
     91          6           0        0.346952    8.808032    0.543763
     92          8           0        0.517455   10.122901    0.872318
     93          1           0        1.822994    4.200866    0.827881
     94          1           0       -0.861084    4.125542    1.842893
     95          1           0       -1.457952    4.626331   -0.484586
     96          1           0        0.223492    4.374532   -1.043731
     97          1           0       -2.025844    6.358130    0.778335
     98          1           0        1.968109    6.039932   -0.564196
     99          1           0       -1.660359    8.891841    1.278665
    100          1           0        2.409162    8.419565   -0.169457
    101          1           0        1.403444   10.474929    0.738901
    102          7           0       -2.080131    2.303370    1.168938
    103          6           0       -2.936377    1.167928    0.882383
    104          6           0       -3.040677    0.675474   -0.542963
    105          8           0       -2.180405    0.829776   -1.406342
    106          6           0       -2.726027   -0.002094    1.846179
    107          6           0       -2.500157    0.521668    3.256021
    108          6           0       -1.617446   -1.006256    1.519366
    109          6           0       -3.660044    1.387528    3.752658
    110          1           0       -2.468948    3.069034    1.704457
    111          1           0       -3.927784    1.554123    1.112306
    112          1           0       -3.639900   -0.595483    1.841151
    113          1           0       -1.571972    1.105474    3.302321
    114          1           0       -2.511035   -0.340761    3.931816
    115          1           0       -1.784198   -1.670361    0.676717
    116          1           0       -0.670389   -0.482831    1.462720
    117          1           0       -1.360886   -1.722388    2.291461
    118          1           0       -4.661557    1.024856    3.526297
    119          1           0       -3.473356    1.397644    4.824220
    120          1           0       -3.496374    2.372137    3.309085
    121          7           0       -4.224322    0.125797   -0.846507
    122          6           0       -4.747195   -0.204799   -2.156969
    123          6           0       -6.014798    0.570012   -2.482468
    124          8           0       -6.133291    0.942958   -3.638959
    125          6           0       -4.980235   -1.706619   -2.269796
    126          8           0       -5.946751   -2.134657   -1.321677
    127          1           0       -4.909662    0.123626   -0.110230
    128          1           0       -3.964277    0.020680   -2.889771
    129          1           0       -4.044685   -2.252469   -2.124899
    130          1           0       -5.389372   -1.909258   -3.255617
    131          1           0       -6.040834   -3.072344   -1.501928
    132          7           0       -6.834401    0.800604   -1.451751
    133          6           0       -8.079731    1.524148   -1.525504
    134          6           0       -8.996915    1.063032   -2.656850
    135          8           0       -9.473877    1.905560   -3.405552
    136          6           0       -7.717447    2.996031   -1.362681
    137          1           0       -6.642949    0.235696   -0.626812
    138          1           0       -8.594949    1.216526   -0.613847
    139          1           0       -6.969694    3.134133   -0.586799
    140          1           0       -7.295966    3.345982   -2.304695
    141          1           0       -8.654958    3.502506   -1.138057
    142          7           0       -9.356638   -0.210416   -2.837485
    143          6           0       -9.282689   -1.345710   -1.944321
    144          6           0      -10.455803   -1.408391   -0.975417
    145          8           0      -11.635077   -1.292550   -1.319789
    146          6           0       -9.243635   -2.546614   -2.876364
    147          1           0      -10.009378   -0.387675   -3.592409
    148          1           0       -8.394250   -1.320818   -1.325890
    149          1           0       -9.042582   -3.509452   -2.418522
    150          1           0      -10.222458   -2.623758   -3.354437
    151          1           0       -8.545537   -2.384666   -3.705961
    152          7           0      -10.237404   -1.611854    0.326314
    153          6           0       -9.012560   -1.470558    1.082879
    154          6           0       -9.145272   -1.004756    2.530918
    155          8           0       -8.204721   -0.413999    3.049445
    156          6           0       -8.238778   -2.792971    0.996951
    157          6           0       -8.955865   -3.950566    1.679490
    158          6           0       -8.177723   -5.264010    1.671668
    159          8           0       -8.308820   -6.003092    2.660086
    160          8           0       -7.474322   -5.613602    0.702074
    161          1           0      -11.100065   -1.807904    0.802844
    162          1           0       -8.364149   -0.727968    0.623397
    163          1           0       -7.316641   -2.494072    1.478327
    164          1           0       -8.012992   -2.953123   -0.058640
    165          1           0       -9.836652   -4.156641    1.064796
    166          1           0       -9.272068   -3.690240    2.692775
    167          7           0      -10.353464   -1.015399    3.097626
    168          6           0      -10.681333   -0.531757    4.418797
    169          1           0      -11.333172    0.338138    4.335563
    170          1           0      -11.192393   -1.316561    4.977373
    171          1           0       -9.767234   -0.250401    4.941046
    172          1           0      -11.005900   -1.645675    2.668699
    173         20           0        1.980562   -0.043728   -0.444910
    174          8           0        1.300749    1.284461   -2.706584
    175          1           0        1.897458    1.205464   -3.450357
    176          1           0        0.569225    1.803129   -3.035151
 ---------------------------------------------------------------------

 SCF Done:  E(RB3LYP) =  -5333.41692691     A.U. after   52 cycles

 The electronic state is 1-A.
 Alpha  occ. eigenvalues -- -145.42039 -19.17854 -19.17120 -19.15146 -19.14748
 Alpha  occ. eigenvalues --  -19.14358 -19.12091 -19.11712 -19.10529 -19.10366
 Alpha  occ. eigenvalues --  -19.10359 -19.10310 -19.09906 -19.09091 -19.08980
 Alpha  occ. eigenvalues --  -19.08929 -19.08864 -19.08714 -19.08406 -19.07737
 Alpha  occ. eigenvalues --  -19.07537 -19.07445 -18.97042 -18.96658 -15.47815
 Alpha  occ. eigenvalues --  -14.57818 -14.40572 -14.40324 -14.38123 -14.37748
 Alpha  occ. eigenvalues --  -14.37358 -14.36762 -14.36088 -14.35438 -14.35406
 Alpha  occ. eigenvalues --  -14.34989 -14.34832 -14.33901 -14.33754 -14.33481
 Alpha  occ. eigenvalues --  -12.61442 -12.61382 -12.61361 -10.34727 -10.33084
 Alpha  occ. eigenvalues --  -10.32309 -10.31168 -10.30939 -10.29278 -10.29204
 Alpha  occ. eigenvalues --  -10.28970 -10.28340 -10.28153 -10.28068 -10.27907
 Alpha  occ. eigenvalues --  -10.27822 -10.27690 -10.27619 -10.27402 -10.27207
 Alpha  occ. eigenvalues --  -10.26811 -10.26777 -10.26646 -10.26598 -10.26590
 Alpha  occ. eigenvalues --  -10.26153 -10.25581 -10.25357 -10.24745 -10.24406
 Alpha  occ. eigenvalues --  -10.24309 -10.23916 -10.23715 -10.23269 -10.22955
 Alpha  occ. eigenvalues --  -10.22498 -10.22043 -10.21895 -10.21886 -10.21868
 Alpha  occ. eigenvalues --  -10.21731 -10.21699 -10.21565 -10.21444 -10.21428
 Alpha  occ. eigenvalues --  -10.21244 -10.20164 -10.19309 -10.19131 -10.19129
 Alpha  occ. eigenvalues --  -10.19024 -10.18340 -10.18091 -10.17761 -10.16524
 Alpha  occ. eigenvalues --  -10.14932 -10.12293  -1.84538  -1.13262  -1.12189
 Alpha  occ. eigenvalues --   -1.11889  -1.11712  -1.07664  -1.07366  -1.06350
 Alpha  occ. eigenvalues --   -1.05308  -1.05214  -1.04377  -1.03837  -1.03730
 Alpha  occ. eigenvalues --   -1.03661  -1.02985  -1.02643  -1.02334  -1.01947
 Alpha  occ. eigenvalues --   -1.01891  -1.01886  -1.01512  -1.01334  -1.00629
 Alpha  occ. eigenvalues --   -1.00444  -0.97700  -0.96653  -0.95478  -0.95153
 Alpha  occ. eigenvalues --   -0.94463  -0.94259  -0.93969  -0.93470  -0.92613
 Alpha  occ. eigenvalues --   -0.92598  -0.91995  -0.91808  -0.91665  -0.90792
 Alpha  occ. eigenvalues --   -0.90155  -0.90091  -0.89596  -0.89437  -0.87679
 Alpha  occ. eigenvalues --   -0.84605  -0.83496  -0.81936  -0.81358  -0.80755
 Alpha  occ. eigenvalues --   -0.80070  -0.79700  -0.78508  -0.77576  -0.77015
 Alpha  occ. eigenvalues --   -0.76973  -0.76545  -0.76431  -0.75924  -0.75461
 Alpha  occ. eigenvalues --   -0.74667  -0.73160  -0.73152  -0.73035  -0.72904
 Alpha  occ. eigenvalues --   -0.72267  -0.71176  -0.70600  -0.69263  -0.68620
 Alpha  occ. eigenvalues --   -0.67168  -0.66996  -0.66805  -0.66530  -0.65966
 Alpha  occ. eigenvalues --   -0.65434  -0.65135  -0.65064  -0.64490  -0.63561
 Alpha  occ. eigenvalues --   -0.63229  -0.62394  -0.61910  -0.61808  -0.61414
 Alpha  occ. eigenvalues --   -0.61280  -0.60805  -0.59750  -0.59394  -0.59205
 Alpha  occ. eigenvalues --   -0.59173  -0.59062  -0.58563  -0.58346  -0.58204
 Alpha  occ. eigenvalues --   -0.57470  -0.57371  -0.57283  -0.56654  -0.56629
 Alpha  occ. eigenvalues --   -0.56393  -0.56198  -0.55986  -0.55892  -0.55170
 Alpha  occ. eigenvalues --   -0.54738  -0.54308  -0.53946  -0.53475  -0.53292
 Alpha  occ. eigenvalues --   -0.53161  -0.52778  -0.52494  -0.51792  -0.51665
 Alpha  occ. eigenvalues --   -0.51489  -0.51299  -0.51171  -0.50949  -0.50848
 Alpha  occ. eigenvalues --   -0.50649  -0.50411  -0.50000  -0.49778  -0.49597
 Alpha  occ. eigenvalues --   -0.49220  -0.48691  -0.48470  -0.48308  -0.48104
 Alpha  occ. eigenvalues --   -0.47555  -0.47360  -0.47270  -0.47148  -0.47072
 Alpha  occ. eigenvalues --   -0.46774  -0.46533  -0.46249  -0.45984  -0.45914
 Alpha  occ. eigenvalues --   -0.45832  -0.45736  -0.45678  -0.45627  -0.45547
 Alpha  occ. eigenvalues --   -0.45434  -0.45072  -0.45019  -0.44656  -0.44601
 Alpha  occ. eigenvalues --   -0.44315  -0.44129  -0.44052  -0.43989  -0.43926
 Alpha  occ. eigenvalues --   -0.43631  -0.43578  -0.43324  -0.43200  -0.43075
 Alpha  occ. eigenvalues --   -0.42876  -0.42790  -0.42441  -0.42404  -0.42207
 Alpha  occ. eigenvalues --   -0.42145  -0.41959  -0.41863  -0.41753  -0.41650
 Alpha  occ. eigenvalues --   -0.41462  -0.41282  -0.41157  -0.40935  -0.40774
 Alpha  occ. eigenvalues --   -0.40676  -0.40546  -0.40443  -0.40311  -0.40027
 Alpha  occ. eigenvalues --   -0.39843  -0.39799  -0.39320  -0.39276  -0.39207
 Alpha  occ. eigenvalues --   -0.39199  -0.39088  -0.39083  -0.38950  -0.38872
 Alpha  occ. eigenvalues --   -0.38734  -0.38667  -0.38611  -0.38418  -0.38188
 Alpha  occ. eigenvalues --   -0.38052  -0.38003  -0.37882  -0.37517  -0.37450
 Alpha  occ. eigenvalues --   -0.37100  -0.37090  -0.36755  -0.36645  -0.36411
 Alpha  occ. eigenvalues --   -0.36341  -0.35992  -0.35567  -0.35431  -0.35332
 Alpha  occ. eigenvalues --   -0.35296  -0.35021  -0.34785  -0.34652  -0.34622
 Alpha  occ. eigenvalues --   -0.34547  -0.34094  -0.33296  -0.33279  -0.32133
 Alpha  occ. eigenvalues --   -0.32131  -0.31851  -0.31527  -0.30458  -0.30307
 Alpha  occ. eigenvalues --   -0.29739  -0.29193  -0.29069  -0.28842  -0.28669
 Alpha  occ. eigenvalues --   -0.28285  -0.28172  -0.28016  -0.27443  -0.27413
 Alpha  occ. eigenvalues --   -0.27355  -0.27310  -0.27048  -0.26966  -0.26884
 Alpha  occ. eigenvalues --   -0.26808  -0.26709  -0.26481  -0.25960  -0.25879
 Alpha  occ. eigenvalues --   -0.25872  -0.25487  -0.25185  -0.24987  -0.24943
 Alpha  occ. eigenvalues --   -0.24868  -0.24819  -0.24606  -0.24541  -0.24296
 Alpha  occ. eigenvalues --   -0.23335  -0.23264  -0.22900  -0.22757  -0.22450
 Alpha  occ. eigenvalues --   -0.14597  -0.14179  -0.11439
 Alpha virt. eigenvalues --   -0.10624  -0.04470  -0.04279  -0.04047  -0.03525
 Alpha virt. eigenvalues --   -0.03342  -0.02925  -0.01804  -0.01696  -0.01271
 Alpha virt. eigenvalues --   -0.00921  -0.00523  -0.00437  -0.00323   0.00130

 Mulliken charges:
               1
     1  C    0.054170
     2  C    0.024475
     3  O   -0.300255
     4  H    0.041928
     5  H    0.036702
     6  H    0.009989
     7  N   -0.120241
     8  C    0.051986
     9  C    0.119160
    10  O   -0.269662
    11  C    0.103805
    12  C    0.108083
    13  O   -0.403827
    14  O   -0.414941
    15  H    0.117514
    16  H    0.007948
    17  H    0.004904
    18  H    0.009192
    19  N   -0.116506
    20  C    0.149926
    21  C    0.040548
    22  O   -0.266408
    23  C    0.014814
    24  C    0.038343
    25  C   -0.047015
    26  C    0.013893
    27  N    0.136583
    28  H    0.118803
    29  H   -0.001401
    30  H    0.022857
    31  H   -0.016191
    32  H    0.028003
    33  H   -0.040449
    34  H    0.027912
    35  H    0.063490
    36  H    0.060394
    37  H    0.081251
    38  H    0.137061
    39  H    0.141481
    40  H    0.156461
    41  N   -0.154482
    42  C    0.090125
    43  C    0.070300
    44  O   -0.287008
    45  C    0.174780
    46  C    0.081759
    47  O   -0.417792
    48  O   -0.442687
    49  H    0.153772
    50  H    0.017050
    51  H   -0.015249
    52  H    0.003704
    53  N   -0.190385
    54  C    0.227515
    55  C    0.002805
    56  O   -0.281681
    57  H    0.156899
    58  H    0.038871
    59  H    0.034599
    60  N   -0.140628
    61  C    0.115392
    62  C    0.087109
    63  O   -0.348162
    64  C    0.129798
    65  C   -0.018914
    66  N   -0.023888
    67  O   -0.278049
    68  H    0.154937
    69  H    0.012182
    70  H    0.007041
    71  H    0.003530
    72  H    0.128596
    73  H    0.138804
    74  N   -0.166801
    75  C    0.235556
    76  C    0.045560
    77  O   -0.280526
    78  H    0.136959
    79  H    0.043188
    80  H    0.055885
    81  N   -0.099567
    82  C    0.088580
    83  C    0.203408
    84  O   -0.350089
    85  C    0.143083
    86  C   -0.011036
    87  C   -0.008579
    88  C   -0.033025
    89  C    0.013700
    90  C   -0.027112
    91  C    0.174541
    92  O   -0.207196
    93  H    0.107366
    94  H   -0.024695
    95  H    0.001269
    96  H   -0.000120
    97  H   -0.033959
    98  H   -0.054692
    99  H   -0.009376
   100  H   -0.026514
   101  H    0.179626
   102  N   -0.146167
   103  C    0.106938
   104  C    0.095156
   105  O   -0.272811
   106  C   -0.103595
   107  C   -0.014667
   108  C    0.077045
   109  C    0.031209
   110  H    0.152568
   111  H    0.000615
   112  H    0.008035
   113  H    0.034083
   114  H    0.014177
   115  H    0.008318
   116  H   -0.016004
   117  H    0.001105
   118  H    0.040106
   119  H    0.025138
   120  H   -0.039738
   121  N   -0.130693
   122  C    0.071806
   123  C    0.092347
   124  O   -0.245051
   125  C    0.239451
   126  O   -0.316732
   127  H    0.109224
   128  H    0.027940
   129  H    0.002628
   130  H    0.008070
   131  H    0.195620
   132  N   -0.179242
   133  C    0.010419
   134  C    0.068359
   135  O   -0.243220
   136  C    0.105014
   137  H    0.152662
   138  H    0.020635
   139  H   -0.013848
   140  H    0.039659
   141  H    0.023964
   142  N   -0.097174
   143  C    0.053901
   144  C    0.054371
   145  O   -0.279993
   146  C    0.026916
   147  H    0.131804
   148  H   -0.005350
   149  H    0.041265
   150  H    0.017662
   151  H    0.019358
   152  N   -0.092797
   153  C    0.046118
   154  C    0.073353
   155  O   -0.283981
   156  C    0.076107
   157  C    0.035301
   158  C    0.034168
   159  O   -0.339009
   160  O   -0.375970
   161  H    0.109403
   162  H   -0.032893
   163  H   -0.020572
   164  H   -0.013355
   165  H   -0.018304
   166  H   -0.028992
   167  N   -0.146132
   168  C    0.121436
   169  H    0.024575
   170  H    0.029002
   171  H    0.045729
   172  H    0.109523
   173  Ca   1.331221
   174  O   -0.293427
   175  H    0.181158
   176  H    0.174203
 Sum of Mulliken charges =  -0.00000

 Dipole moment (field-independent basis, Debye):
    X=             21.0608    Y=             -8.8613    Z=             -4.8144  Tot=             23.3507
 Quadrupole moment (field-independent basis, Debye-Ang):
   XX=           -858.0384   YY=           -345.5666   ZZ=           -571.6199
   XY=           -200.0301   XZ=            -20.0111   YZ=            132.3354

 ESP charges:
               1
     1  C   -0.459320
     2  C    0.768501
     3  O   -0.584589
     4  H    0.132611
     5  H    0.134826
     6  H    0.098435
     7  N   -0.653096
     8  C    0.103405
     9  C    0.552273
    10  O   -0.507646
    11  C    0.161200
    12  C    0.544264
    13  O   -0.721670
    14  O   -0.588821
    15  H    0.327540
    16  H    0.045482
    17  H   -0.040388
    18  H    0.008876
    19  N   -0.596800
    20  C    0.218626
    21  C    0.434495
    22  O   -0.544043
    23  C   -0.117834
    24  C   -0.104244
    25  C    0.041162
    26  C    0.091123
    27  N   -0.368083
    28  H    0.282074
    29  H    0.080923
    30  H    0.060773
    31  H    0.046721
    32  H    0.060947
    33  H    0.002511
    34  H    0.035020
    35  H    0.029382
    36  H    0.037142
    37  H    0.070898
    38  H    0.283041
    39  H    0.304294
    40  H    0.288311
    41  N   -0.351817
    42  C    0.140434
    43  C    0.326237
    44  O   -0.534916
    45  C   -0.319509
    46  C    0.765069
    47  O   -0.698250
    48  O   -0.746596
    49  H    0.221121
    50  H    0.093630
    51  H    0.076722
    52  H    0.101978
    53  N    0.141832
    54  C   -0.516402
    55  C    0.587153
    56  O   -0.541434
    57  H    0.041879
    58  H    0.206294
    59  H    0.184390
    60  N   -0.336899
    61  C    0.307226
    62  C    0.374154
    63  O   -0.478371
    64  C   -0.412144
    65  C    0.719145
    66  N   -0.806897
    67  O   -0.573540
    68  H    0.211759
    69  H   -0.016049
    70  H    0.096568
    71  H    0.095814
    72  H    0.386295
    73  H    0.389440
    74  N   -0.341226
    75  C   -0.277028
    76  C    0.614948
    77  O   -0.541389
    78  H    0.307089
    79  H    0.161486
    80  H    0.170266
    81  N   -0.386743
    82  C   -0.033885
    83  C    0.698487
    84  O   -0.522702
    85  C   -0.383028
    86  C    0.182430
    87  C   -0.162742
    88  C   -0.226846
    89  C   -0.236735
    90  C   -0.311146
    91  C    0.402516
    92  O   -0.566169
    93  H    0.230135
    94  H    0.071971
    95  H    0.125582
    96  H    0.141291
    97  H    0.122115
    98  H    0.171438
    99  H    0.169675
   100  H    0.162289
   101  H    0.421061
   102  N   -0.431300
   103  C   -0.208253
   104  C    0.498537
   105  O   -0.498816
   106  C    0.100789
   107  C    0.104498
   108  C   -0.413094
   109  C   -0.216696
   110  H    0.341383
   111  H    0.124063
   112  H    0.068085
   113  H    0.007163
   114  H    0.014001
   115  H    0.114942
   116  H    0.095332
   117  H    0.101857
   118  H    0.068062
   119  H    0.075531
   120  H    0.000323
   121  N   -0.233004
   122  C   -0.144521
   123  C    0.706307
   124  O   -0.524008
   125  C    0.173609
   126  O   -0.633941
   127  H    0.170093
   128  H    0.098563
   129  H    0.043486
   130  H    0.012096
   131  H    0.419360
   132  N   -0.667789
   133  C    0.309170
   134  C    0.518854
   135  O   -0.526477
   136  C   -0.399913
   137  H    0.362143
   138  H    0.035261
   139  H    0.107286
   140  H    0.131042
   141  H    0.099727
   142  N   -0.580472
   143  C    0.076716
   144  C    0.665255
   145  O   -0.579972
   146  C   -0.353878
   147  H    0.351515
   148  H    0.256444
   149  H    0.117975
   150  H    0.097076
   151  H    0.112209
   152  N   -0.589549
   153  C   -0.270315
   154  C    0.705469
   155  O   -0.567672
   156  C    0.349741
   157  C   -0.340782
   158  C    0.722748
   159  O   -0.648030
   160  O   -0.683563
   161  H    0.296227
   162  H    0.056784
   163  H   -0.064371
   164  H   -0.114430
   165  H    0.092487
   166  H    0.034832
   167  N   -0.383783
   168  C   -0.096362
   169  H    0.066087
   170  H    0.075505
   171  H    0.091409
   172  H    0.297033
   173  Ca   1.574801
   174  O   -0.904616
   175  H    0.439633
   176  H    0.438324
 Sum of ESP charges =  -0.00000

 Normal termination of Gaussian 16 at Wed Sep 18 11:26:48 2019.
