 Gaussian 16, Revision A.03,
 Gaussian 16:  ES64L-G16RevA.03 25-Dec-2016

 ----------------------------------------------------------------------
 #b3lyp/svp scf=(tight,noincore) Test #IOP(5/87=12) Density=Current Pop
 =(MK,readradii) iop(6/33=2) iop(6/42=6)
 ----------------------------------------------------------------------

 -----------------
 Ng-295_loop3_23.0
 -----------------
 Symbolic Z-matrix:
 Charge =  0 Multiplicity = 1

                         Standard orientation:
 ---------------------------------------------------------------------
 Center     Atomic      Atomic             Coordinates (Angstroms)
 Number     Number       Type             X           Y           Z
 ---------------------------------------------------------------------
      1          6           0        8.052282    6.163107   -4.376094
      2          6           0        7.618573    5.258967   -3.226560
      3          8           0        6.728460    5.670682   -2.485218
      4          1           0        9.080863    5.930853   -4.651653
      5          1           0        7.401212    5.998224   -5.234835
      6          1           0        7.985986    7.205325   -4.064508
      7          7           0        7.969375    3.986530   -3.049806
      8          6           0        7.522621    3.100099   -1.994699
      9          6           0        8.664263    2.733079   -1.051009
     10          8           0        9.809332    2.381570   -1.303708
     11          6           0        7.062293    1.815926   -2.674993
     12          6           0        6.195054    0.892236   -1.830368
     13          8           0        6.169586    0.939298   -0.581073
     14          8           0        5.433586    0.141247   -2.472850
     15          1           0        8.744723    3.642397   -3.589998
     16          1           0        6.664844    3.536682   -1.473438
     17          1           0        7.937025    1.207100   -2.917426
     18          1           0        6.487312    2.082770   -3.559013
     19          7           0        8.275536    2.903696    0.207038
     20          6           0        9.202082    2.658352    1.302811
     21          6           0        9.080501    1.271572    1.905686
     22          8           0        9.859405    0.970510    2.801716
     23          6           0        9.088313    3.876911    2.218491
     24          6           0       10.349992    4.043439    3.068807
     25          6           0       10.090247    4.747848    4.407029
     26          6           0        9.491483    3.814017    5.443534
     27          7           0        9.173778    4.438477    6.738761
     28          1           0        7.331783    3.232101    0.389469
     29          1           0       10.188083    2.681540    0.846889
     30          1           0        8.197300    3.718186    2.840265
     31          1           0        8.909622    4.677784    1.514381
     32          1           0       11.057705    4.605157    2.461094
     33          1           0       10.780310    3.077732    3.335523
     34          1           0        9.417892    5.570973    4.196782
     35          1           0       11.068573    5.104233    4.755980
     36          1           0       10.075945    2.897083    5.546662
     37          1           0        8.561471    3.496219    4.967002
     38          1           0        8.413088    5.098448    6.639319
     39          1           0        8.902623    3.838660    7.494006
     40          1           0        9.902740    5.064739    7.061576
     41          7           0        8.179253    0.387555    1.475725
     42          6           0        8.005695   -0.989519    1.898034
     43          6           0        8.115068   -2.078922    0.850447
     44          8           0        8.482085   -3.206022    1.190951
     45          6           0        6.708492   -1.025799    2.704786
     46          6           0        5.425498   -0.658027    1.973508
     47          8           0        5.183720   -1.223867    0.886232
     48          8           0        4.622548    0.202941    2.389929
     49          1           0        7.378690    0.827780    1.052521
     50          1           0        8.777910   -1.184639    2.643294
     51          1           0        6.871256   -0.349711    3.549365
     52          1           0        6.623040   -2.017600    3.161764
     53          7           0        8.163899   -1.625643   -0.402492
     54          6           0        8.222932   -2.491486   -1.565346
     55          6           0        6.992484   -3.376884   -1.688510
     56          8           0        6.948939   -4.216806   -2.584520
     57          1           0        8.185278   -0.631399   -0.605524
     58          1           0        9.125195   -3.097463   -1.459449
     59          1           0        8.289517   -1.904672   -2.481160
     60          7           0        5.913626   -3.223011   -0.924972
     61          6           0        4.635287   -3.878799   -1.112832
     62          6           0        3.634698   -3.085458   -1.946278
     63          8           0        3.252853   -2.019171   -1.483862
     64          6           0        4.059158   -4.192418    0.265616
     65          6           0        2.805546   -5.048834    0.268641
     66          7           0        2.060434   -5.038758    1.375305
     67          8           0        2.519166   -5.746663   -0.703790
     68          1           0        5.872192   -2.561349   -0.159736
     69          1           0        4.666970   -4.845343   -1.623605
     70          1           0        3.827963   -3.243941    0.748668
     71          1           0        4.834516   -4.694109    0.841746
     72          1           0        2.290854   -4.562188    2.234542
     73          1           0        1.431033   -5.831000    1.403686
     74          7           0        3.085693   -3.511439   -3.088790
     75          6           0        2.183625   -2.770029   -3.944525
     76          6           0        0.705869   -2.863348   -3.565145
     77          8           0       -0.152081   -2.605780   -4.408638
     78          1           0        3.530279   -4.275761   -3.564664
     79          1           0        2.403711   -3.047840   -4.975924
     80          1           0        2.628307   -1.772907   -3.974624
     81          7           0        0.297295   -3.186336   -2.343979
     82          6           0       -1.031363   -3.423527   -1.800372
     83          6           0       -1.531781   -2.146187   -1.137965
     84          8           0       -0.743670   -1.334471   -0.658278
     85          6           0       -0.934586   -4.503133   -0.732670
     86          6           0       -2.198497   -4.816384    0.018597
     87          6           0       -2.342949   -4.198146    1.268603
     88          6           0       -3.072454   -5.868177   -0.303631
     89          6           0       -3.459923   -4.535804    2.053242
     90          6           0       -4.173937   -6.256502    0.456658
     91          6           0       -4.315455   -5.606836    1.704739
     92          8           0       -5.324752   -6.019445    2.520811
     93          1           0        1.057925   -3.248607   -1.681284
     94          1           0       -1.586637   -3.749951   -2.677650
     95          1           0       -0.133216   -4.283840   -0.034446
     96          1           0       -0.613595   -5.449040   -1.192697
     97          1           0       -1.671266   -3.411864    1.571095
     98          1           0       -3.060373   -6.292667   -1.293561
     99          1           0       -3.459136   -4.227737    3.084161
    100          1           0       -4.844339   -7.026358    0.112590
    101          1           0       -5.940874   -6.462206    1.937239
    102          7           0       -2.839738   -1.944978   -1.353750
    103          6           0       -3.602146   -0.741315   -1.098937
    104          6           0       -3.820956   -0.445935    0.377198
    105          8           0       -2.923958   -0.353967    1.220486
    106          6           0       -3.034703    0.489167   -1.807543
    107          6           0       -3.896489    1.720807   -1.559172
    108          6           0       -2.795174    0.197761   -3.291089
    109          6           0       -5.319906    1.632607   -2.104519
    110          1           0       -3.385656   -2.631277   -1.858198
    111          1           0       -4.597908   -0.911827   -1.504873
    112          1           0       -2.085373    0.728705   -1.332472
    113          1           0       -3.394796    2.508121   -2.122591
    114          1           0       -3.926159    2.072610   -0.535964
    115          1           0       -1.886136   -0.366518   -3.481191
    116          1           0       -3.573022   -0.404533   -3.764688
    117          1           0       -2.619834    1.103055   -3.880494
    118          1           0       -5.878377    2.564192   -2.032691
    119          1           0       -5.343802    1.347420   -3.160785
    120          1           0       -5.909256    0.883101   -1.576970
    121          7           0       -5.094322   -0.349242    0.741740
    122          6           0       -5.582792   -0.110216    2.081465
    123          6           0       -6.894858   -0.795092    2.458331
    124          8           0       -7.221490   -0.960186    3.628953
    125          6           0       -5.717917    1.370735    2.417064
    126          8           0       -6.671665    2.010651    1.591794
    127          1           0       -5.780066   -0.573156    0.040443
    128          1           0       -4.885565   -0.598543    2.756676
    129          1           0       -4.753033    1.867091    2.277315
    130          1           0       -5.946613    1.454125    3.482026
    131          1           0       -6.196616    2.737238    1.191170
    132          7           0       -7.698567   -1.308363    1.528437
    133          6           0       -8.924574   -2.052153    1.749987
    134          6           0      -10.132547   -1.393846    2.396156
    135          8           0      -10.992447   -2.101678    2.931829
    136          6           0       -8.627484   -3.438517    2.322639
    137          1           0       -7.497798   -1.193184    0.545876
    138          1           0       -9.281953   -2.182762    0.734890
    139          1           0       -8.664869   -3.340155    3.404225
    140          1           0       -9.346826   -4.178302    1.979323
    141          1           0       -7.595299   -3.653838    2.043298
    142          7           0      -10.340235   -0.079215    2.399230
    143          6           0       -9.798002    1.050794    1.674204
    144          6           0      -10.860983    1.700592    0.791744
    145          8           0      -12.049554    1.523093    1.016899
    146          6           0       -9.424290    1.983003    2.814084
    147          1           0      -11.141376    0.189137    2.961602
    148          1           0       -8.902753    0.782797    1.105252
    149          1           0      -10.380047    2.215069    3.275575
    150          1           0       -8.754330    1.502607    3.525261
    151          1           0       -8.960826    2.842439    2.330896
    152          7           0      -10.625423    2.476150   -0.265573
    153          6           0       -9.346756    2.819599   -0.864951
    154          6           0       -9.343240    2.707025   -2.386140
    155          8           0       -8.271685    2.530044   -2.966613
    156          6           0       -8.962038    4.193953   -0.334157
    157          6           0       -9.911284    5.323113   -0.749524
    158          6           0       -9.315182    6.669194   -0.358078
    159          8           0       -9.821056    7.247835    0.629427
    160          8           0       -8.319215    7.013004   -1.018944
    161          1           0      -11.422562    3.012187   -0.573849
    162          1           0       -8.518482    2.165064   -0.573669
    163          1           0       -7.969873    4.444519   -0.704866
    164          1           0       -8.890368    4.183720    0.751181
    165          1           0      -10.913187    5.120260   -0.393939
    166          1           0       -9.905928    5.402270   -1.838930
    167          7           0      -10.464371    2.825564   -3.095445
    168          6           0      -10.489074    2.471314   -4.501324
    169          1           0      -11.458895    2.734187   -4.924771
    170          1           0       -9.704182    3.014273   -5.027480
    171          1           0      -10.325316    1.399388   -4.609019
    172          1           0      -11.283723    2.814164   -2.504655
    173         20           0        3.582155    0.369822   -0.519273
    174          8           0        2.138655    2.177675    0.665201
    175          1           0        2.378806    3.078821    0.470616
    176          1           0        1.512540    2.244892    1.379597
 ---------------------------------------------------------------------

 SCF Done:  E(RB3LYP) =  -5333.36336689     A.U. after   39 cycles

 The electronic state is 1-A.
 Alpha  occ. eigenvalues -- -145.47439 -19.24983 -19.17076 -19.14631 -19.14319
 Alpha  occ. eigenvalues --  -19.13421 -19.12186 -19.12006 -19.11715 -19.11309
 Alpha  occ. eigenvalues --  -19.10795 -19.10275 -19.10009 -19.09989 -19.09857
 Alpha  occ. eigenvalues --  -19.09347 -19.09255 -19.08483 -19.07953 -19.06667
 Alpha  occ. eigenvalues --  -19.06077 -19.05959 -18.96536 -18.96106 -15.53255
 Alpha  occ. eigenvalues --  -14.57490 -14.39063 -14.38751 -14.37879 -14.37657
 Alpha  occ. eigenvalues --  -14.37232 -14.36995 -14.36990 -14.36234 -14.36135
 Alpha  occ. eigenvalues --  -14.35717 -14.34099 -14.33339 -14.32565 -14.31789
 Alpha  occ. eigenvalues --  -12.66867 -12.66839 -12.66787 -10.34769 -10.32275
 Alpha  occ. eigenvalues --  -10.31415 -10.31071 -10.30630 -10.30616 -10.30362
 Alpha  occ. eigenvalues --  -10.29819 -10.29724 -10.28963 -10.28786 -10.28691
 Alpha  occ. eigenvalues --  -10.28373 -10.28007 -10.27635 -10.26742 -10.26474
 Alpha  occ. eigenvalues --  -10.26194 -10.26010 -10.25760 -10.25476 -10.25237
 Alpha  occ. eigenvalues --  -10.25057 -10.24951 -10.24829 -10.24750 -10.24362
 Alpha  occ. eigenvalues --  -10.24184 -10.23955 -10.23863 -10.23379 -10.22785
 Alpha  occ. eigenvalues --  -10.21833 -10.21505 -10.21236 -10.20964 -10.20455
 Alpha  occ. eigenvalues --  -10.20450 -10.20416 -10.20285 -10.20235 -10.20163
 Alpha  occ. eigenvalues --  -10.20151 -10.20043 -10.19547 -10.19296 -10.17813
 Alpha  occ. eigenvalues --  -10.17633 -10.16506 -10.16052 -10.15523 -10.15349
 Alpha  occ. eigenvalues --  -10.13474 -10.09844  -1.89872  -1.17403  -1.17069
 Alpha  occ. eigenvalues --   -1.16881  -1.13019  -1.10985  -1.07869  -1.07044
 Alpha  occ. eigenvalues --   -1.06522  -1.06246  -1.05597  -1.04499  -1.04402
 Alpha  occ. eigenvalues --   -1.04315  -1.04066  -1.03729  -1.03148  -1.02791
 Alpha  occ. eigenvalues --   -1.02616  -1.02219  -1.01504  -1.00794  -0.99926
 Alpha  occ. eigenvalues --   -0.99167  -0.96544  -0.96075  -0.95568  -0.94393
 Alpha  occ. eigenvalues --   -0.94112  -0.94092  -0.93568  -0.93191  -0.92772
 Alpha  occ. eigenvalues --   -0.92461  -0.92268  -0.91997  -0.90973  -0.90381
 Alpha  occ. eigenvalues --   -0.89985  -0.89810  -0.88953  -0.88442  -0.86083
 Alpha  occ. eigenvalues --   -0.84157  -0.82376  -0.81333  -0.81265  -0.80276
 Alpha  occ. eigenvalues --   -0.79815  -0.79368  -0.78425  -0.77638  -0.76343
 Alpha  occ. eigenvalues --   -0.75689  -0.75483  -0.75238  -0.74722  -0.74376
 Alpha  occ. eigenvalues --   -0.73878  -0.73784  -0.73246  -0.72537  -0.71092
 Alpha  occ. eigenvalues --   -0.70807  -0.70437  -0.69502  -0.69094  -0.68637
 Alpha  occ. eigenvalues --   -0.66989  -0.66815  -0.66152  -0.65747  -0.65140
 Alpha  occ. eigenvalues --   -0.64648  -0.64268  -0.64252  -0.63150  -0.63051
 Alpha  occ. eigenvalues --   -0.62901  -0.62813  -0.62789  -0.61618  -0.61568
 Alpha  occ. eigenvalues --   -0.61068  -0.60885  -0.60739  -0.60439  -0.59972
 Alpha  occ. eigenvalues --   -0.59795  -0.59359  -0.59129  -0.59011  -0.57971
 Alpha  occ. eigenvalues --   -0.57951  -0.56957  -0.56667  -0.56531  -0.56148
 Alpha  occ. eigenvalues --   -0.55691  -0.55563  -0.55238  -0.55110  -0.54602
 Alpha  occ. eigenvalues --   -0.54233  -0.54049  -0.53734  -0.53171  -0.52726
 Alpha  occ. eigenvalues --   -0.52697  -0.52498  -0.52359  -0.52237  -0.51683
 Alpha  occ. eigenvalues --   -0.51431  -0.51298  -0.51219  -0.50874  -0.50530
 Alpha  occ. eigenvalues --   -0.50212  -0.49700  -0.49594  -0.49451  -0.49162
 Alpha  occ. eigenvalues --   -0.48765  -0.48629  -0.48408  -0.48255  -0.48073
 Alpha  occ. eigenvalues --   -0.47785  -0.47507  -0.47206  -0.47108  -0.46947
 Alpha  occ. eigenvalues --   -0.46892  -0.46728  -0.46558  -0.46480  -0.46208
 Alpha  occ. eigenvalues --   -0.45976  -0.45845  -0.45589  -0.45287  -0.45085
 Alpha  occ. eigenvalues --   -0.44779  -0.44680  -0.44583  -0.44378  -0.44354
 Alpha  occ. eigenvalues --   -0.44191  -0.43979  -0.43859  -0.43697  -0.43691
 Alpha  occ. eigenvalues --   -0.43596  -0.43470  -0.43039  -0.42996  -0.42770
 Alpha  occ. eigenvalues --   -0.42460  -0.42422  -0.42197  -0.42152  -0.42032
 Alpha  occ. eigenvalues --   -0.41741  -0.41693  -0.41470  -0.41402  -0.41374
 Alpha  occ. eigenvalues --   -0.41243  -0.40978  -0.40882  -0.40819  -0.40687
 Alpha  occ. eigenvalues --   -0.40600  -0.40358  -0.40203  -0.40057  -0.39935
 Alpha  occ. eigenvalues --   -0.39920  -0.39720  -0.39523  -0.39335  -0.39242
 Alpha  occ. eigenvalues --   -0.38996  -0.38842  -0.38566  -0.38451  -0.38366
 Alpha  occ. eigenvalues --   -0.38260  -0.38180  -0.38037  -0.37982  -0.37570
 Alpha  occ. eigenvalues --   -0.37493  -0.37368  -0.37044  -0.36976  -0.36939
 Alpha  occ. eigenvalues --   -0.36742  -0.36694  -0.36541  -0.36352  -0.35989
 Alpha  occ. eigenvalues --   -0.35858  -0.35708  -0.35442  -0.35034  -0.34620
 Alpha  occ. eigenvalues --   -0.34400  -0.33735  -0.33545  -0.33346  -0.33052
 Alpha  occ. eigenvalues --   -0.32927  -0.32504  -0.32112  -0.31404  -0.31393
 Alpha  occ. eigenvalues --   -0.31312  -0.30732  -0.30592  -0.30419  -0.30248
 Alpha  occ. eigenvalues --   -0.29994  -0.29702  -0.29597  -0.29278  -0.29087
 Alpha  occ. eigenvalues --   -0.28749  -0.28043  -0.27750  -0.27715  -0.27451
 Alpha  occ. eigenvalues --   -0.27407  -0.27176  -0.27148  -0.27055  -0.27036
 Alpha  occ. eigenvalues --   -0.26711  -0.26504  -0.26366  -0.26170  -0.25973
 Alpha  occ. eigenvalues --   -0.25525  -0.25467  -0.25269  -0.25056  -0.24855
 Alpha  occ. eigenvalues --   -0.24583  -0.24480  -0.24128  -0.23674  -0.23479
 Alpha  occ. eigenvalues --   -0.23412  -0.22812  -0.22089  -0.21341  -0.21156
 Alpha  occ. eigenvalues --   -0.13726  -0.12734  -0.11290
 Alpha virt. eigenvalues --   -0.10755  -0.09354  -0.05036  -0.04018  -0.03121
 Alpha virt. eigenvalues --   -0.02774  -0.02180  -0.01983  -0.01541  -0.01493
 Alpha virt. eigenvalues --   -0.00830  -0.00530  -0.00116  -0.00021   0.00113

 Mulliken charges:
               1
     1  C    0.078954
     2  C   -0.002920
     3  O   -0.319501
     4  H    0.007064
     5  H    0.052754
     6  H    0.040881
     7  N   -0.108434
     8  C    0.099090
     9  C    0.097840
    10  O   -0.268322
    11  C    0.092024
    12  C    0.032429
    13  O   -0.427405
    14  O   -0.392057
    15  H    0.116196
    16  H   -0.010575
    17  H    0.024705
    18  H    0.025342
    19  N   -0.154964
    20  C    0.098527
    21  C    0.054504
    22  O   -0.295619
    23  C    0.028252
    24  C    0.022867
    25  C   -0.019566
    26  C    0.033401
    27  N    0.159539
    28  H    0.123698
    29  H    0.046312
    30  H   -0.011700
    31  H    0.022372
    32  H    0.023982
    33  H    0.037744
    34  H    0.014054
    35  H    0.024707
    36  H    0.084901
    37  H    0.052161
    38  H    0.106375
    39  H    0.124124
    40  H    0.120189
    41  N   -0.139022
    42  C    0.114854
    43  C    0.097065
    44  O   -0.268451
    45  C    0.072318
    46  C    0.096941
    47  O   -0.426763
    48  O   -0.386507
    49  H    0.153638
    50  H    0.021077
    51  H   -0.024860
    52  H    0.025313
    53  N   -0.181847
    54  C    0.226739
    55  C    0.029878
    56  O   -0.306762
    57  H    0.137950
    58  H    0.038140
    59  H    0.036347
    60  N   -0.125883
    61  C    0.170893
    62  C    0.122257
    63  O   -0.414258
    64  C    0.016700
    65  C    0.011642
    66  N   -0.044034
    67  O   -0.275044
    68  H    0.157578
    69  H    0.001735
    70  H    0.022116
    71  H    0.051201
    72  H    0.127059
    73  H    0.138746
    74  N   -0.116222
    75  C    0.167764
    76  C    0.056626
    77  O   -0.294745
    78  H    0.145058
    79  H    0.035016
    80  H    0.033746
    81  N   -0.104235
    82  C    0.119758
    83  C    0.132699
    84  O   -0.279725
    85  C    0.111379
    86  C   -0.065564
    87  C   -0.018633
    88  C   -0.001948
    89  C    0.003218
    90  C   -0.040370
    91  C    0.122637
    92  O   -0.183610
    93  H    0.123996
    94  H    0.007255
    95  H   -0.006879
    96  H    0.014613
    97  H    0.002267
    98  H   -0.028688
    99  H   -0.004743
   100  H   -0.031514
   101  H    0.174942
   102  N   -0.114043
   103  C    0.129129
   104  C    0.075814
   105  O   -0.276143
   106  C   -0.081421
   107  C    0.038373
   108  C    0.066487
   109  C    0.016528
   110  H    0.128335
   111  H   -0.036465
   112  H   -0.000825
   113  H   -0.008185
   114  H   -0.013872
   115  H    0.011135
   116  H   -0.001837
   117  H    0.004506
   118  H    0.047944
   119  H    0.009235
   120  H   -0.048997
   121  N   -0.126594
   122  C    0.117617
   123  C    0.068283
   124  O   -0.264998
   125  C    0.224191
   126  O   -0.304452
   127  H    0.112040
   128  H    0.032146
   129  H    0.004465
   130  H    0.022861
   131  H    0.188173
   132  N   -0.131250
   133  C    0.010755
   134  C    0.059402
   135  O   -0.279450
   136  C    0.089456
   137  H    0.105256
   138  H    0.006421
   139  H    0.040951
   140  H    0.021479
   141  H   -0.014247
   142  N   -0.078445
   143  C    0.024706
   144  C    0.055237
   145  O   -0.278180
   146  C    0.082294
   147  H    0.130593
   148  H   -0.014923
   149  H    0.004390
   150  H    0.029471
   151  H    0.018135
   152  N   -0.105593
   153  C    0.107663
   154  C    0.058575
   155  O   -0.292451
   156  C    0.031407
   157  C    0.040574
   158  C    0.058535
   159  O   -0.349662
   160  O   -0.372162
   161  H    0.134074
   162  H   -0.000465
   163  H   -0.003080
   164  H    0.003602
   165  H   -0.052645
   166  H   -0.021541
   167  N   -0.139683
   168  C    0.147513
   169  H    0.014046
   170  H    0.044682
   171  H    0.011541
   172  H    0.101790
   173  Ca   1.401459
   174  O   -0.315774
   175  H    0.194293
   176  H    0.217042
 Sum of Mulliken charges =  -0.00000

 Dipole moment (field-independent basis, Debye):
    X=             50.2964    Y=              0.4239    Z=             13.5472  Tot=             52.0906
 Quadrupole moment (field-independent basis, Debye-Ang):
   XX=           -723.5436   YY=           -649.3968   ZZ=           -436.5489
   XY=            382.1246   XZ=            240.9356   YZ=             99.4131

 ESP charges:
               1
     1  C   -0.430748
     2  C    0.700484
     3  O   -0.605086
     4  H    0.091879
     5  H    0.147119
     6  H    0.137310
     7  N   -0.552244
     8  C    0.204693
     9  C    0.470417
    10  O   -0.517937
    11  C   -0.270537
    12  C    0.727618
    13  O   -0.827062
    14  O   -0.706540
    15  H    0.285267
    16  H    0.080831
    17  H    0.100462
    18  H    0.085542
    19  N   -0.546812
    20  C    0.419766
    21  C    0.349128
    22  O   -0.524502
    23  C   -0.101350
    24  C    0.033134
    25  C   -0.050248
    26  C    0.135649
    27  N   -0.312405
    28  H    0.251725
    29  H    0.027388
    30  H    0.014087
    31  H    0.040781
    32  H    0.039182
    33  H   -0.013107
    34  H    0.009695
    35  H    0.023067
    36  H    0.084989
    37  H    0.040014
    38  H    0.244782
    39  H    0.271210
    40  H    0.247382
    41  N   -0.421469
    42  C    0.203450
    43  C    0.354066
    44  O   -0.503608
    45  C   -0.388192
    46  C    0.925640
    47  O   -0.887209
    48  O   -0.767200
    49  H    0.292672
    50  H    0.092139
    51  H    0.077665
    52  H    0.104609
    53  N   -0.119556
    54  C   -0.452139
    55  C    0.689787
    56  O   -0.599097
    57  H    0.228235
    58  H    0.178378
    59  H    0.189003
    60  N   -0.425813
    61  C    0.126029
    62  C    0.590939
    63  O   -0.669371
    64  C   -0.188207
    65  C    0.757586
    66  N   -0.892009
    67  O   -0.603716
    68  H    0.343443
    69  H    0.029649
    70  H    0.070599
    71  H    0.073894
    72  H    0.393463
    73  H    0.391419
    74  N   -0.343315
    75  C   -0.131329
    76  C    0.510158
    77  O   -0.565534
    78  H    0.281574
    79  H    0.142007
    80  H    0.101580
    81  N   -0.278554
    82  C    0.075484
    83  C    0.526622
    84  O   -0.505299
    85  C   -0.208855
    86  C   -0.082812
    87  C   -0.081867
    88  C   -0.004387
    89  C   -0.266935
    90  C   -0.417229
    91  C    0.416764
    92  O   -0.522163
    93  H    0.140110
    94  H    0.099409
    95  H    0.131532
    96  H    0.087831
    97  H    0.137835
    98  H    0.096203
    99  H    0.158277
   100  H    0.181647
   101  H    0.397547
   102  N   -0.496792
   103  C   -0.139846
   104  C    0.615651
   105  O   -0.516121
   106  C    0.293136
   107  C   -0.302127
   108  C   -0.278423
   109  C   -0.071570
   110  H    0.297820
   111  H    0.121496
   112  H   -0.014521
   113  H    0.073108
   114  H    0.083183
   115  H    0.086052
   116  H    0.070863
   117  H    0.076740
   118  H    0.104597
   119  H    0.033833
   120  H   -0.024716
   121  N   -0.372624
   122  C   -0.246959
   123  C    0.766784
   124  O   -0.549655
   125  C    0.186657
   126  O   -0.558912
   127  H    0.215119
   128  H    0.131494
   129  H    0.043876
   130  H    0.031320
   131  H    0.394292
   132  N   -0.658850
   133  C    0.421722
   134  C    0.503362
   135  O   -0.559689
   136  C   -0.357954
   137  H    0.332294
   138  H   -0.016814
   139  H    0.122440
   140  H    0.091266
   141  H    0.053337
   142  N   -0.546812
   143  C    0.077371
   144  C    0.691374
   145  O   -0.592274
   146  C   -0.324965
   147  H    0.348050
   148  H    0.073195
   149  H    0.102205
   150  H    0.135885
   151  H    0.089408
   152  N   -0.562256
   153  C   -0.380943
   154  C    0.687317
   155  O   -0.576177
   156  C    0.414410
   157  C   -0.175797
   158  C    0.673653
   159  O   -0.644462
   160  O   -0.656678
   161  H    0.338772
   162  H    0.122708
   163  H   -0.075301
   164  H   -0.059225
   165  H    0.002556
   166  H   -0.011204
   167  N   -0.315406
   168  C   -0.190136
   169  H    0.103267
   170  H    0.115312
   171  H    0.079877
   172  H    0.246590
   173  Ca   1.699308
   174  O   -0.842464
   175  H    0.422951
   176  H    0.468621
 Sum of ESP charges =  -0.00000

 Normal termination of Gaussian 16 at Wed Sep 18 10:14:56 2019.
