 Gaussian 16, Revision A.03,
 Gaussian 16:  ES64L-G16RevA.03 25-Dec-2016

 ----------------------------------------------------------------------
 #b3lyp/svp scf=(tight,noincore) Test #IOP(5/87=12) Density=Current Pop
 =(MK,readradii) iop(6/33=2) iop(6/42=6)
 ----------------------------------------------------------------------

 -----------------
 Ng-293_loop3_44.0
 -----------------
 Symbolic Z-matrix:
 Charge =  0 Multiplicity = 1

                         Standard orientation:
 ---------------------------------------------------------------------
 Center     Atomic      Atomic             Coordinates (Angstroms)
 Number     Number       Type             X           Y           Z
 ---------------------------------------------------------------------
      1          6           0       -8.504325    1.130978    5.417722
      2          6           0       -9.476213    0.476527    4.439445
      3          8           0      -10.538522    1.048389    4.211686
      4          1           0       -7.682313    0.445601    5.626051
      5          1           0       -8.109347    2.048025    4.979740
      6          1           0       -9.024892    1.365720    6.345953
      7          7           0       -9.192687   -0.716272    3.919115
      8          6           0       -9.961696   -1.388104    2.884820
      9          6           0       -9.421932   -1.011959    1.507950
     10          8           0       -8.295909   -0.562979    1.317713
     11          6           0      -10.049175   -2.881515    3.149147
     12          6           0       -8.714554   -3.547404    3.465815
     13          8           0       -8.725639   -4.692912    3.972066
     14          8           0       -7.688338   -2.978097    3.030303
     15          1           0       -8.324301   -1.183268    4.129640
     16          1           0      -11.002631   -1.065604    2.877881
     17          1           0      -10.499860   -3.404955    2.302333
     18          1           0      -10.839441   -3.007845    3.880461
     19          7           0      -10.201763   -1.338562    0.473738
     20          6           0      -10.066962   -0.995671   -0.929563
     21          6           0       -8.885724   -1.623248   -1.647982
     22          8           0       -9.222574   -2.287628   -2.631461
     23          6           0      -10.167751    0.502552   -1.175668
     24          6           0      -11.514833    1.118637   -0.784760
     25          6           0      -11.837813    2.589602   -0.959532
     26          6           0      -11.541685    2.990859   -2.407186
     27          7           0      -11.860198    4.411285   -2.632216
     28          1           0      -11.097972   -1.758331    0.692832
     29          1           0      -10.920555   -1.477663   -1.406179
     30          1           0       -9.906726    0.806724   -2.186581
     31          1           0       -9.370124    0.952638   -0.588374
     32          1           0      -11.538619    0.965848    0.293984
     33          1           0      -12.347410    0.596750   -1.253215
     34          1           0      -11.400486    3.123920   -0.110916
     35          1           0      -12.921875    2.645402   -0.897108
     36          1           0      -12.185776    2.273571   -2.907132
     37          1           0      -10.502835    2.773794   -2.663647
     38          1           0      -11.172304    5.012072   -2.214178
     39          1           0      -11.899528    4.635937   -3.613738
     40          1           0      -12.802550    4.693945   -2.389366
     41          7           0       -7.638594   -1.482015   -1.191671
     42          6           0       -6.439983   -1.829231   -1.919870
     43          6           0       -5.247064   -2.059707   -1.009033
     44          8           0       -5.016062   -1.307971   -0.061124
     45          6           0       -6.196367   -0.733950   -2.951864
     46          6           0       -4.943284   -1.045546   -3.768743
     47          8           0       -4.822855   -1.996306   -4.572827
     48          8           0       -4.036544   -0.200607   -3.590697
     49          1           0       -7.546081   -0.856822   -0.395446
     50          1           0       -6.639555   -2.769814   -2.438305
     51          1           0       -5.959244    0.137982   -2.351108
     52          1           0       -7.063376   -0.581093   -3.586554
     53          7           0       -4.423846   -3.087640   -1.243265
     54          6           0       -3.197936   -3.199155   -0.472999
     55          6           0       -2.033400   -2.304290   -0.849524
     56          8           0       -2.138475   -1.428251   -1.700003
     57          1           0       -4.614082   -3.697942   -2.021367
     58          1           0       -2.861628   -4.237164   -0.593136
     59          1           0       -3.524452   -3.073499    0.565461
     60          7           0       -0.879439   -2.484944   -0.195202
     61          6           0        0.345058   -1.719195   -0.291310
     62          6           0        1.675649   -2.452025   -0.377261
     63          8           0        2.682750   -1.788640   -0.634493
     64          6           0        0.218485   -0.818262    0.934414
     65          6           0       -0.818827    0.294849    0.898815
     66          7           0       -1.786802    0.159430    1.810509
     67          8           0       -0.912257    1.095378   -0.019947
     68          1           0       -0.910527   -3.331288    0.354648
     69          1           0        0.505408   -1.164741   -1.228577
     70          1           0        1.230549   -0.433760    1.065511
     71          1           0        0.107142   -1.506426    1.765757
     72          1           0       -1.762557   -0.417310    2.641343
     73          1           0       -2.489496    0.876332    1.819057
     74          7           0        1.684319   -3.780143   -0.397949
     75          6           0        2.830782   -4.529371   -0.861825
     76          6           0        4.042524   -4.601394    0.064453
     77          8           0        3.979657   -4.391914    1.274852
     78          1           0        0.810569   -4.247187   -0.614814
     79          1           0        3.168483   -4.278991   -1.867543
     80          1           0        2.623784   -5.596888   -0.891146
     81          7           0        5.212482   -4.432196   -0.552857
     82          6           0        6.468262   -3.990345    0.039665
     83          6           0        6.438458   -2.683347    0.807954
     84          8           0        7.427035   -2.291302    1.440740
     85          6           0        7.215787   -5.052474    0.837907
     86          6           0        7.250503   -6.383087    0.137576
     87          6           0        8.206329   -6.615609   -0.862839
     88          6           0        6.280713   -7.372034    0.361384
     89          6           0        8.205206   -7.812938   -1.579010
     90          6           0        6.231588   -8.584485   -0.341858
     91          6           0        7.183719   -8.764111   -1.355998
     92          8           0        7.166797   -9.899357   -2.120086
     93          1           0        5.242833   -4.654917   -1.535951
     94          1           0        7.033511   -3.709398   -0.851212
     95          1           0        6.681466   -5.184156    1.778418
     96          1           0        8.251534   -4.800496    1.056620
     97          1           0        8.940585   -5.862578   -1.131002
     98          1           0        5.539461   -7.223975    1.131530
     99          1           0        9.020839   -8.092230   -2.226497
    100          1           0        5.473363   -9.321164   -0.128083
    101          1           0        6.658812  -10.549761   -1.626603
    102          7           0        5.369715   -1.904018    0.667468
    103          6           0        5.080789   -0.573790    1.150597
    104          6           0        5.932780    0.536983    0.539127
    105          8           0        5.445580    1.565764    0.096018
    106          6           0        5.086022   -0.526490    2.679366
    107          6           0        3.967446   -1.446299    3.158680
    108          6           0        5.013274    0.876821    3.269387
    109          6           0        4.128722   -1.928516    4.601059
    110          1           0        4.635948   -2.243472    0.052199
    111          1           0        4.072895   -0.382836    0.795371
    112          1           0        6.017450   -1.003407    2.973122
    113          1           0        4.038774   -2.389971    2.613707
    114          1           0        3.040981   -0.984570    2.826915
    115          1           0        5.162190    0.889048    4.354732
    116          1           0        5.834395    1.473292    2.869909
    117          1           0        4.165978    1.500914    2.988320
    118          1           0        4.102525   -1.169738    5.375765
    119          1           0        3.323764   -2.642608    4.776028
    120          1           0        4.969874   -2.597673    4.775676
    121          7           0        7.258044    0.397509    0.439022
    122          6           0        8.089076    1.187903   -0.447072
    123          6           0        8.440676    2.607164   -0.026388
    124          8           0        8.968599    3.433209   -0.766351
    125          6           0        9.426087    0.467143   -0.502806
    126          8           0        9.114058   -0.646639   -1.308739
    127          1           0        7.788888   -0.399591    0.750531
    128          1           0        7.625930    1.142051   -1.438987
    129          1           0        9.816454    0.283904    0.500108
    130          1           0       10.117414    1.096951   -1.066729
    131          1           0        9.941773   -1.128446   -1.421210
    132          7           0        8.127468    2.972449    1.217987
    133          6           0        7.963009    4.344827    1.647906
    134          6           0        7.040333    5.143979    0.750340
    135          8           0        7.123708    6.368695    0.690184
    136          6           0        9.283822    5.072093    1.887569
    137          1           0        7.778244    2.226196    1.802067
    138          1           0        7.412131    4.312270    2.588743
    139          1           0        9.818893    5.276501    0.957561
    140          1           0        9.118306    6.067008    2.312949
    141          1           0        9.819439    4.524429    2.670945
    142          7           0        6.109887    4.506695    0.031076
    143          6           0        5.145134    5.008510   -0.937342
    144          6           0        3.771715    5.366514   -0.404657
    145          8           0        3.336246    4.753897    0.564656
    146          6           0        5.033433    4.026230   -2.106422
    147          1           0        6.152976    3.504933    0.071277
    148          1           0        5.553458    5.909529   -1.407167
    149          1           0        6.003338    3.771998   -2.538567
    150          1           0        4.464635    3.156426   -1.793676
    151          1           0        4.424323    4.500040   -2.877777
    152          7           0        3.036936    6.326160   -0.989275
    153          6           0        1.726239    6.852740   -0.676244
    154          6           0        1.646356    7.612891    0.635506
    155          8           0        0.548201    7.641479    1.201578
    156          6           0        0.619636    5.837616   -0.975501
    157          6           0        0.602868    5.250283   -2.382078
    158          6           0       -0.542948    4.242843   -2.408016
    159          8           0       -0.362085    3.004992   -2.418611
    160          8           0       -1.720221    4.640126   -2.323197
    161          1           0        3.430742    6.589567   -1.879742
    162          1           0        1.617892    7.620034   -1.449497
    163          1           0       -0.258769    6.467298   -0.855069
    164          1           0        0.595894    5.026219   -0.249229
    165          1           0        1.543223    4.786819   -2.658182
    166          1           0        0.287677    6.011079   -3.095552
    167          7           0        2.702304    8.222289    1.177086
    168          6           0        2.701984    8.645432    2.560216
    169          1           0        3.403117    8.032505    3.127661
    170          1           0        3.003315    9.691277    2.620510
    171          1           0        1.701021    8.530649    2.975267
    172          1           0        3.532074    8.342576    0.608569
    173         20           0       -1.879802    0.980819   -2.670916
    174          8           0        0.253151   -0.042970   -3.598744
    175          1           0        0.771017   -0.845331   -3.573599
    176          1           0        0.864952    0.629180   -3.897935
 ---------------------------------------------------------------------

 SCF Done:  E(RB3LYP) =  -5333.37344374     A.U. after   30 cycles

 The electronic state is 1-A.
 Alpha  occ. eigenvalues -- -145.42520 -19.21425 -19.17739 -19.16493 -19.15104
 Alpha  occ. eigenvalues --  -19.14816 -19.13644 -19.13554 -19.11345 -19.10773
 Alpha  occ. eigenvalues --  -19.09144 -19.08262 -19.06857 -19.06687 -19.06513
 Alpha  occ. eigenvalues --  -19.06450 -19.06243 -19.03993 -19.03812 -19.03318
 Alpha  occ. eigenvalues --  -19.01270 -19.01257 -18.96455 -18.95738 -15.48371
 Alpha  occ. eigenvalues --  -14.58071 -14.42732 -14.41263 -14.39562 -14.38307
 Alpha  occ. eigenvalues --  -14.36342 -14.35526 -14.35429 -14.34887 -14.33693
 Alpha  occ. eigenvalues --  -14.33620 -14.33122 -14.31932 -14.31695 -14.29523
 Alpha  occ. eigenvalues --  -12.62001 -12.61972 -12.61869 -10.35199 -10.34405
 Alpha  occ. eigenvalues --  -10.33533 -10.32761 -10.32611 -10.30371 -10.29721
 Alpha  occ. eigenvalues --  -10.29094 -10.28837 -10.27847 -10.26955 -10.26797
 Alpha  occ. eigenvalues --  -10.26710 -10.26688 -10.25732 -10.25708 -10.25640
 Alpha  occ. eigenvalues --  -10.25619 -10.25521 -10.25142 -10.24849 -10.23662
 Alpha  occ. eigenvalues --  -10.23632 -10.23492 -10.23293 -10.22848 -10.22748
 Alpha  occ. eigenvalues --  -10.22578 -10.22063 -10.21841 -10.21690 -10.21528
 Alpha  occ. eigenvalues --  -10.21030 -10.20988 -10.20943 -10.20907 -10.20766
 Alpha  occ. eigenvalues --  -10.20597 -10.20596 -10.20444 -10.19777 -10.18935
 Alpha  occ. eigenvalues --  -10.18524 -10.17747 -10.17655 -10.17425 -10.17314
 Alpha  occ. eigenvalues --  -10.16272 -10.16138 -10.15340 -10.14919 -10.14818
 Alpha  occ. eigenvalues --  -10.14740 -10.12111  -1.84944  -1.13357  -1.12763
 Alpha  occ. eigenvalues --   -1.12548  -1.11623  -1.09700  -1.07943  -1.07272
 Alpha  occ. eigenvalues --   -1.06914  -1.06523  -1.06266  -1.04876  -1.03966
 Alpha  occ. eigenvalues --   -1.03395  -1.02459  -1.01668  -1.00499  -1.00409
 Alpha  occ. eigenvalues --   -0.99506  -0.99224  -0.99121  -0.99103  -0.97845
 Alpha  occ. eigenvalues --   -0.97755  -0.96989  -0.96585  -0.96107  -0.93503
 Alpha  occ. eigenvalues --   -0.93254  -0.92791  -0.91415  -0.91334  -0.90659
 Alpha  occ. eigenvalues --   -0.90600  -0.90381  -0.89178  -0.88824  -0.88719
 Alpha  occ. eigenvalues --   -0.88610  -0.86749  -0.86580  -0.86539  -0.86288
 Alpha  occ. eigenvalues --   -0.84371  -0.82550  -0.81235  -0.80848  -0.80831
 Alpha  occ. eigenvalues --   -0.78813  -0.78341  -0.77195  -0.77046  -0.76220
 Alpha  occ. eigenvalues --   -0.76090  -0.75680  -0.75240  -0.74171  -0.73894
 Alpha  occ. eigenvalues --   -0.73515  -0.73398  -0.72917  -0.71984  -0.70862
 Alpha  occ. eigenvalues --   -0.70854  -0.70670  -0.68312  -0.68079  -0.67330
 Alpha  occ. eigenvalues --   -0.67204  -0.65976  -0.65600  -0.64873  -0.64791
 Alpha  occ. eigenvalues --   -0.63982  -0.63851  -0.63651  -0.63419  -0.63354
 Alpha  occ. eigenvalues --   -0.62960  -0.62408  -0.62248  -0.61863  -0.61654
 Alpha  occ. eigenvalues --   -0.60578  -0.60040  -0.59990  -0.59677  -0.59625
 Alpha  occ. eigenvalues --   -0.59056  -0.58100  -0.58000  -0.57399  -0.57174
 Alpha  occ. eigenvalues --   -0.56767  -0.56392  -0.56256  -0.56230  -0.56172
 Alpha  occ. eigenvalues --   -0.55416  -0.55232  -0.54886  -0.54884  -0.54526
 Alpha  occ. eigenvalues --   -0.54423  -0.54293  -0.53398  -0.52993  -0.52895
 Alpha  occ. eigenvalues --   -0.52528  -0.52052  -0.51909  -0.51416  -0.50916
 Alpha  occ. eigenvalues --   -0.50389  -0.49921  -0.49560  -0.49452  -0.49217
 Alpha  occ. eigenvalues --   -0.48879  -0.48642  -0.48450  -0.48155  -0.47934
 Alpha  occ. eigenvalues --   -0.47849  -0.47726  -0.47528  -0.47258  -0.47192
 Alpha  occ. eigenvalues --   -0.46975  -0.46974  -0.46515  -0.46436  -0.46084
 Alpha  occ. eigenvalues --   -0.45931  -0.45820  -0.45730  -0.45374  -0.45239
 Alpha  occ. eigenvalues --   -0.45146  -0.45069  -0.44595  -0.44519  -0.44467
 Alpha  occ. eigenvalues --   -0.44378  -0.44222  -0.44080  -0.43721  -0.43524
 Alpha  occ. eigenvalues --   -0.43400  -0.43324  -0.43278  -0.42646  -0.42472
 Alpha  occ. eigenvalues --   -0.42239  -0.42177  -0.42110  -0.41948  -0.41754
 Alpha  occ. eigenvalues --   -0.41456  -0.41351  -0.41034  -0.40801  -0.40712
 Alpha  occ. eigenvalues --   -0.40471  -0.40387  -0.40319  -0.40192  -0.40030
 Alpha  occ. eigenvalues --   -0.39940  -0.39873  -0.39686  -0.39305  -0.39243
 Alpha  occ. eigenvalues --   -0.39075  -0.39035  -0.38957  -0.38796  -0.38458
 Alpha  occ. eigenvalues --   -0.38434  -0.38273  -0.38214  -0.38074  -0.37833
 Alpha  occ. eigenvalues --   -0.37735  -0.37697  -0.37548  -0.37217  -0.37141
 Alpha  occ. eigenvalues --   -0.36870  -0.36709  -0.36665  -0.36652  -0.36315
 Alpha  occ. eigenvalues --   -0.36181  -0.36018  -0.35820  -0.35752  -0.35337
 Alpha  occ. eigenvalues --   -0.35150  -0.35024  -0.34692  -0.34619  -0.34525
 Alpha  occ. eigenvalues --   -0.34472  -0.34294  -0.34257  -0.34219  -0.33936
 Alpha  occ. eigenvalues --   -0.33522  -0.33131  -0.33039  -0.32916  -0.32504
 Alpha  occ. eigenvalues --   -0.32365  -0.32239  -0.31944  -0.31868  -0.31803
 Alpha  occ. eigenvalues --   -0.31287  -0.31230  -0.31088  -0.30943  -0.30872
 Alpha  occ. eigenvalues --   -0.30674  -0.30290  -0.30014  -0.29572  -0.29372
 Alpha  occ. eigenvalues --   -0.28593  -0.27913  -0.27784  -0.27663  -0.27023
 Alpha  occ. eigenvalues --   -0.26505  -0.26391  -0.25833  -0.25249  -0.25210
 Alpha  occ. eigenvalues --   -0.24739  -0.24441  -0.24257  -0.24115  -0.23438
 Alpha  occ. eigenvalues --   -0.23081  -0.22977  -0.22621  -0.22255  -0.22167
 Alpha  occ. eigenvalues --   -0.21927  -0.21595  -0.21570  -0.20639  -0.20096
 Alpha  occ. eigenvalues --   -0.20019  -0.19968  -0.19520  -0.17316  -0.17100
 Alpha  occ. eigenvalues --   -0.13741  -0.13678  -0.11409
 Alpha virt. eigenvalues --   -0.10450  -0.05601  -0.04286  -0.04251  -0.03773
 Alpha virt. eigenvalues --   -0.03608  -0.03369  -0.03143  -0.01895  -0.01597
 Alpha virt. eigenvalues --   -0.01406  -0.01136  -0.00847   0.00436   0.00849

 Mulliken charges:
               1
     1  C    0.072847
     2  C   -0.000621
     3  O   -0.332645
     4  H   -0.002941
     5  H    0.021987
     6  H    0.025492
     7  N   -0.098441
     8  C    0.125268
     9  C    0.091378
    10  O   -0.268020
    11  C    0.064065
    12  C    0.048826
    13  O   -0.364097
    14  O   -0.386310
    15  H    0.127357
    16  H   -0.028726
    17  H   -0.024765
    18  H   -0.021531
    19  N   -0.126621
    20  C    0.115899
    21  C    0.071227
    22  O   -0.298232
    23  C    0.027354
    24  C   -0.028117
    25  C    0.002246
    26  C   -0.009718
    27  N    0.125053
    28  H    0.113568
    29  H   -0.013148
    30  H   -0.012475
    31  H    0.017931
    32  H    0.041666
    33  H    0.000141
    34  H    0.055079
    35  H    0.011103
    36  H    0.075940
    37  H    0.095388
    38  H    0.177426
    39  H    0.154756
    40  H    0.157833
    41  N   -0.107173
    42  C    0.103395
    43  C    0.103598
    44  O   -0.287798
    45  C    0.112668
    46  C    0.081181
    47  O   -0.350660
    48  O   -0.498226
    49  H    0.142963
    50  H   -0.001620
    51  H   -0.035865
    52  H    0.005216
    53  N   -0.127244
    54  C    0.171192
    55  C    0.109392
    56  O   -0.334900
    57  H    0.131938
    58  H    0.011978
    59  H    0.075547
    60  N   -0.149926
    61  C    0.087903
    62  C    0.076618
    63  O   -0.284664
    64  C    0.064142
    65  C    0.105721
    66  N   -0.044017
    67  O   -0.283355
    68  H    0.126205
    69  H    0.021739
    70  H    0.065966
    71  H   -0.005283
    72  H    0.137577
    73  H    0.146888
    74  N   -0.085628
    75  C    0.163175
    76  C    0.046318
    77  O   -0.251864
    78  H    0.129015
    79  H    0.017711
    80  H    0.035950
    81  N   -0.158336
    82  C    0.109984
    83  C    0.086549
    84  O   -0.315648
    85  C    0.199931
    86  C   -0.033176
    87  C   -0.032794
    88  C   -0.029718
    89  C   -0.002349
    90  C   -0.036293
    91  C    0.145800
    92  O   -0.200374
    93  H    0.128478
    94  H    0.019034
    95  H    0.001799
    96  H    0.017011
    97  H   -0.026677
    98  H   -0.020734
    99  H   -0.018340
   100  H   -0.038855
   101  H    0.174284
   102  N   -0.106041
   103  C    0.183465
   104  C    0.052886
   105  O   -0.257450
   106  C   -0.132224
   107  C    0.015522
   108  C    0.113117
   109  C    0.052238
   110  H    0.131796
   111  H    0.002640
   112  H   -0.003290
   113  H    0.011218
   114  H   -0.041893
   115  H    0.009571
   116  H   -0.027119
   117  H    0.024558
   118  H    0.009936
   119  H   -0.008617
   120  H    0.006896
   121  N   -0.131145
   122  C    0.068797
   123  C    0.030742
   124  O   -0.262893
   125  C    0.197010
   126  O   -0.301359
   127  H    0.134368
   128  H    0.027334
   129  H    0.006783
   130  H    0.021182
   131  H    0.159950
   132  N   -0.126306
   133  C    0.084704
   134  C    0.028345
   135  O   -0.286202
   136  C    0.093190
   137  H    0.118390
   138  H    0.020704
   139  H    0.035051
   140  H    0.013267
   141  H   -0.013043
   142  N   -0.100005
   143  C    0.103037
   144  C    0.053156
   145  O   -0.269532
   146  C    0.031446
   147  H    0.123491
   148  H   -0.012614
   149  H    0.035627
   150  H    0.030236
   151  H   -0.012573
   152  N   -0.140453
   153  C    0.132088
   154  C    0.070341
   155  O   -0.282650
   156  C    0.019620
   157  C    0.123981
   158  C    0.063885
   159  O   -0.493264
   160  O   -0.374074
   161  H    0.105859
   162  H   -0.010330
   163  H    0.019208
   164  H    0.029989
   165  H   -0.038888
   166  H   -0.021332
   167  N   -0.144144
   168  C    0.128532
   169  H    0.026565
   170  H    0.009866
   171  H    0.047372
   172  H    0.114587
   173  Ca   1.380836
   174  O   -0.299858
   175  H    0.197030
   176  H    0.198118
 Sum of Mulliken charges =  -0.00000

 Dipole moment (field-independent basis, Debye):
    X=             -4.7221    Y=              6.9340    Z=            -17.4789  Tot=             19.3880
 Quadrupole moment (field-independent basis, Debye-Ang):
   XX=           -332.9676   YY=           -539.7279   ZZ=           -597.2852
   XY=           -336.5613   XZ=            168.8443   YZ=            -14.5066

 ESP charges:
               1
     1  C   -0.487852
     2  C    0.743202
     3  O   -0.626295
     4  H    0.113771
     5  H    0.126115
     6  H    0.132624
     7  N   -0.587225
     8  C    0.346887
     9  C    0.502985
    10  O   -0.543042
    11  C   -0.255065
    12  C    0.643785
    13  O   -0.659759
    14  O   -0.645613
    15  H    0.296596
    16  H   -0.034671
    17  H    0.062997
    18  H    0.039582
    19  N   -0.460544
    20  C   -0.100844
    21  C    0.644699
    22  O   -0.581861
    23  C   -0.098488
    24  C    0.096058
    25  C   -0.165137
    26  C    0.064896
    27  N   -0.456347
    28  H    0.269585
    29  H    0.106089
    30  H   -0.015707
    31  H    0.082324
    32  H    0.017343
    33  H    0.007179
    34  H    0.087983
    35  H    0.056123
    36  H    0.103374
    37  H    0.103193
    38  H    0.351201
    39  H    0.317229
    40  H    0.330727
    41  N   -0.290786
    42  C   -0.239822
    43  C    0.677847
    44  O   -0.495742
    45  C   -0.268708
    46  C    0.823070
    47  O   -0.678665
    48  O   -0.849915
    49  H    0.286609
    50  H    0.114856
    51  H    0.047442
    52  H    0.115205
    53  N   -0.473816
    54  C   -0.028515
    55  C    0.603644
    56  O   -0.552478
    57  H    0.322254
    58  H    0.066869
    59  H    0.104640
    60  N   -0.560106
    61  C    0.272920
    62  C    0.559698
    63  O   -0.487652
    64  C   -0.554337
    65  C    0.828191
    66  N   -0.820253
    67  O   -0.585685
    68  H    0.261251
    69  H    0.007203
    70  H    0.179863
    71  H    0.150755
    72  H    0.399060
    73  H    0.384461
    74  N   -0.457028
    75  C   -0.081697
    76  C    0.592400
    77  O   -0.520578
    78  H    0.315673
    79  H    0.072895
    80  H    0.096356
    81  N   -0.591033
    82  C    0.209635
    83  C    0.434885
    84  O   -0.544963
    85  C   -0.281269
    86  C    0.102761
    87  C   -0.149788
    88  C   -0.152874
    89  C   -0.256629
    90  C   -0.351215
    91  C    0.384299
    92  O   -0.535515
    93  H    0.325629
    94  H    0.064116
    95  H    0.127318
    96  H    0.105486
    97  H    0.128958
    98  H    0.148944
    99  H    0.160855
   100  H    0.166075
   101  H    0.396791
   102  N   -0.276294
   103  C   -0.108128
   104  C    0.813031
   105  O   -0.639169
   106  C    0.293232
   107  C    0.113104
   108  C   -0.423031
   109  C   -0.317745
   110  H    0.189316
   111  H    0.044993
   112  H   -0.034465
   113  H    0.051688
   114  H   -0.061940
   115  H    0.107004
   116  H    0.080632
   117  H    0.116585
   118  H    0.066711
   119  H    0.058493
   120  H    0.096997
   121  N   -0.645085
   122  C    0.096803
   123  C    0.342274
   124  O   -0.482186
   125  C    0.079346
   126  O   -0.588921
   127  H    0.348630
   128  H    0.137713
   129  H    0.059500
   130  H    0.058362
   131  H    0.398139
   132  N   -0.341755
   133  C    0.266505
   134  C    0.562844
   135  O   -0.560391
   136  C   -0.338589
   137  H    0.216077
   138  H    0.027973
   139  H    0.127064
   140  H    0.081585
   141  H    0.064964
   142  N   -0.647177
   143  C    0.597595
   144  C    0.375638
   145  O   -0.486609
   146  C   -0.209896
   147  H    0.253101
   148  H   -0.062136
   149  H    0.052614
   150  H    0.078375
   151  H    0.010780
   152  N   -0.607519
   153  C    0.247650
   154  C    0.297118
   155  O   -0.503471
   156  C    0.289941
   157  C   -0.087720
   158  C    0.701147
   159  O   -0.819391
   160  O   -0.695702
   161  H    0.271266
   162  H    0.004514
   163  H   -0.070107
   164  H   -0.011298
   165  H   -0.019729
   166  H   -0.010086
   167  N   -0.209585
   168  C    0.024786
   169  H    0.039593
   170  H    0.008951
   171  H    0.070503
   172  H    0.210606
   173  Ca   1.631982
   174  O   -0.841549
   175  H    0.453116
   176  H    0.422895
 Sum of ESP charges =  -0.00000

 Normal termination of Gaussian 16 at Tue Sep 17 10:18:52 2019.
