 Gaussian 16, Revision A.03,
 Gaussian 16:  ES64L-G16RevA.03 25-Dec-2016

 ----------------------------------------------------------------------
 #b3lyp/svp scf=(tight,noincore) Test #IOP(5/87=12) Density=Current Pop
 =(MK,readradii) iop(6/33=2) iop(6/42=6)
 ----------------------------------------------------------------------

 -----------------
 Ng-295_loop3_31.0
 -----------------
 Symbolic Z-matrix:
 Charge =  0 Multiplicity = 1

                         Standard orientation:
 ---------------------------------------------------------------------
 Center     Atomic      Atomic             Coordinates (Angstroms)
 Number     Number       Type             X           Y           Z
 ---------------------------------------------------------------------
      1          6           0       -6.869996   -6.623571   -3.981375
      2          6           0       -5.967341   -6.103140   -2.877488
      3          8           0       -5.053919   -6.769753   -2.403689
      4          1           0       -7.307313   -5.782189   -4.519343
      5          1           0       -6.286647   -7.232322   -4.671890
      6          1           0       -7.666072   -7.228298   -3.546267
      7          7           0       -6.116726   -4.837267   -2.500327
      8          6           0       -5.145047   -4.144532   -1.676703
      9          6           0       -5.459855   -4.437132   -0.221443
     10          8           0       -6.550443   -4.793452    0.200760
     11          6           0       -5.229143   -2.673526   -2.062927
     12          6           0       -4.292220   -1.599132   -1.518819
     13          8           0       -3.778234   -1.812153   -0.395324
     14          8           0       -4.029034   -0.494366   -2.019342
     15          1           0       -6.762504   -4.224719   -2.980698
     16          1           0       -4.177460   -4.557004   -1.985641
     17          1           0       -6.274826   -2.388486   -1.923287
     18          1           0       -5.016727   -2.640356   -3.134505
     19          7           0       -4.459878   -4.274608    0.653903
     20          6           0       -4.543391   -4.472060    2.087967
     21          6           0       -5.285353   -3.311710    2.724584
     22          8           0       -5.763298   -3.611282    3.816749
     23          6           0       -3.180874   -4.677861    2.741949
     24          6           0       -2.137230   -3.636059    2.346404
     25          6           0       -0.775973   -3.723204    3.038059
     26          6           0       -0.773891   -3.219532    4.472531
     27          7           0        0.547485   -3.222622    5.115768
     28          1           0       -3.626628   -3.845392    0.274866
     29          1           0       -5.251250   -5.293987    2.237537
     30          1           0       -2.799128   -5.605806    2.322202
     31          1           0       -3.303504   -4.776912    3.827606
     32          1           0       -2.614192   -2.674077    2.488527
     33          1           0       -1.877820   -3.876363    1.314871
     34          1           0       -0.021740   -3.185813    2.461653
     35          1           0       -0.503904   -4.779637    3.043237
     36          1           0       -1.458200   -3.894508    4.996201
     37          1           0       -1.132876   -2.191683    4.419096
     38          1           0        1.034000   -2.385711    4.821346
     39          1           0        0.523537   -3.234263    6.123186
     40          1           0        1.163830   -3.989044    4.872014
     41          7           0       -5.414245   -2.107257    2.143826
     42          6           0       -6.289545   -1.080472    2.679048
     43          6           0       -7.247413   -0.515074    1.638609
     44          8           0       -8.400362   -0.193916    1.921041
     45          6           0       -5.467004   -0.040586    3.428889
     46          6           0       -4.417517    0.667007    2.597030
     47          8           0       -3.980221    1.700561    3.138915
     48          8           0       -4.180030    0.355732    1.408709
     49          1           0       -4.875213   -1.920701    1.319422
     50          1           0       -6.923138   -1.593455    3.402933
     51          1           0       -5.059975   -0.438264    4.363276
     52          1           0       -6.240323    0.642389    3.778924
     53          7           0       -6.946256   -0.456240    0.348476
     54          6           0       -7.752101    0.213523   -0.654585
     55          6           0       -7.538620    1.696319   -0.887483
     56          8           0       -8.479696    2.484296   -0.929535
     57          1           0       -5.992043   -0.691687    0.107970
     58          1           0       -8.791547    0.176632   -0.320982
     59          1           0       -7.599010   -0.386138   -1.553233
     60          7           0       -6.262982    2.104687   -0.896712
     61          6           0       -5.723594    3.429280   -1.071677
     62          6           0       -4.343208    3.329590   -1.704287
     63          8           0       -3.625446    2.341173   -1.545383
     64          6           0       -5.609785    4.012322    0.334207
     65          6           0       -6.911158    4.498028    0.948142
     66          7           0       -7.548027    5.549806    0.427794
     67          8           0       -7.318116    4.043607    2.020750
     68          1           0       -5.579178    1.355809   -0.835111
     69          1           0       -6.376157    4.062261   -1.661758
     70          1           0       -5.004672    4.926163    0.311108
     71          1           0       -5.196451    3.281406    1.025668
     72          1           0       -7.128797    5.955947   -0.402082
     73          1           0       -8.425658    5.954873    0.717940
     74          7           0       -4.092456    4.212502   -2.666466
     75          6           0       -3.171345    4.059765   -3.779132
     76          6           0       -1.700778    4.144024   -3.408682
     77          8           0       -0.838318    3.804017   -4.228107
     78          1           0       -4.713761    4.996437   -2.799234
     79          1           0       -3.465618    4.891074   -4.419154
     80          1           0       -3.343931    3.100409   -4.269794
     81          7           0       -1.333651    4.487864   -2.180597
     82          6           0        0.023146    4.545274   -1.657715
     83          6           0        0.523775    3.116669   -1.470744
     84          8           0       -0.201046    2.206258   -1.101440
     85          6           0        0.016052    5.239095   -0.304843
     86          6           0        1.397503    5.574754    0.226406
     87          6           0        1.771428    5.192313    1.528450
     88          6           0        2.163374    6.498609   -0.483829
     89          6           0        3.011984    5.634642    1.987106
     90          6           0        3.339483    7.024781    0.053674
     91          6           0        3.815477    6.576565    1.306165
     92          8           0        4.974163    7.013282    1.870014
     93          1           0       -2.056364    4.720472   -1.511957
     94          1           0        0.582597    5.130926   -2.392648
     95          1           0       -0.593510    4.710765    0.428369
     96          1           0       -0.447487    6.198507   -0.523156
     97          1           0        1.123067    4.545011    2.101537
     98          1           0        1.816649    6.739628   -1.477555
     99          1           0        3.372083    5.216597    2.912399
    100          1           0        3.921468    7.689063   -0.577771
    101          1           0        5.324148    7.768421    1.374661
    102          7           0        1.837171    3.003810   -1.695140
    103          6           0        2.792053    1.939604   -1.435586
    104          6           0        3.005289    1.795886    0.062137
    105          8           0        2.111709    1.920749    0.897197
    106          6           0        2.406938    0.636339   -2.137574
    107          6           0        3.014683   -0.597518   -1.488001
    108          6           0        2.712425    0.640703   -3.624973
    109          6           0        2.607900   -1.895286   -2.189448
    110          1           0        2.264387    3.802255   -2.125224
    111          1           0        3.688686    2.302242   -1.926650
    112          1           0        1.331225    0.529102   -1.987099
    113          1           0        2.729320   -0.642877   -0.441526
    114          1           0        4.108928   -0.526168   -1.455805
    115          1           0        2.380352    1.607126   -4.009622
    116          1           0        3.796089    0.542473   -3.587245
    117          1           0        2.399556   -0.204324   -4.241530
    118          1           0        2.787576   -2.711500   -1.486660
    119          1           0        1.549131   -1.965829   -2.472524
    120          1           0        3.163279   -1.887947   -3.125717
    121          7           0        4.225205    1.368635    0.397490
    122          6           0        4.799149    1.353703    1.724617
    123          6           0        6.295406    1.621261    1.815887
    124          8           0        6.674469    2.082403    2.884605
    125          6           0        4.323954    0.083860    2.435382
    126          8           0        4.831299   -1.052251    1.767659
    127          1           0        4.912660    1.368151   -0.345143
    128          1           0        4.366857    2.155640    2.324549
    129          1           0        3.233991    0.043627    2.443352
    130          1           0        4.575905    0.063611    3.489758
    131          1           0        4.198101   -1.745525    1.936571
    132          7           0        7.056115    1.152148    0.821023
    133          6           0        8.480398    0.852174    0.839304
    134          6           0        8.920574    0.048646    2.049712
    135          8           0        9.590890    0.565474    2.942161
    136          6           0        9.224349    2.180162    0.689689
    137          1           0        6.491757    0.803445    0.060887
    138          1           0        8.683535    0.228987   -0.034008
    139          1           0       10.272668    2.013530    0.931064
    140          1           0        9.203131    2.699909   -0.265880
    141          1           0        8.822938    2.912522    1.385044
    142          7           0        8.570274   -1.220865    2.214125
    143          6           0        7.731988   -2.099770    1.415939
    144          6           0        8.561284   -2.839953    0.377287
    145          8           0        9.736209   -3.172322    0.534389
    146          6           0        6.881338   -3.060843    2.251184
    147          1           0        8.903359   -1.647265    3.066614
    148          1           0        7.019833   -1.470242    0.877209
    149          1           0        5.986949   -3.272370    1.666440
    150          1           0        7.455992   -3.948543    2.494209
    151          1           0        6.606146   -2.525586    3.165442
    152          7           0        8.057309   -3.070683   -0.826737
    153          6           0        6.826682   -2.722927   -1.522598
    154          6           0        7.176237   -1.846093   -2.717158
    155          8           0        6.240158   -1.164620   -3.140303
    156          6           0        6.019500   -3.955160   -1.920918
    157          6           0        5.210409   -4.512299   -0.753242
    158          6           0        4.147698   -5.488794   -1.230320
    159          8           0        2.939658   -5.167082   -1.126674
    160          8           0        4.416303   -6.621692   -1.695823
    161          1           0        8.742753   -3.672703   -1.267461
    162          1           0        6.153229   -2.085787   -0.958493
    163          1           0        6.786935   -4.667547   -2.207705
    164          1           0        5.427118   -3.622901   -2.774902
    165          1           0        4.793855   -3.637195   -0.266441
    166          1           0        5.817529   -5.047966   -0.014618
    167          7           0        8.386642   -1.895121   -3.278776
    168          6           0        8.850547   -1.343999   -4.531954
    169          1           0        8.188519   -0.534253   -4.838965
    170          1           0        9.862608   -0.958101   -4.407290
    171          1           0        8.849848   -2.123033   -5.294166
    172          1           0        9.002252   -2.598204   -2.901814
    173         20           0       -2.249864    0.449429   -0.389597
    174          8           0       -2.563670    2.677019    1.189506
    175          1           0       -2.913821    2.360999    2.021868
    176          1           0       -2.491580    3.622762    1.305581
 ---------------------------------------------------------------------

 SCF Done:  E(RB3LYP) =  -5333.38054845     A.U. after   29 cycles

 The electronic state is 1-A.
 Alpha  occ. eigenvalues -- -145.46086 -19.19308 -19.17778 -19.16453 -19.15901
 Alpha  occ. eigenvalues --  -19.13955 -19.13804 -19.12607 -19.12049 -19.10737
 Alpha  occ. eigenvalues --  -19.10433 -19.10218 -19.09146 -19.09050 -19.08859
 Alpha  occ. eigenvalues --  -19.08669 -19.07982 -19.07947 -19.07513 -19.07506
 Alpha  occ. eigenvalues --  -19.06770 -19.06575 -18.97802 -18.97345 -15.51811
 Alpha  occ. eigenvalues --  -14.57857 -14.41788 -14.39921 -14.39492 -14.39394
 Alpha  occ. eigenvalues --  -14.38939 -14.37134 -14.35672 -14.35641 -14.35526
 Alpha  occ. eigenvalues --  -14.35271 -14.34480 -14.33757 -14.33464 -14.33312
 Alpha  occ. eigenvalues --  -12.65427 -12.65406 -12.65350 -10.34488 -10.34404
 Alpha  occ. eigenvalues --  -10.33770 -10.32277 -10.32124 -10.31215 -10.30138
 Alpha  occ. eigenvalues --  -10.28902 -10.28596 -10.28395 -10.28324 -10.28163
 Alpha  occ. eigenvalues --  -10.28090 -10.28077 -10.27990 -10.27378 -10.27281
 Alpha  occ. eigenvalues --  -10.27150 -10.27054 -10.26868 -10.26720 -10.26676
 Alpha  occ. eigenvalues --  -10.26412 -10.26231 -10.25883 -10.25883 -10.24311
 Alpha  occ. eigenvalues --  -10.23969 -10.23969 -10.23802 -10.23548 -10.23478
 Alpha  occ. eigenvalues --  -10.22928 -10.22413 -10.22350 -10.22296 -10.22142
 Alpha  occ. eigenvalues --  -10.21951 -10.21731 -10.21419 -10.21278 -10.21150
 Alpha  occ. eigenvalues --  -10.21148 -10.20959 -10.20219 -10.18812 -10.18514
 Alpha  occ. eigenvalues --  -10.18503 -10.18408 -10.17710 -10.17221 -10.17007
 Alpha  occ. eigenvalues --  -10.16071 -10.14453  -1.88349  -1.15833  -1.15612
 Alpha  occ. eigenvalues --   -1.15244  -1.13183  -1.09167  -1.08448  -1.07719
 Alpha  occ. eigenvalues --   -1.06937  -1.06530  -1.05996  -1.05630  -1.05060
 Alpha  occ. eigenvalues --   -1.03633  -1.02910  -1.02828  -1.02291  -1.02259
 Alpha  occ. eigenvalues --   -1.02123  -1.01112  -1.00878  -1.00615  -1.00240
 Alpha  occ. eigenvalues --   -1.00208  -0.98443  -0.97301  -0.96900  -0.95845
 Alpha  occ. eigenvalues --   -0.95157  -0.94842  -0.93700  -0.93236  -0.92721
 Alpha  occ. eigenvalues --   -0.92292  -0.92095  -0.91716  -0.91504  -0.91171
 Alpha  occ. eigenvalues --   -0.90297  -0.89523  -0.89269  -0.88760  -0.88353
 Alpha  occ. eigenvalues --   -0.84886  -0.82976  -0.81816  -0.81482  -0.81472
 Alpha  occ. eigenvalues --   -0.80778  -0.79066  -0.78923  -0.78340  -0.78245
 Alpha  occ. eigenvalues --   -0.77482  -0.77332  -0.76833  -0.76587  -0.75519
 Alpha  occ. eigenvalues --   -0.74890  -0.73469  -0.72629  -0.72550  -0.72409
 Alpha  occ. eigenvalues --   -0.71851  -0.71746  -0.69949  -0.69516  -0.68912
 Alpha  occ. eigenvalues --   -0.68851  -0.68645  -0.67354  -0.66993  -0.66482
 Alpha  occ. eigenvalues --   -0.66273  -0.65510  -0.65361  -0.64933  -0.63929
 Alpha  occ. eigenvalues --   -0.63203  -0.62632  -0.62410  -0.62068  -0.62005
 Alpha  occ. eigenvalues --   -0.61437  -0.60544  -0.60246  -0.60047  -0.59952
 Alpha  occ. eigenvalues --   -0.59713  -0.59678  -0.59383  -0.58972  -0.58361
 Alpha  occ. eigenvalues --   -0.57897  -0.57860  -0.57489  -0.57365  -0.57199
 Alpha  occ. eigenvalues --   -0.57093  -0.56532  -0.56109  -0.55608  -0.55117
 Alpha  occ. eigenvalues --   -0.55014  -0.54500  -0.54325  -0.53985  -0.53678
 Alpha  occ. eigenvalues --   -0.53481  -0.53002  -0.52752  -0.52517  -0.52300
 Alpha  occ. eigenvalues --   -0.51971  -0.51849  -0.51479  -0.50545  -0.50400
 Alpha  occ. eigenvalues --   -0.50358  -0.49972  -0.49824  -0.49680  -0.49387
 Alpha  occ. eigenvalues --   -0.49193  -0.49000  -0.48749  -0.48629  -0.48504
 Alpha  occ. eigenvalues --   -0.48252  -0.48062  -0.47879  -0.47717  -0.47511
 Alpha  occ. eigenvalues --   -0.47358  -0.47293  -0.46946  -0.46902  -0.46746
 Alpha  occ. eigenvalues --   -0.46676  -0.46559  -0.46274  -0.45864  -0.45780
 Alpha  occ. eigenvalues --   -0.45482  -0.45463  -0.45322  -0.44912  -0.44854
 Alpha  occ. eigenvalues --   -0.44531  -0.44407  -0.44334  -0.44265  -0.44146
 Alpha  occ. eigenvalues --   -0.43941  -0.43912  -0.43815  -0.43544  -0.43512
 Alpha  occ. eigenvalues --   -0.43198  -0.43071  -0.42951  -0.42753  -0.42475
 Alpha  occ. eigenvalues --   -0.42462  -0.42252  -0.42168  -0.41973  -0.41855
 Alpha  occ. eigenvalues --   -0.41667  -0.41411  -0.41236  -0.41046  -0.40874
 Alpha  occ. eigenvalues --   -0.40687  -0.40451  -0.40405  -0.40380  -0.40241
 Alpha  occ. eigenvalues --   -0.40099  -0.40009  -0.39783  -0.39692  -0.39665
 Alpha  occ. eigenvalues --   -0.39604  -0.39459  -0.39304  -0.39257  -0.38933
 Alpha  occ. eigenvalues --   -0.38830  -0.38672  -0.38583  -0.38446  -0.38058
 Alpha  occ. eigenvalues --   -0.38042  -0.37896  -0.37841  -0.37592  -0.37488
 Alpha  occ. eigenvalues --   -0.37255  -0.36849  -0.36830  -0.36720  -0.36564
 Alpha  occ. eigenvalues --   -0.36410  -0.36154  -0.35842  -0.35774  -0.35566
 Alpha  occ. eigenvalues --   -0.35319  -0.35238  -0.34954  -0.34938  -0.33961
 Alpha  occ. eigenvalues --   -0.33936  -0.33673  -0.33478  -0.33209  -0.33033
 Alpha  occ. eigenvalues --   -0.32865  -0.32765  -0.31934  -0.31822  -0.31493
 Alpha  occ. eigenvalues --   -0.31082  -0.30685  -0.30166  -0.29568  -0.29315
 Alpha  occ. eigenvalues --   -0.28843  -0.28792  -0.28627  -0.28540  -0.28354
 Alpha  occ. eigenvalues --   -0.28264  -0.28082  -0.27339  -0.27254  -0.26988
 Alpha  occ. eigenvalues --   -0.26821  -0.26254  -0.26175  -0.26024  -0.25929
 Alpha  occ. eigenvalues --   -0.25763  -0.25247  -0.25228  -0.24948  -0.24753
 Alpha  occ. eigenvalues --   -0.24654  -0.24502  -0.24041  -0.23927  -0.23626
 Alpha  occ. eigenvalues --   -0.23562  -0.23237  -0.22894  -0.22384  -0.21578
 Alpha  occ. eigenvalues --   -0.15803  -0.14796  -0.12083
 Alpha virt. eigenvalues --   -0.10616  -0.08004  -0.05226  -0.04925  -0.04744
 Alpha virt. eigenvalues --   -0.03983  -0.03905  -0.03207  -0.02722  -0.02263
 Alpha virt. eigenvalues --   -0.01645  -0.01501  -0.00972  -0.00901   0.00185

 Mulliken charges:
               1
     1  C    0.063021
     2  C    0.024530
     3  O   -0.285183
     4  H   -0.007362
     5  H    0.039770
     6  H    0.048542
     7  N   -0.110636
     8  C    0.074275
     9  C    0.092898
    10  O   -0.260914
    11  C    0.046834
    12  C    0.104261
    13  O   -0.444922
    14  O   -0.397862
    15  H    0.110093
    16  H    0.021678
    17  H    0.029596
    18  H    0.027859
    19  N   -0.155533
    20  C    0.152463
    21  C    0.034232
    22  O   -0.298982
    23  C    0.042785
    24  C   -0.036921
    25  C   -0.004952
    26  C    0.017640
    27  N    0.118281
    28  H    0.113433
    29  H    0.038245
    30  H    0.017996
    31  H    0.016773
    32  H    0.012949
    33  H    0.043215
    34  H    0.013426
    35  H    0.030421
    36  H    0.081601
    37  H    0.073727
    38  H    0.144302
    39  H    0.163475
    40  H    0.163098
    41  N   -0.167871
    42  C    0.143121
    43  C    0.069341
    44  O   -0.273087
    45  C    0.075852
    46  C    0.151769
    47  O   -0.387660
    48  O   -0.468662
    49  H    0.155317
    50  H    0.017358
    51  H    0.004449
    52  H    0.040357
    53  N   -0.173014
    54  C    0.203946
    55  C    0.043457
    56  O   -0.269199
    57  H    0.133919
    58  H    0.047600
    59  H    0.015795
    60  N   -0.143901
    61  C    0.088090
    62  C    0.161933
    63  O   -0.340760
    64  C    0.086793
    65  C    0.007419
    66  N   -0.037990
    67  O   -0.240050
    68  H    0.131270
    69  H   -0.007070
    70  H   -0.018883
    71  H    0.039240
    72  H    0.083529
    73  H    0.134052
    74  N   -0.171856
    75  C    0.210306
    76  C    0.024821
    77  O   -0.293108
    78  H    0.128167
    79  H    0.038059
    80  H    0.069854
    81  N   -0.101784
    82  C    0.046012
    83  C    0.192685
    84  O   -0.351333
    85  C    0.146637
    86  C   -0.058376
    87  C    0.037968
    88  C   -0.025956
    89  C   -0.036163
    90  C   -0.056690
    91  C    0.190072
    92  O   -0.183037
    93  H    0.112928
    94  H    0.017398
    95  H   -0.016171
    96  H    0.016194
    97  H   -0.015956
    98  H   -0.033480
    99  H   -0.012354
   100  H   -0.031872
   101  H    0.184751
   102  N   -0.108707
   103  C    0.133940
   104  C    0.088211
   105  O   -0.278406
   106  C   -0.086913
   107  C   -0.016547
   108  C    0.056541
   109  C    0.043633
   110  H    0.128594
   111  H   -0.014798
   112  H   -0.034147
   113  H   -0.032768
   114  H   -0.013028
   115  H    0.005892
   116  H    0.015474
   117  H    0.038434
   118  H    0.027772
   119  H   -0.022738
   120  H    0.029028
   121  N   -0.127536
   122  C    0.076397
   123  C    0.079809
   124  O   -0.244157
   125  C    0.241015
   126  O   -0.294346
   127  H    0.123059
   128  H    0.022548
   129  H   -0.020606
   130  H   -0.006015
   131  H    0.172355
   132  N   -0.138330
   133  C    0.050103
   134  C    0.049960
   135  O   -0.248399
   136  C    0.085318
   137  H    0.117778
   138  H    0.017222
   139  H    0.024102
   140  H   -0.007859
   141  H    0.031510
   142  N   -0.076039
   143  C    0.002514
   144  C    0.041089
   145  O   -0.282985
   146  C    0.100892
   147  H    0.124909
   148  H   -0.009816
   149  H    0.010897
   150  H    0.024977
   151  H   -0.002765
   152  N   -0.119358
   153  C    0.055062
   154  C    0.047828
   155  O   -0.295541
   156  C    0.090958
   157  C    0.055534
   158  C    0.040788
   159  O   -0.377154
   160  O   -0.362580
   161  H    0.124064
   162  H    0.018595
   163  H   -0.016120
   164  H    0.023351
   165  H   -0.052292
   166  H   -0.007684
   167  N   -0.132060
   168  C    0.119749
   169  H    0.040526
   170  H    0.028146
   171  H    0.036090
   172  H    0.108137
   173  Ca   1.396124
   174  O   -0.319114
   175  H    0.141929
   176  H    0.165630
 Sum of Mulliken charges =  -0.00000

 Dipole moment (field-independent basis, Debye):
    X=              6.7915    Y=             19.6130    Z=              2.8115  Tot=             20.9452
 Quadrupole moment (field-independent basis, Debye-Ang):
   XX=           -768.8308   YY=           -596.4551   ZZ=           -496.5491
   XY=              5.2153   XZ=             47.2422   YZ=           -119.6535

 ESP charges:
               1
     1  C   -0.484432
     2  C    0.804777
     3  O   -0.593686
     4  H    0.101466
     5  H    0.136551
     6  H    0.143662
     7  N   -0.671284
     8  C    0.262262
     9  C    0.523279
    10  O   -0.523441
    11  C   -0.342881
    12  C    0.891929
    13  O   -0.830811
    14  O   -0.794022
    15  H    0.319702
    16  H    0.049446
    17  H    0.136556
    18  H    0.081873
    19  N   -0.424670
    20  C    0.042058
    21  C    0.626405
    22  O   -0.593023
    23  C   -0.231273
    24  C   -0.056745
    25  C    0.036890
    26  C    0.017361
    27  N   -0.281604
    28  H    0.215670
    29  H    0.120769
    30  H    0.096834
    31  H    0.071960
    32  H    0.028946
    33  H    0.107838
    34  H   -0.007577
    35  H    0.033573
    36  H    0.099234
    37  H    0.078970
    38  H    0.264255
    39  H    0.289856
    40  H    0.289855
    41  N   -0.262134
    42  C   -0.188512
    43  C    0.568212
    44  O   -0.530255
    45  C    0.011860
    46  C    0.582909
    47  O   -0.682782
    48  O   -0.594727
    49  H    0.059225
    50  H    0.132046
    51  H    0.028113
    52  H    0.060748
    53  N   -0.154733
    54  C   -0.218604
    55  C    0.602119
    56  O   -0.520616
    57  H    0.105351
    58  H    0.135204
    59  H    0.056353
    60  N   -0.405378
    61  C   -0.061790
    62  C    0.655981
    63  O   -0.499403
    64  C   -0.366926
    65  C    0.854653
    66  N   -0.920059
    67  O   -0.546728
    68  H    0.279560
    69  H    0.071574
    70  H    0.034862
    71  H    0.167420
    72  H    0.351124
    73  H    0.422863
    74  N   -0.377116
    75  C   -0.350738
    76  C    0.596573
    77  O   -0.551854
    78  H    0.296497
    79  H    0.180499
    80  H    0.189347
    81  N   -0.397577
    82  C    0.058217
    83  C    0.696931
    84  O   -0.633733
    85  C   -0.088125
    86  C    0.022980
    87  C   -0.146425
    88  C   -0.103761
    89  C   -0.211939
    90  C   -0.339718
    91  C    0.365681
    92  O   -0.530998
    93  H    0.209818
    94  H    0.065585
    95  H    0.052304
    96  H    0.056000
    97  H    0.142954
    98  H    0.119654
    99  H    0.152038
   100  H    0.147303
   101  H    0.418546
   102  N   -0.513609
   103  C   -0.044861
   104  C    0.594770
   105  O   -0.522591
   106  C    0.134805
   107  C   -0.066700
   108  C   -0.279555
   109  C   -0.172536
   110  H    0.270373
   111  H    0.125456
   112  H    0.013500
   113  H    0.018726
   114  H    0.060729
   115  H    0.077020
   116  H    0.031764
   117  H    0.107206
   118  H    0.053195
   119  H    0.025852
   120  H    0.095323
   121  N   -0.460507
   122  C   -0.012322
   123  C    0.607604
   124  O   -0.508849
   125  C    0.112050
   126  O   -0.459883
   127  H    0.169941
   128  H    0.078147
   129  H    0.038538
   130  H    0.019844
   131  H    0.350683
   132  N   -0.533074
   133  C    0.261968
   134  C    0.664942
   135  O   -0.550991
   136  C   -0.322973
   137  H    0.324364
   138  H   -0.019658
   139  H    0.081272
   140  H    0.087459
   141  H    0.105564
   142  N   -0.766076
   143  C    0.682911
   144  C    0.370097
   145  O   -0.558139
   146  C   -0.403948
   147  H    0.348807
   148  H   -0.076181
   149  H    0.071381
   150  H    0.102946
   151  H    0.081168
   152  N   -0.531990
   153  C    0.132174
   154  C    0.372182
   155  O   -0.478601
   156  C    0.043563
   157  C   -0.292061
   158  C    0.694387
   159  O   -0.679353
   160  O   -0.653698
   161  H    0.342510
   162  H    0.017779
   163  H   -0.001026
   164  H    0.037775
   165  H    0.023380
   166  H    0.087530
   167  N   -0.284771
   168  C   -0.016724
   169  H    0.061159
   170  H    0.050559
   171  H    0.060616
   172  H    0.234045
   173  Ca   1.670567
   174  O   -0.983131
   175  H    0.445184
   176  H    0.448989
 Sum of ESP charges =   0.00000

 Normal termination of Gaussian 16 at Wed Sep 18 11:19:39 2019.
