 Gaussian 16, Revision A.03,
 Gaussian 16:  ES64L-G16RevA.03 25-Dec-2016

 ----------------------------------------------------------------------
 #b3lyp/svp scf=(tight,noincore) Test #IOP(5/87=12) Density=Current Pop
 =(MK,readradii) iop(6/33=2) iop(6/42=6)
 ----------------------------------------------------------------------

 -----------------
 Ng-295_loop3_14.0
 -----------------
 Symbolic Z-matrix:
 Charge =  0 Multiplicity = 1

                         Standard orientation:
 ---------------------------------------------------------------------
 Center     Atomic      Atomic             Coordinates (Angstroms)
 Number     Number       Type             X           Y           Z
 ---------------------------------------------------------------------
      1          6           0        8.129359   -3.351361    5.826183
      2          6           0        7.045461   -3.566573    4.774589
      3          8           0        6.373216   -4.593281    4.733894
      4          1           0        8.112007   -4.175041    6.539399
      5          1           0        9.104603   -3.311965    5.341344
      6          1           0        7.945579   -2.413733    6.351186
      7          7           0        6.891715   -2.617156    3.847729
      8          6           0        5.930716   -2.522806    2.760540
      9          6           0        6.601669   -2.491932    1.395670
     10          8           0        7.153378   -1.469325    1.009804
     11          6           0        5.077173   -1.267053    2.890723
     12          6           0        4.008865   -0.972126    1.842947
     13          8           0        3.654057   -1.825282    0.994221
     14          8           0        3.569123    0.190457    1.731909
     15          1           0        7.433722   -1.778611    4.024559
     16          1           0        5.245379   -3.366250    2.801958
     17          1           0        5.749663   -0.430194    3.048282
     18          1           0        4.539541   -1.530163    3.808724
     19          7           0        6.548841   -3.631244    0.696687
     20          6           0        7.464187   -4.029509   -0.350990
     21          6           0        7.385233   -3.156219   -1.600202
     22          8           0        8.283289   -3.254390   -2.443563
     23          6           0        7.339595   -5.501805   -0.712820
     24          6           0        6.157888   -5.775742   -1.637983
     25          6           0        6.060280   -7.266169   -1.966005
     26          6           0        4.850345   -7.404059   -2.881452
     27          7           0        4.859918   -8.718381   -3.552546
     28          1           0        6.054985   -4.379801    1.159687
     29          1           0        8.458546   -3.947702    0.085311
     30          1           0        7.425082   -6.071965    0.211630
     31          1           0        8.188366   -5.842534   -1.318618
     32          1           0        6.212897   -5.187841   -2.546744
     33          1           0        5.246292   -5.455108   -1.128878
     34          1           0        5.956590   -7.734275   -0.992595
     35          1           0        6.954969   -7.568830   -2.528879
     36          1           0        5.017196   -6.639770   -3.639952
     37          1           0        3.891983   -7.293997   -2.359217
     38          1           0        3.964733   -8.845450   -4.003541
     39          1           0        5.604927   -8.824307   -4.227632
     40          1           0        4.897174   -9.470453   -2.876454
     41          7           0        6.357760   -2.328987   -1.779886
     42          6           0        6.219474   -1.430281   -2.908958
     43          6           0        6.758971   -0.076800   -2.456926
     44          8           0        6.799163    0.801368   -3.325375
     45          6           0        4.765512   -1.270151   -3.333757
     46          6           0        3.827390   -0.978882   -2.171480
     47          8           0        4.120995   -0.110443   -1.333739
     48          8           0        2.747275   -1.589330   -2.000587
     49          1           0        5.669313   -2.255222   -1.045924
     50          1           0        6.859829   -1.733427   -3.730510
     51          1           0        4.399342   -2.219951   -3.716510
     52          1           0        4.582915   -0.485643   -4.083494
     53          7           0        7.274575    0.191090   -1.251817
     54          6           0        7.898908    1.418175   -0.811055
     55          6           0        7.001494    2.648636   -0.762942
     56          8           0        7.472066    3.776096   -0.814858
     57          1           0        7.165832   -0.542098   -0.564424
     58          1           0        8.739175    1.626389   -1.470599
     59          1           0        8.217491    1.195378    0.208292
     60          7           0        5.676495    2.509514   -0.729464
     61          6           0        4.714907    3.597861   -0.812826
     62          6           0        3.671006    3.441441    0.279559
     63          8           0        2.797550    2.587794    0.226071
     64          6           0        4.137057    3.569018   -2.221605
     65          6           0        3.154625    4.713825   -2.456221
     66          7           0        3.695735    5.848473   -2.918469
     67          8           0        1.959237    4.679617   -2.197812
     68          1           0        5.322099    1.567049   -0.830778
     69          1           0        5.163500    4.584410   -0.674319
     70          1           0        3.659729    2.604394   -2.369785
     71          1           0        4.988581    3.678744   -2.889713
     72          1           0        4.661006    5.857320   -3.222730
     73          1           0        3.249757    6.724496   -2.719757
     74          7           0        3.657238    4.317372    1.292700
     75          6           0        2.943677    4.081892    2.537482
     76          6           0        1.424681    4.198211    2.496025
     77          8           0        0.828652    4.434352    3.550912
     78          1           0        4.351971    5.043894    1.382206
     79          1           0        3.342906    4.733961    3.305024
     80          1           0        3.166536    3.045529    2.803537
     81          7           0        0.757845    3.899186    1.380133
     82          6           0       -0.665747    3.846763    1.127668
     83          6           0       -1.131665    2.465375    0.672930
     84          8           0       -0.352331    1.664698    0.150958
     85          6           0       -0.971054    5.035878    0.222576
     86          6           0       -0.711790    6.442757    0.708036
     87          6           0       -1.683126    7.305232    1.247801
     88          6           0        0.563661    6.928081    0.376247
     89          6           0       -1.346838    8.643103    1.472100
     90          6           0        0.938949    8.238212    0.690599
     91          6           0       -0.038120    9.101154    1.217445
     92          8           0        0.327701   10.383184    1.527241
     93          1           0        1.354747    3.601245    0.616759
     94          1           0       -1.111958    4.011606    2.113479
     95          1           0       -2.038962    4.912283    0.065102
     96          1           0       -0.548963    4.806628   -0.754862
     97          1           0       -2.711623    7.019786    1.392074
     98          1           0        1.245237    6.275099   -0.151170
     99          1           0       -2.093740    9.355511    1.790709
    100          1           0        1.917802    8.621627    0.440320
    101          1           0        1.227680   10.546369    1.218846
    102          7           0       -2.377367    2.186370    1.053171
    103          6           0       -3.087515    0.952349    0.789574
    104          6           0       -3.472435    0.788622   -0.671018
    105          8           0       -2.594491    0.732580   -1.534889
    106          6           0       -2.479955   -0.272050    1.481831
    107          6           0       -3.335194   -1.498877    1.190007
    108          6           0       -2.190772   -0.051062    2.963768
    109          6           0       -2.830326   -2.826736    1.746064
    110          1           0       -2.873422    3.018358    1.342178
    111          1           0       -4.030676    1.090043    1.329285
    112          1           0       -1.541666   -0.462777    0.950102
    113          1           0       -3.448077   -1.714008    0.117684
    114          1           0       -4.331937   -1.224726    1.526227
    115          1           0       -1.540626    0.820807    3.039626
    116          1           0       -3.089741    0.231704    3.504600
    117          1           0       -1.592216   -0.893738    3.317784
    118          1           0       -3.015643   -2.810288    2.819697
    119          1           0       -3.422034   -3.600825    1.253045
    120          1           0       -1.772003   -2.962876    1.550061
    121          7           0       -4.742689    0.595916   -1.035324
    122          6           0       -5.163289    0.285095   -2.392522
    123          6           0       -6.641289    0.517542   -2.664703
    124          8           0       -7.052682    0.313163   -3.797657
    125          6           0       -4.808190   -1.192162   -2.557193
    126          8           0       -5.667573   -2.006138   -1.787256
    127          1           0       -5.412143    0.541690   -0.275725
    128          1           0       -4.615917    0.871979   -3.132827
    129          1           0       -3.786381   -1.273884   -2.200923
    130          1           0       -4.873365   -1.495813   -3.599713
    131          1           0       -5.439151   -2.925805   -1.945171
    132          7           0       -7.468338    0.904619   -1.687584
    133          6           0       -8.893277    1.112492   -1.852617
    134          6           0       -9.697401    0.216352   -2.797613
    135          8           0      -10.253184    0.674552   -3.788299
    136          6           0       -9.173790    2.580677   -2.116145
    137          1           0       -7.092925    1.118240   -0.778281
    138          1           0       -9.411450    0.958307   -0.900606
    139          1           0      -10.215889    2.919593   -2.128992
    140          1           0       -8.640873    3.206903   -1.401134
    141          1           0       -8.804692    2.738730   -3.133438
    142          7           0       -9.769156   -1.107265   -2.627934
    143          6           0       -9.174061   -2.020348   -1.678913
    144          6           0      -10.033324   -2.220376   -0.437843
    145          8           0      -11.243478   -2.357917   -0.586870
    146          6           0       -9.025066   -3.360981   -2.389620
    147          1           0      -10.385243   -1.529905   -3.306397
    148          1           0       -8.202376   -1.632698   -1.391762
    149          1           0       -9.986968   -3.765359   -2.681718
    150          1           0       -8.368701   -3.341196   -3.260765
    151          1           0       -8.769371   -4.184309   -1.727916
    152          7           0       -9.535396   -2.352605    0.791581
    153          6           0       -8.174327   -2.476614    1.274399
    154          6           0       -8.041224   -1.681365    2.567753
    155          8           0       -7.170722   -0.828805    2.699918
    156          6           0       -7.748974   -3.926749    1.520738
    157          6           0       -6.290457   -3.989016    1.947059
    158          6           0       -5.902306   -5.328591    2.554496
    159          8           0       -5.580798   -5.435804    3.754762
    160          8           0       -6.016923   -6.321152    1.803108
    161          1           0      -10.241493   -2.575750    1.483921
    162          1           0       -7.489540   -2.051612    0.544646
    163          1           0       -7.777961   -4.524403    0.614057
    164          1           0       -8.372623   -4.347447    2.316398
    165          1           0       -6.044390   -3.194024    2.656170
    166          1           0       -5.829439   -3.835809    0.966197
    167          7           0       -8.993471   -1.973697    3.451985
    168          6           0       -9.216901   -1.279780    4.706400
    169          1           0       -8.874647   -1.903682    5.531969
    170          1           0       -8.662655   -0.341377    4.707254
    171          1           0      -10.280862   -1.073487    4.823849
    172          1           0       -9.401104   -2.894228    3.413796
    173         20           0        1.855122    0.033765   -0.197426
    174          8           0        1.025368    1.227845   -2.479592
    175          1           0        0.128851    1.517381   -2.643989
    176          1           0        1.499409    1.435079   -3.293986
 ---------------------------------------------------------------------

 SCF Done:  E(RB3LYP) =  -5333.45346012     A.U. after   55 cycles

 The electronic state is 1-A.
 Alpha  occ. eigenvalues -- -145.40293 -19.16727 -19.16578 -19.14499 -19.14105
 Alpha  occ. eigenvalues --  -19.13305 -19.13010 -19.11245 -19.11113 -19.10465
 Alpha  occ. eigenvalues --  -19.09717 -19.09537 -19.08798 -19.08328 -19.08071
 Alpha  occ. eigenvalues --  -19.07550 -19.07237 -19.07132 -19.06526 -19.06510
 Alpha  occ. eigenvalues --  -19.06244 -19.06124 -18.96868 -18.96596 -15.46060
 Alpha  occ. eigenvalues --  -14.57238 -14.39309 -14.38545 -14.38460 -14.37903
 Alpha  occ. eigenvalues --  -14.36911 -14.36754 -14.36673 -14.36546 -14.34612
 Alpha  occ. eigenvalues --  -14.34227 -14.34017 -14.33416 -14.33070 -14.32442
 Alpha  occ. eigenvalues --  -12.59686 -12.59629 -12.59603 -10.35171 -10.32107
 Alpha  occ. eigenvalues --  -10.31383 -10.30837 -10.30223 -10.30063 -10.29749
 Alpha  occ. eigenvalues --  -10.29253 -10.29092 -10.28419 -10.27952 -10.27231
 Alpha  occ. eigenvalues --  -10.26936 -10.26727 -10.26572 -10.26414 -10.26310
 Alpha  occ. eigenvalues --  -10.25832 -10.25761 -10.25730 -10.25537 -10.25336
 Alpha  occ. eigenvalues --  -10.25149 -10.24842 -10.24403 -10.24359 -10.24222
 Alpha  occ. eigenvalues --  -10.24074 -10.23923 -10.23919 -10.23208 -10.22357
 Alpha  occ. eigenvalues --  -10.21836 -10.21246 -10.20836 -10.20625 -10.20433
 Alpha  occ. eigenvalues --  -10.20176 -10.20097 -10.20062 -10.19753 -10.19480
 Alpha  occ. eigenvalues --  -10.19343 -10.19327 -10.19178 -10.18598 -10.18326
 Alpha  occ. eigenvalues --  -10.17291 -10.17243 -10.16858 -10.16264 -10.15915
 Alpha  occ. eigenvalues --  -10.15212 -10.11589  -1.82793  -1.12891  -1.10477
 Alpha  occ. eigenvalues --   -1.10102  -1.09871  -1.06900  -1.06394  -1.06162
 Alpha  occ. eigenvalues --   -1.05101  -1.04705  -1.04061  -1.03702  -1.03405
 Alpha  occ. eigenvalues --   -1.03067  -1.02884  -1.02410  -1.02191  -1.01960
 Alpha  occ. eigenvalues --   -1.01531  -1.01347  -1.01211  -1.00604  -1.00390
 Alpha  occ. eigenvalues --   -0.99863  -0.96235  -0.96061  -0.94567  -0.94252
 Alpha  occ. eigenvalues --   -0.93302  -0.93000  -0.92564  -0.91925  -0.91908
 Alpha  occ. eigenvalues --   -0.91715  -0.91627  -0.91272  -0.91222  -0.90314
 Alpha  occ. eigenvalues --   -0.89970  -0.89583  -0.89493  -0.89254  -0.85209
 Alpha  occ. eigenvalues --   -0.83773  -0.83139  -0.81234  -0.80015  -0.79836
 Alpha  occ. eigenvalues --   -0.79191  -0.78717  -0.78446  -0.77028  -0.76507
 Alpha  occ. eigenvalues --   -0.76259  -0.75350  -0.74903  -0.74888  -0.74650
 Alpha  occ. eigenvalues --   -0.73599  -0.72966  -0.72709  -0.72388  -0.72198
 Alpha  occ. eigenvalues --   -0.71265  -0.70829  -0.69487  -0.68437  -0.67345
 Alpha  occ. eigenvalues --   -0.66857  -0.66503  -0.66291  -0.66196  -0.64992
 Alpha  occ. eigenvalues --   -0.64437  -0.64406  -0.64207  -0.62862  -0.62659
 Alpha  occ. eigenvalues --   -0.62259  -0.61783  -0.61367  -0.60969  -0.60443
 Alpha  occ. eigenvalues --   -0.60409  -0.60251  -0.59490  -0.59463  -0.59156
 Alpha  occ. eigenvalues --   -0.58685  -0.58594  -0.58198  -0.58121  -0.58003
 Alpha  occ. eigenvalues --   -0.57338  -0.56460  -0.56404  -0.56211  -0.56055
 Alpha  occ. eigenvalues --   -0.55793  -0.55709  -0.55462  -0.55091  -0.55034
 Alpha  occ. eigenvalues --   -0.54529  -0.53383  -0.53192  -0.52543  -0.52421
 Alpha  occ. eigenvalues --   -0.52345  -0.51614  -0.51163  -0.51140  -0.50986
 Alpha  occ. eigenvalues --   -0.50818  -0.50673  -0.50591  -0.50254  -0.49964
 Alpha  occ. eigenvalues --   -0.49826  -0.49617  -0.49224  -0.48819  -0.48529
 Alpha  occ. eigenvalues --   -0.48251  -0.48056  -0.47588  -0.47556  -0.47047
 Alpha  occ. eigenvalues --   -0.46906  -0.46504  -0.46404  -0.46250  -0.46141
 Alpha  occ. eigenvalues --   -0.46003  -0.45816  -0.45810  -0.45740  -0.45443
 Alpha  occ. eigenvalues --   -0.45355  -0.45320  -0.45057  -0.44903  -0.44629
 Alpha  occ. eigenvalues --   -0.44552  -0.44293  -0.44075  -0.44046  -0.43938
 Alpha  occ. eigenvalues --   -0.43829  -0.43576  -0.43353  -0.43209  -0.43017
 Alpha  occ. eigenvalues --   -0.42910  -0.42872  -0.42634  -0.42485  -0.42434
 Alpha  occ. eigenvalues --   -0.42261  -0.42159  -0.41823  -0.41670  -0.41589
 Alpha  occ. eigenvalues --   -0.41515  -0.41311  -0.41252  -0.41140  -0.40827
 Alpha  occ. eigenvalues --   -0.40700  -0.40658  -0.40601  -0.40493  -0.40282
 Alpha  occ. eigenvalues --   -0.40225  -0.40139  -0.39810  -0.39624  -0.39562
 Alpha  occ. eigenvalues --   -0.39474  -0.39316  -0.39047  -0.38899  -0.38867
 Alpha  occ. eigenvalues --   -0.38704  -0.38673  -0.38291  -0.38228  -0.38035
 Alpha  occ. eigenvalues --   -0.37870  -0.37817  -0.37340  -0.37205  -0.36985
 Alpha  occ. eigenvalues --   -0.36955  -0.36608  -0.36590  -0.36571  -0.36333
 Alpha  occ. eigenvalues --   -0.36182  -0.36137  -0.35911  -0.35781  -0.35759
 Alpha  occ. eigenvalues --   -0.35705  -0.35367  -0.34823  -0.34752  -0.34728
 Alpha  occ. eigenvalues --   -0.34618  -0.34368  -0.34183  -0.33896  -0.33363
 Alpha  occ. eigenvalues --   -0.33350  -0.32943  -0.32635  -0.31908  -0.31556
 Alpha  occ. eigenvalues --   -0.31243  -0.30915  -0.30572  -0.30043  -0.29860
 Alpha  occ. eigenvalues --   -0.29654  -0.29347  -0.28933  -0.28852  -0.28117
 Alpha  occ. eigenvalues --   -0.28090  -0.27913  -0.27414  -0.27033  -0.26824
 Alpha  occ. eigenvalues --   -0.26662  -0.26421  -0.26313  -0.26139  -0.26048
 Alpha  occ. eigenvalues --   -0.25932  -0.25680  -0.25386  -0.25278  -0.25159
 Alpha  occ. eigenvalues --   -0.25152  -0.25050  -0.24738  -0.24573  -0.24122
 Alpha  occ. eigenvalues --   -0.23889  -0.23633  -0.23093  -0.22878  -0.22856
 Alpha  occ. eigenvalues --   -0.22619  -0.22602  -0.22100  -0.21709  -0.21626
 Alpha  occ. eigenvalues --   -0.14122  -0.14060  -0.11440
 Alpha virt. eigenvalues --   -0.10616  -0.04702  -0.03863  -0.03118  -0.02377
 Alpha virt. eigenvalues --   -0.02051  -0.01867  -0.01681  -0.01567  -0.00567
 Alpha virt. eigenvalues --   -0.00388  -0.00232  -0.00083   0.00446   0.01170

 Mulliken charges:
               1
     1  C    0.040549
     2  C    0.000637
     3  O   -0.283180
     4  H    0.038238
     5  H    0.033990
     6  H    0.030848
     7  N   -0.123558
     8  C    0.114933
     9  C    0.107786
    10  O   -0.293287
    11  C    0.084186
    12  C    0.110513
    13  O   -0.408917
    14  O   -0.430970
    15  H    0.114281
    16  H    0.001311
    17  H    0.008827
    18  H    0.019291
    19  N   -0.124874
    20  C    0.161967
    21  C    0.022422
    22  O   -0.293027
    23  C    0.026971
    24  C   -0.064570
    25  C   -0.011185
    26  C    0.042696
    27  N    0.136505
    28  H    0.129045
    29  H    0.021446
    30  H    0.016473
    31  H    0.018998
    32  H    0.045868
    33  H    0.023319
    34  H    0.038009
    35  H    0.019711
    36  H    0.061483
    37  H    0.081783
    38  H    0.132021
    39  H    0.135663
    40  H    0.136337
    41  N   -0.155503
    42  C    0.145203
    43  C    0.031299
    44  O   -0.318991
    45  C    0.159244
    46  C    0.049979
    47  O   -0.423774
    48  O   -0.424469
    49  H    0.162508
    50  H    0.027986
    51  H   -0.020552
    52  H    0.036254
    53  N   -0.154451
    54  C    0.256246
    55  C    0.006194
    56  O   -0.298645
    57  H    0.127174
    58  H    0.031709
    59  H    0.026165
    60  N   -0.131603
    61  C    0.114635
    62  C    0.161623
    63  O   -0.350059
    64  C    0.130327
    65  C   -0.014154
    66  N   -0.049092
    67  O   -0.259500
    68  H    0.158633
    69  H   -0.018971
    70  H   -0.004441
    71  H    0.024694
    72  H    0.124802
    73  H    0.124563
    74  N   -0.147300
    75  C    0.182245
    76  C    0.029586
    77  O   -0.294190
    78  H    0.130538
    79  H    0.025632
    80  H    0.062467
    81  N   -0.150606
    82  C    0.085472
    83  C    0.164425
    84  O   -0.346661
    85  C    0.139840
    86  C    0.023293
    87  C    0.010325
    88  C   -0.001767
    89  C   -0.022440
    90  C   -0.035983
    91  C    0.165919
    92  O   -0.199387
    93  H    0.147262
    94  H    0.007274
    95  H   -0.051676
    96  H    0.023375
    97  H   -0.034939
    98  H   -0.031499
    99  H   -0.022508
   100  H   -0.056808
   101  H    0.173115
   102  N   -0.119729
   103  C    0.152466
   104  C    0.062102
   105  O   -0.295430
   106  C   -0.082611
   107  C   -0.044293
   108  C    0.095280
   109  C    0.057398
   110  H    0.135189
   111  H   -0.020022
   112  H   -0.043074
   113  H   -0.003431
   114  H    0.009918
   115  H   -0.002336
   116  H    0.019145
   117  H    0.028899
   118  H    0.040068
   119  H    0.040634
   120  H   -0.017075
   121  N   -0.144170
   122  C    0.109566
   123  C    0.082962
   124  O   -0.257188
   125  C    0.229468
   126  O   -0.311637
   127  H    0.134531
   128  H    0.042728
   129  H    0.009772
   130  H    0.009915
   131  H    0.187128
   132  N   -0.123343
   133  C    0.037934
   134  C    0.060396
   135  O   -0.259371
   136  C    0.067507
   137  H    0.107528
   138  H    0.017611
   139  H    0.022018
   140  H   -0.021094
   141  H    0.031886
   142  N   -0.085712
   143  C    0.076982
   144  C    0.024897
   145  O   -0.286277
   146  C    0.045040
   147  H    0.124999
   148  H    0.004146
   149  H    0.008858
   150  H    0.028416
   151  H    0.010937
   152  N   -0.069092
   153  C    0.065728
   154  C    0.076633
   155  O   -0.272861
   156  C    0.055438
   157  C    0.019520
   158  C    0.037585
   159  O   -0.347157
   160  O   -0.377218
   161  H    0.104502
   162  H   -0.010106
   163  H    0.006168
   164  H   -0.021787
   165  H   -0.002686
   166  H   -0.039866
   167  N   -0.176423
   168  C    0.120873
   169  H    0.036610
   170  H    0.036794
   171  H    0.020593
   172  H    0.131618
   173  Ca   1.355047
   174  O   -0.295446
   175  H    0.187648
   176  H    0.185779
 Sum of Mulliken charges =  -0.00000

 Dipole moment (field-independent basis, Debye):
    X=             29.0359    Y=             -8.9724    Z=            -12.1562  Tot=             32.7316
 Quadrupole moment (field-independent basis, Debye-Ang):
   XX=           -686.4840   YY=           -382.2343   ZZ=           -573.2587
   XY=           -214.1421   XZ=            -44.9440   YZ=            150.1546

 ESP charges:
               1
     1  C   -0.447195
     2  C    0.765924
     3  O   -0.591782
     4  H    0.130776
     5  H    0.118767
     6  H    0.117491
     7  N   -0.732432
     8  C    0.450655
     9  C    0.406647
    10  O   -0.442926
    11  C   -0.360692
    12  C    0.725150
    13  O   -0.756837
    14  O   -0.744247
    15  H    0.320899
    16  H    0.017148
    17  H    0.098618
    18  H    0.098585
    19  N   -0.438554
    20  C    0.075564
    21  C    0.417841
    22  O   -0.540018
    23  C   -0.143597
    24  C    0.203128
    25  C   -0.175589
    26  C    0.088982
    27  N   -0.237451
    28  H    0.272065
    29  H    0.098993
    30  H    0.072146
    31  H    0.037263
    32  H    0.049105
    33  H   -0.028762
    34  H    0.057636
    35  H    0.060514
    36  H    0.043870
    37  H    0.085195
    38  H    0.242222
    39  H    0.261601
    40  H    0.241728
    41  N   -0.503954
    42  C    0.262799
    43  C    0.291054
    44  O   -0.543788
    45  C   -0.448032
    46  C    0.828036
    47  O   -0.592239
    48  O   -0.776639
    49  H    0.308593
    50  H    0.105561
    51  H    0.081967
    52  H    0.133006
    53  N    0.053559
    54  C   -0.440306
    55  C    0.697776
    56  O   -0.583655
    57  H    0.099025
    58  H    0.170997
    59  H    0.149078
    60  N   -0.447219
    61  C    0.059785
    62  C    0.455519
    63  O   -0.498213
    64  C   -0.259078
    65  C    0.680372
    66  N   -0.837258
    67  O   -0.532178
    68  H    0.282556
    69  H    0.044909
    70  H    0.051373
    71  H    0.139767
    72  H    0.374692
    73  H    0.385162
    74  N   -0.304725
    75  C   -0.117029
    76  C    0.593378
    77  O   -0.568087
    78  H    0.284073
    79  H    0.105353
    80  H    0.110234
    81  N   -0.560946
    82  C    0.693443
    83  C    0.286411
    84  O   -0.475325
    85  C   -0.295927
    86  C    0.165079
    87  C   -0.219317
    88  C   -0.172622
    89  C   -0.184393
    90  C   -0.262517
    91  C    0.318637
    92  O   -0.530744
    93  H    0.141748
    94  H   -0.080570
    95  H   -0.000468
    96  H    0.113956
    97  H    0.142897
    98  H    0.121553
    99  H    0.149221
   100  H    0.123855
   101  H    0.400203
   102  N   -0.314193
   103  C   -0.335609
   104  C    0.661603
   105  O   -0.519706
   106  C    0.390710
   107  C    0.017373
   108  C   -0.313449
   109  C   -0.285825
   110  H    0.270371
   111  H    0.145750
   112  H   -0.072997
   113  H    0.034835
   114  H   -0.017144
   115  H    0.055696
   116  H    0.094759
   117  H    0.089085
   118  H    0.083821
   119  H    0.093444
   120  H    0.059008
   121  N   -0.423873
   122  C   -0.219434
   123  C    0.629797
   124  O   -0.485443
   125  C    0.149553
   126  O   -0.548917
   127  H    0.230939
   128  H    0.161356
   129  H    0.028805
   130  H    0.040720
   131  H    0.400376
   132  N   -0.537836
   133  C    0.357212
   134  C    0.440558
   135  O   -0.509936
   136  C   -0.322863
   137  H    0.306965
   138  H   -0.006700
   139  H    0.097241
   140  H    0.063695
   141  H    0.081317
   142  N   -0.516232
   143  C    0.213929
   144  C    0.622920
   145  O   -0.582287
   146  C   -0.327823
   147  H    0.313219
   148  H    0.096886
   149  H    0.102849
   150  H    0.091154
   151  H    0.101525
   152  N   -0.585877
   153  C   -0.279099
   154  C    0.727102
   155  O   -0.574661
   156  C    0.233449
   157  C   -0.416419
   158  C    0.748839
   159  O   -0.661173
   160  O   -0.678402
   161  H    0.291023
   162  H    0.093791
   163  H    0.005121
   164  H   -0.029291
   165  H    0.082902
   166  H    0.086623
   167  N   -0.384318
   168  C   -0.163119
   169  H    0.089730
   170  H    0.106066
   171  H    0.079116
   172  H    0.330747
   173  Ca   1.639351
   174  O   -0.914919
   175  H    0.452672
   176  H    0.444715
 Sum of ESP charges =  -0.00000

 Normal termination of Gaussian 16 at Wed Sep 18 00:01:06 2019.
