 Gaussian 16, Revision A.03,
 Gaussian 16:  ES64L-G16RevA.03 25-Dec-2016

 ----------------------------------------------------------------------
 #b3lyp/svp scf=(tight,noincore) Test #IOP(5/87=12) Density=Current Pop
 =(MK,readradii) iop(6/33=2) iop(6/42=6)
 ----------------------------------------------------------------------

 -----------------
 Ng-293_loop3_71.0
 -----------------
 Symbolic Z-matrix:
 Charge =  0 Multiplicity = 1

                         Standard orientation:
 ---------------------------------------------------------------------
 Center     Atomic      Atomic             Coordinates (Angstroms)
 Number     Number       Type             X           Y           Z
 ---------------------------------------------------------------------
      1          6           0        8.569727    3.039694    5.613885
      2          6           0        9.265223    3.242362    4.270303
      3          8           0       10.469782    3.011082    4.205917
      4          1           0        9.137867    2.328393    6.212732
      5          1           0        8.511913    3.992032    6.140595
      6          1           0        7.564233    2.653154    5.448494
      7          7           0        8.553060    3.602784    3.206386
      8          6           0        8.975023    3.712035    1.827396
      9          6           0        8.618551    2.472097    1.017903
     10          8           0        7.612165    1.794819    1.236721
     11          6           0        8.438250    4.978410    1.175654
     12          6           0        6.982622    5.329259    1.440709
     13          8           0        6.565498    5.877265    2.482965
     14          8           0        6.194383    5.115465    0.491198
     15          1           0        7.536264    3.605707    3.202229
     16          1           0       10.062335    3.725695    1.819201
     17          1           0        8.685129    4.983259    0.114227
     18          1           0        9.066268    5.807520    1.502257
     19          7           0        9.587876    2.143011    0.159351
     20          6           0        9.691455    0.996798   -0.723410
     21          6           0        8.595095    0.773443   -1.752734
     22          8           0        8.872288    0.676938   -2.939094
     23          6           0        9.999767   -0.208037    0.163955
     24          6           0       10.321866   -1.481558   -0.613730
     25          6           0       10.321120   -2.619102    0.404992
     26          6           0       10.544911   -3.969743   -0.268347
     27          7           0       10.876480   -5.095566    0.614991
     28          1           0       10.360747    2.789343    0.120291
     29          1           0       10.648370    1.178448   -1.218100
     30          1           0        9.027644   -0.368396    0.640884
     31          1           0       10.858282   -0.005422    0.803407
     32          1           0       11.315825   -1.366082   -1.050550
     33          1           0        9.574092   -1.670481   -1.387901
     34          1           0        9.293020   -2.688322    0.757582
     35          1           0       10.940965   -2.270558    1.237944
     36          1           0       11.318239   -3.841014   -1.023987
     37          1           0        9.636261   -4.267932   -0.787999
     38          1           0       10.167633   -5.164598    1.325040
     39          1           0       10.824729   -5.969678    0.101328
     40          1           0       11.781472   -4.973275    1.039529
     41          7           0        7.328545    0.815831   -1.332431
     42          6           0        6.096692    0.467317   -2.024150
     43          6           0        4.904748    1.258773   -1.524283
     44          8           0        4.722774    1.396848   -0.313325
     45          6           0        5.922974   -1.026391   -1.791002
     46          6           0        4.835180   -1.808936   -2.518276
     47          8           0        4.256736   -1.439009   -3.567065
     48          8           0        4.614282   -3.003522   -2.201465
     49          1           0        7.252377    1.110153   -0.368236
     50          1           0        6.211562    0.700796   -3.086973
     51          1           0        5.667724   -1.155997   -0.742455
     52          1           0        6.878951   -1.538341   -1.894515
     53          7           0        4.056625    1.797688   -2.404203
     54          6           0        2.892785    2.643094   -2.173409
     55          6           0        1.643784    1.821606   -1.914075
     56          8           0        1.222705    0.969251   -2.693487
     57          1           0        4.436268    1.769722   -3.342760
     58          1           0        2.745671    3.211196   -3.100618
     59          1           0        3.225653    3.187033   -1.299664
     60          7           0        0.983156    2.003508   -0.769967
     61          6           0       -0.244346    1.321644   -0.378561
     62          6           0       -1.476130    1.892144   -1.066631
     63          8           0       -2.475266    1.178099   -1.179619
     64          6           0       -0.359974    1.460486    1.131224
     65          6           0        0.843806    0.951903    1.928757
     66          7           0        1.838332    1.775864    2.284432
     67          8           0        0.963212   -0.248181    2.116484
     68          1           0        1.537411    2.547100   -0.114368
     69          1           0       -0.236404    0.264584   -0.610857
     70          1           0       -1.248153    0.908723    1.416172
     71          1           0       -0.428758    2.514573    1.400796
     72          1           0        1.784507    2.749859    2.062311
     73          1           0        2.521919    1.394103    2.913691
     74          7           0       -1.406376    3.165685   -1.452153
     75          6           0       -2.590584    3.938212   -1.775501
     76          6           0       -3.643609    4.061235   -0.675636
     77          8           0       -3.366031    3.916022    0.511657
     78          1           0       -0.536128    3.668897   -1.402704
     79          1           0       -2.902116    3.357603   -2.649538
     80          1           0       -2.346869    4.952316   -2.074828
     81          7           0       -4.900646    4.143255   -1.111218
     82          6           0       -6.145646    3.969427   -0.388613
     83          6           0       -6.294620    2.681962    0.408407
     84          8           0       -7.321466    2.415117    1.012875
     85          6           0       -6.662544    5.145618    0.433575
     86          6           0       -6.960411    6.350918   -0.434023
     87          6           0       -6.169901    7.499697   -0.296914
     88          6           0       -7.959308    6.309269   -1.407815
     89          6           0       -6.489382    8.658467   -1.010345
     90          6           0       -8.273432    7.465805   -2.134142
     91          6           0       -7.587298    8.670365   -1.902723
     92          8           0       -8.003207    9.869352   -2.384024
     93          1           0       -5.042362    4.322243   -2.092839
     94          1           0       -6.866491    3.826454   -1.198329
     95          1           0       -5.981145    5.366468    1.252185
     96          1           0       -7.558769    4.821688    0.970371
     97          1           0       -5.280098    7.377226    0.303297
     98          1           0       -8.556180    5.426086   -1.572535
     99          1           0       -5.958387    9.565365   -0.760785
    100          1           0       -9.176962    7.465755   -2.734337
    101          1           0       -8.672814    9.864301   -3.072283
    102          7           0       -5.271301    1.826219    0.454464
    103          6           0       -5.104456    0.473949    0.959665
    104          6           0       -5.885128   -0.667836    0.321402
    105          8           0       -5.307399   -1.746276    0.228697
    106          6           0       -5.161256    0.472348    2.487202
    107          6           0       -4.175782    1.452435    3.122239
    108          6           0       -4.877229   -0.945289    2.982616
    109          6           0       -4.678035    1.967577    4.468260
    110          1           0       -4.519561    2.115726   -0.151896
    111          1           0       -4.030831    0.363433    0.819966
    112          1           0       -6.177194    0.729860    2.764974
    113          1           0       -4.113343    2.374180    2.546491
    114          1           0       -3.180237    1.040556    3.273717
    115          1           0       -4.762543   -0.900865    4.069388
    116          1           0       -5.759210   -1.546781    2.774727
    117          1           0       -3.942269   -1.339023    2.594001
    118          1           0       -5.659819    2.412191    4.293565
    119          1           0       -4.917853    1.157133    5.160407
    120          1           0       -4.010526    2.660064    4.974514
    121          7           0       -7.112544   -0.437330   -0.158617
    122          6           0       -7.901054   -1.416643   -0.882563
    123          6           0       -8.265332   -2.660395   -0.073995
    124          8           0       -8.790439   -3.610435   -0.639314
    125          6           0       -9.156576   -0.797769   -1.503577
    126          8           0       -8.850474    0.338240   -2.278874
    127          1           0       -7.512850    0.471064    0.006234
    128          1           0       -7.357952   -1.822032   -1.726602
    129          1           0       -9.882449   -0.517192   -0.737102
    130          1           0       -9.629804   -1.503886   -2.198166
    131          1           0       -9.706943    0.757390   -2.428119
    132          7           0       -7.934383   -2.674456    1.213551
    133          6           0       -7.729561   -3.929751    1.903829
    134          6           0       -6.720035   -4.911352    1.337865
    135          8           0       -6.915698   -6.121859    1.388763
    136          6           0       -9.117991   -4.365043    2.379523
    137          1           0       -7.791644   -1.835018    1.771018
    138          1           0       -7.287298   -3.644546    2.852333
    139          1           0       -9.029459   -5.004943    3.248309
    140          1           0       -9.598883   -3.419856    2.651855
    141          1           0       -9.664393   -4.894840    1.592974
    142          7           0       -5.640277   -4.506797    0.661730
    143          6           0       -4.707293   -5.373735   -0.033438
    144          6           0       -3.347188   -5.160389    0.634169
    145          8           0       -2.954015   -4.073160    1.043372
    146          6           0       -4.723537   -4.929733   -1.497370
    147          1           0       -5.527961   -3.510595    0.543549
    148          1           0       -4.952921   -6.415388    0.161308
    149          1           0       -3.943201   -5.453076   -2.044077
    150          1           0       -5.657433   -5.243043   -1.962856
    151          1           0       -4.586642   -3.846491   -1.504107
    152          7           0       -2.514005   -6.193992    0.562269
    153          6           0       -1.140235   -6.303779    1.027891
    154          6           0       -0.963771   -5.765100    2.434655
    155          8           0       -0.257097   -4.791372    2.675826
    156          6           0       -0.300048   -5.563912   -0.015222
    157          6           0       -0.182000   -6.365738   -1.308335
    158          6           0        0.808757   -5.605173   -2.168417
    159          8           0        2.031482   -5.520138   -1.931115
    160          8           0        0.378803   -4.793163   -3.022747
    161          1           0       -2.895431   -7.006676    0.094873
    162          1           0       -0.859039   -7.350622    0.984878
    163          1           0        0.686496   -5.405053    0.405841
    164          1           0       -0.678285   -4.558456   -0.152681
    165          1           0       -1.165794   -6.304541   -1.766380
    166          1           0        0.143165   -7.357064   -1.001512
    167          7           0       -1.646152   -6.312076    3.455622
    168          6           0       -1.782160   -5.709017    4.767956
    169          1           0       -2.728886   -5.170849    4.823469
    170          1           0       -1.762210   -6.488322    5.530049
    171          1           0       -0.959581   -5.013869    4.935719
    172          1           0       -2.217405   -7.126297    3.351631
    173         20           0        2.816534   -3.966174   -3.758515
    174          8           0        4.486489   -3.435278   -5.599385
    175          1           0        4.536930   -3.232107   -6.536389
    176          1           0        5.227160   -2.950152   -5.212915
 ---------------------------------------------------------------------

 SCF Done:  E(RB3LYP) =  -5333.34387476     A.U. after   39 cycles

 The electronic state is 1-A.
 Alpha  occ. eigenvalues -- -145.43498 -19.21263 -19.16390 -19.13371 -19.10973
 Alpha  occ. eigenvalues --  -19.09909 -19.09127 -19.09051 -19.08959 -19.08482
 Alpha  occ. eigenvalues --  -19.08421 -19.07968 -19.07141 -19.06320 -19.06163
 Alpha  occ. eigenvalues --  -19.06044 -19.06006 -19.05973 -19.05938 -19.05890
 Alpha  occ. eigenvalues --  -19.05185 -19.04701 -18.96927 -18.96479 -15.49501
 Alpha  occ. eigenvalues --  -14.56888 -14.37215 -14.36137 -14.35391 -14.35136
 Alpha  occ. eigenvalues --  -14.34926 -14.34063 -14.33970 -14.33584 -14.33538
 Alpha  occ. eigenvalues --  -14.32836 -14.32679 -14.32618 -14.30731 -14.30145
 Alpha  occ. eigenvalues --  -12.63127 -12.63068 -12.62977 -10.34104 -10.29828
 Alpha  occ. eigenvalues --  -10.28229 -10.27866 -10.27856 -10.27448 -10.27095
 Alpha  occ. eigenvalues --  -10.26995 -10.26853 -10.26625 -10.26229 -10.25903
 Alpha  occ. eigenvalues --  -10.25658 -10.25528 -10.25409 -10.25286 -10.24974
 Alpha  occ. eigenvalues --  -10.24782 -10.24469 -10.24389 -10.24251 -10.24106
 Alpha  occ. eigenvalues --  -10.23739 -10.23461 -10.22740 -10.22667 -10.22601
 Alpha  occ. eigenvalues --  -10.22365 -10.21684 -10.21404 -10.21214 -10.21193
 Alpha  occ. eigenvalues --  -10.20371 -10.19733 -10.19585 -10.19457 -10.19307
 Alpha  occ. eigenvalues --  -10.19016 -10.18970 -10.18806 -10.18757 -10.18407
 Alpha  occ. eigenvalues --  -10.18088 -10.16833 -10.16636 -10.16564 -10.16108
 Alpha  occ. eigenvalues --  -10.15830 -10.15528 -10.15234 -10.15153 -10.14924
 Alpha  occ. eigenvalues --  -10.14916 -10.12658  -1.86276  -1.14017  -1.13574
 Alpha  occ. eigenvalues --   -1.13178  -1.12482  -1.06840  -1.04946  -1.04392
 Alpha  occ. eigenvalues --   -1.02996  -1.02587  -1.02369  -1.02338  -1.01702
 Alpha  occ. eigenvalues --   -1.01651  -1.01565  -1.01431  -1.01410  -1.01224
 Alpha  occ. eigenvalues --   -1.00336  -1.00117  -0.99521  -0.99151  -0.98596
 Alpha  occ. eigenvalues --   -0.97834  -0.94022  -0.92932  -0.92713  -0.92179
 Alpha  occ. eigenvalues --   -0.91438  -0.91097  -0.90913  -0.90499  -0.90390
 Alpha  occ. eigenvalues --   -0.90261  -0.90083  -0.89711  -0.89665  -0.88346
 Alpha  occ. eigenvalues --   -0.88233  -0.87679  -0.87423  -0.87378  -0.85107
 Alpha  occ. eigenvalues --   -0.81951  -0.80885  -0.80215  -0.79126  -0.78414
 Alpha  occ. eigenvalues --   -0.77684  -0.77655  -0.76914  -0.75945  -0.74977
 Alpha  occ. eigenvalues --   -0.74616  -0.74415  -0.73442  -0.73313  -0.72767
 Alpha  occ. eigenvalues --   -0.72544  -0.72241  -0.71712  -0.71293  -0.71111
 Alpha  occ. eigenvalues --   -0.68593  -0.68404  -0.67751  -0.67251  -0.67045
 Alpha  occ. eigenvalues --   -0.66148  -0.65341  -0.64554  -0.63805  -0.63346
 Alpha  occ. eigenvalues --   -0.62511  -0.61895  -0.61632  -0.61476  -0.60833
 Alpha  occ. eigenvalues --   -0.60410  -0.60117  -0.60040  -0.59969  -0.59647
 Alpha  occ. eigenvalues --   -0.59345  -0.58547  -0.58470  -0.58247  -0.57323
 Alpha  occ. eigenvalues --   -0.57300  -0.56626  -0.56032  -0.55985  -0.55934
 Alpha  occ. eigenvalues --   -0.55788  -0.55429  -0.55413  -0.55205  -0.54658
 Alpha  occ. eigenvalues --   -0.54350  -0.54177  -0.53987  -0.53074  -0.52901
 Alpha  occ. eigenvalues --   -0.52595  -0.52291  -0.51678  -0.51374  -0.51194
 Alpha  occ. eigenvalues --   -0.50758  -0.50605  -0.50370  -0.50094  -0.49963
 Alpha  occ. eigenvalues --   -0.49435  -0.49396  -0.48707  -0.48642  -0.47932
 Alpha  occ. eigenvalues --   -0.47610  -0.47384  -0.47227  -0.46878  -0.46746
 Alpha  occ. eigenvalues --   -0.46574  -0.46184  -0.45682  -0.45639  -0.45424
 Alpha  occ. eigenvalues --   -0.45257  -0.45166  -0.44912  -0.44708  -0.44673
 Alpha  occ. eigenvalues --   -0.44468  -0.44321  -0.44161  -0.43965  -0.43688
 Alpha  occ. eigenvalues --   -0.43619  -0.43278  -0.43193  -0.43147  -0.42869
 Alpha  occ. eigenvalues --   -0.42690  -0.42593  -0.42496  -0.42316  -0.42158
 Alpha  occ. eigenvalues --   -0.42102  -0.41916  -0.41779  -0.41502  -0.41325
 Alpha  occ. eigenvalues --   -0.41201  -0.41046  -0.40974  -0.40880  -0.40862
 Alpha  occ. eigenvalues --   -0.40841  -0.40486  -0.40422  -0.40304  -0.39967
 Alpha  occ. eigenvalues --   -0.39955  -0.39911  -0.39564  -0.39358  -0.39252
 Alpha  occ. eigenvalues --   -0.38986  -0.38902  -0.38846  -0.38813  -0.38670
 Alpha  occ. eigenvalues --   -0.38443  -0.38385  -0.38359  -0.38053  -0.37963
 Alpha  occ. eigenvalues --   -0.37802  -0.37670  -0.37554  -0.37274  -0.37222
 Alpha  occ. eigenvalues --   -0.37059  -0.36913  -0.36889  -0.36503  -0.36484
 Alpha  occ. eigenvalues --   -0.36288  -0.35830  -0.35753  -0.35601  -0.35594
 Alpha  occ. eigenvalues --   -0.35571  -0.35203  -0.35108  -0.35034  -0.34703
 Alpha  occ. eigenvalues --   -0.34680  -0.34472  -0.34394  -0.34392  -0.33945
 Alpha  occ. eigenvalues --   -0.33860  -0.33752  -0.33742  -0.33499  -0.33454
 Alpha  occ. eigenvalues --   -0.33323  -0.33117  -0.33097  -0.32544  -0.32360
 Alpha  occ. eigenvalues --   -0.32207  -0.32139  -0.31913  -0.31151  -0.31037
 Alpha  occ. eigenvalues --   -0.29362  -0.28660  -0.28051  -0.27984  -0.27828
 Alpha  occ. eigenvalues --   -0.27720  -0.27246  -0.27137  -0.27078  -0.26824
 Alpha  occ. eigenvalues --   -0.26567  -0.25966  -0.25939  -0.25855  -0.25239
 Alpha  occ. eigenvalues --   -0.25001  -0.24772  -0.24681  -0.24588  -0.24205
 Alpha  occ. eigenvalues --   -0.23986  -0.23965  -0.23752  -0.23607  -0.23423
 Alpha  occ. eigenvalues --   -0.23376  -0.22966  -0.22867  -0.22754  -0.22575
 Alpha  occ. eigenvalues --   -0.22280  -0.22222  -0.21822  -0.21675  -0.21522
 Alpha  occ. eigenvalues --   -0.21374  -0.20946  -0.20882  -0.20825  -0.20590
 Alpha  occ. eigenvalues --   -0.14568  -0.13913  -0.10994
 Alpha virt. eigenvalues --   -0.10091  -0.06104  -0.03587  -0.03058  -0.01964
 Alpha virt. eigenvalues --   -0.01156  -0.00265  -0.00030   0.00829   0.01272
 Alpha virt. eigenvalues --    0.01432   0.01514   0.01972   0.02242   0.02438

 Mulliken charges:
               1
     1  C    0.063359
     2  C    0.007077
     3  O   -0.316246
     4  H    0.011961
     5  H    0.041799
     6  H    0.009828
     7  N   -0.096859
     8  C    0.070629
     9  C    0.106010
    10  O   -0.288070
    11  C    0.159646
    12  C    0.010830
    13  O   -0.358361
    14  O   -0.362833
    15  H    0.137334
    16  H   -0.032679
    17  H   -0.044699
    18  H   -0.018634
    19  N   -0.117366
    20  C    0.147270
    21  C    0.041111
    22  O   -0.281082
    23  C   -0.005892
    24  C   -0.008364
    25  C   -0.043042
    26  C    0.044911
    27  N    0.139196
    28  H    0.126024
    29  H   -0.022504
    30  H    0.026932
    31  H    0.015265
    32  H    0.007790
    33  H    0.032627
    34  H    0.033089
    35  H    0.036382
    36  H    0.055176
    37  H    0.061348
    38  H    0.147001
    39  H    0.131991
    40  H    0.143257
    41  N   -0.144668
    42  C    0.180900
    43  C    0.071548
    44  O   -0.270125
    45  C    0.057353
    46  C    0.107907
    47  O   -0.415681
    48  O   -0.470514
    49  H    0.151851
    50  H   -0.019434
    51  H    0.029366
    52  H   -0.008075
    53  N   -0.121138
    54  C    0.226321
    55  C    0.022732
    56  O   -0.274545
    57  H    0.115532
    58  H    0.025121
    59  H    0.040907
    60  N   -0.158088
    61  C    0.141736
    62  C    0.102408
    63  O   -0.276849
    64  C    0.073271
    65  C   -0.011507
    66  N   -0.029276
    67  O   -0.237443
    68  H    0.111883
    69  H    0.038733
    70  H    0.046131
    71  H   -0.017438
    72  H    0.115026
    73  H    0.141083
    74  N   -0.124437
    75  C    0.161853
    76  C    0.054222
    77  O   -0.262010
    78  H    0.115009
    79  H    0.036806
    80  H    0.034928
    81  N   -0.141757
    82  C    0.096017
    83  C    0.052118
    84  O   -0.308095
    85  C    0.171885
    86  C   -0.033768
    87  C   -0.004719
    88  C   -0.033317
    89  C   -0.017736
    90  C   -0.048342
    91  C    0.183346
    92  O   -0.202997
    93  H    0.127013
    94  H    0.015020
    95  H    0.000229
    96  H    0.020140
    97  H   -0.019762
    98  H   -0.026452
    99  H   -0.018476
   100  H   -0.040071
   101  H    0.177949
   102  N   -0.106265
   103  C    0.205264
   104  C    0.072468
   105  O   -0.273313
   106  C   -0.179975
   107  C    0.029119
   108  C    0.123963
   109  C    0.015609
   110  H    0.129749
   111  H    0.017480
   112  H   -0.019606
   113  H    0.015685
   114  H    0.003987
   115  H   -0.013985
   116  H   -0.037681
   117  H    0.049293
   118  H   -0.000220
   119  H   -0.014218
   120  H    0.008798
   121  N   -0.120191
   122  C    0.124664
   123  C    0.044608
   124  O   -0.260904
   125  C    0.200084
   126  O   -0.308081
   127  H    0.130002
   128  H    0.029103
   129  H   -0.015410
   130  H    0.018793
   131  H    0.165228
   132  N   -0.135847
   133  C    0.057934
   134  C    0.058195
   135  O   -0.288287
   136  C    0.087100
   137  H    0.135959
   138  H    0.012725
   139  H    0.003040
   140  H   -0.015059
   141  H    0.040833
   142  N   -0.145845
   143  C    0.100331
   144  C    0.045471
   145  O   -0.257657
   146  C    0.071721
   147  H    0.141819
   148  H   -0.007301
   149  H   -0.006407
   150  H    0.027834
   151  H    0.042620
   152  N   -0.129412
   153  C    0.118641
   154  C    0.092727
   155  O   -0.245131
   156  C   -0.015462
   157  C    0.159270
   158  C    0.088854
   159  O   -0.454790
   160  O   -0.441882
   161  H    0.104726
   162  H   -0.016505
   163  H    0.020819
   164  H    0.043591
   165  H   -0.013372
   166  H   -0.026251
   167  N   -0.157644
   168  C    0.122146
   169  H    0.027192
   170  H    0.003247
   171  H    0.049501
   172  H    0.094036
   173  Ca   1.384506
   174  O   -0.335248
   175  H    0.193184
   176  H    0.209186
 Sum of Mulliken charges =  -0.00000

 Dipole moment (field-independent basis, Debye):
    X=             17.5739    Y=            -22.6813    Z=            -15.2534  Tot=             32.4954
 Quadrupole moment (field-independent basis, Debye-Ang):
   XX=           -296.8864   YY=           -521.2808   ZZ=           -502.7305
   XY=           -362.5132   XZ=            -34.3191   YZ=            -38.6566

 ESP charges:
               1
     1  C   -0.472468
     2  C    0.795056
     3  O   -0.628584
     4  H    0.116097
     5  H    0.135875
     6  H    0.110208
     7  N   -0.633821
     8  C    0.324921
     9  C    0.392267
    10  O   -0.486483
    11  C   -0.318531
    12  C    0.787346
    13  O   -0.686120
    14  O   -0.680831
    15  H    0.319838
    16  H   -0.004179
    17  H    0.046760
    18  H    0.064835
    19  N   -0.465573
    20  C   -0.047995
    21  C    0.561300
    22  O   -0.585745
    23  C   -0.139086
    24  C   -0.049078
    25  C   -0.032374
    26  C    0.176606
    27  N   -0.361619
    28  H    0.315135
    29  H    0.098436
    30  H    0.069162
    31  H    0.119519
    32  H    0.042948
    33  H    0.018929
    34  H    0.032435
    35  H    0.019133
    36  H    0.017575
    37  H    0.055024
    38  H    0.282678
    39  H    0.269215
    40  H    0.290626
    41  N   -0.182373
    42  C   -0.268010
    43  C    0.475013
    44  O   -0.444863
    45  C   -0.152920
    46  C    0.866031
    47  O   -0.793359
    48  O   -0.834958
    49  H    0.241430
    50  H    0.125973
    51  H    0.078435
    52  H    0.076523
    53  N   -0.098032
    54  C   -0.502385
    55  C    0.595513
    56  O   -0.549790
    57  H    0.219953
    58  H    0.200033
    59  H    0.183624
    60  N   -0.333680
    61  C    0.179797
    62  C    0.347868
    63  O   -0.454868
    64  C   -0.311963
    65  C    0.730844
    66  N   -0.869556
    67  O   -0.549652
    68  H    0.212644
    69  H    0.098774
    70  H    0.098483
    71  H    0.032921
    72  H    0.392744
    73  H    0.408273
    74  N   -0.196065
    75  C   -0.347960
    76  C    0.780493
    77  O   -0.547822
    78  H    0.230772
    79  H    0.133287
    80  H    0.143966
    81  N   -0.715624
    82  C    0.200790
    83  C    0.328507
    84  O   -0.530399
    85  C   -0.106864
    86  C   -0.029571
    87  C   -0.073353
    88  C    0.001332
    89  C   -0.326042
    90  C   -0.435171
    91  C    0.456525
    92  O   -0.559450
    93  H    0.335840
    94  H    0.064254
    95  H    0.093280
    96  H    0.063809
    97  H    0.110975
    98  H    0.094996
    99  H    0.173231
   100  H    0.167857
   101  H    0.412206
   102  N   -0.060614
   103  C   -0.506672
   104  C    0.795524
   105  O   -0.561503
   106  C    0.511693
   107  C    0.106651
   108  C   -0.444176
   109  C   -0.284816
   110  H    0.168754
   111  H    0.152682
   112  H   -0.056256
   113  H   -0.003472
   114  H   -0.003409
   115  H    0.078505
   116  H    0.064711
   117  H    0.129950
   118  H    0.049919
   119  H    0.033251
   120  H    0.077198
   121  N   -0.584122
   122  C    0.309666
   123  C    0.217423
   124  O   -0.479066
   125  C    0.225253
   126  O   -0.617495
   127  H    0.288808
   128  H    0.055636
   129  H   -0.011853
   130  H    0.002841
   131  H    0.397700
   132  N   -0.284434
   133  C    0.510752
   134  C    0.264095
   135  O   -0.537335
   136  C   -0.344675
   137  H    0.206595
   138  H   -0.031838
   139  H    0.064290
   140  H    0.057202
   141  H    0.106062
   142  N   -0.228254
   143  C    0.509214
   144  C    0.183307
   145  O   -0.372621
   146  C   -0.400663
   147  H    0.047939
   148  H   -0.057342
   149  H    0.065446
   150  H    0.102000
   151  H    0.154655
   152  N   -0.190489
   153  C   -0.516892
   154  C    0.525232
   155  O   -0.475318
   156  C    0.663494
   157  C   -0.183756
   158  C    0.589678
   159  O   -0.744864
   160  O   -0.734866
   161  H    0.221736
   162  H    0.155958
   163  H   -0.095399
   164  H   -0.056531
   165  H    0.019280
   166  H    0.013181
   167  N   -0.353189
   168  C   -0.036649
   169  H    0.066458
   170  H    0.031530
   171  H    0.082160
   172  H    0.264102
   173  Ca   1.659386
   174  O   -0.850218
   175  H    0.450353
   176  H    0.416818
 Sum of ESP charges =  -0.00000

 Normal termination of Gaussian 16 at Tue Sep 17 18:43:46 2019.
