 Gaussian 16, Revision A.03,
 Gaussian 16:  ES64L-G16RevA.03 25-Dec-2016

 ----------------------------------------------------------------------
 #b3lyp/svp scf=(tight,noincore) Test #IOP(5/87=12) Density=Current Pop
 =(MK,readradii) iop(6/33=2) iop(6/42=6)
 ----------------------------------------------------------------------

 -----------------
 Ng-293_loop3_21.0
 -----------------
 Symbolic Z-matrix:
 Charge =  0 Multiplicity = 1

                         Standard orientation:
 ---------------------------------------------------------------------
 Center     Atomic      Atomic             Coordinates (Angstroms)
 Number     Number       Type             X           Y           Z
 ---------------------------------------------------------------------
      1          6           0        8.310534   -2.447977   -7.057401
      2          6           0        8.844608   -2.256934   -5.645677
      3          8           0       10.022692   -2.020157   -5.401025
      4          1           0        7.823658   -3.420122   -7.132480
      5          1           0        7.589504   -1.662377   -7.283388
      6          1           0        9.135981   -2.400034   -7.767872
      7          7           0        7.880409   -2.322616   -4.724533
      8          6           0        8.114556   -2.342653   -3.293109
      9          6           0        6.982560   -1.636252   -2.562572
     10          8           0        5.855739   -1.528796   -3.028756
     11          6           0        8.207962   -3.822920   -2.924616
     12          6           0        8.695500   -4.086455   -1.503259
     13          8           0        9.285664   -3.186986   -0.855137
     14          8           0        8.643037   -5.255730   -1.064008
     15          1           0        6.901671   -2.317257   -4.953972
     16          1           0        9.081050   -1.912582   -3.056619
     17          1           0        8.992352   -4.150881   -3.618355
     18          1           0        7.291000   -4.400698   -3.030227
     19          7           0        7.303999   -1.266732   -1.323568
     20          6           0        6.549791   -0.723230   -0.216149
     21          6           0        5.578182   -1.670387    0.482400
     22          8           0        5.144217   -2.642061   -0.129828
     23          6           0        5.794319    0.536672   -0.634728
     24          6           0        6.517171    1.568656   -1.500981
     25          6           0        7.688940    2.226144   -0.783717
     26          6           0        8.272292    3.328531   -1.659070
     27          7           0        9.600960    3.824998   -1.263139
     28          1           0        8.287506   -1.399146   -1.139233
     29          1           0        7.309845   -0.410645    0.506837
     30          1           0        5.419490    1.106946    0.215678
     31          1           0        4.962625    0.162384   -1.231380
     32          1           0        5.887714    2.385251   -1.852486
     33          1           0        6.850820    1.108278   -2.430299
     34          1           0        8.428385    1.437243   -0.618320
     35          1           0        7.344683    2.721059    0.135873
     36          1           0        7.510820    4.103986   -1.755663
     37          1           0        8.290088    3.028757   -2.701720
     38          1           0        9.598006    4.025631   -0.269994
     39          1           0       10.348174    3.151266   -1.303838
     40          1           0        9.805668    4.713350   -1.704190
     41          7           0        5.228547   -1.255751    1.698514
     42          6           0        4.509058   -2.007777    2.712118
     43          6           0        3.010736   -1.985062    2.494140
     44          8           0        2.175485   -1.750925    3.362550
     45          6           0        4.910123   -1.463186    4.084950
     46          6           0        4.777772    0.040588    4.253608
     47          8           0        4.110157    0.725108    3.454219
     48          8           0        5.213212    0.563912    5.297554
     49          1           0        5.582212   -0.354492    1.952980
     50          1           0        4.931647   -3.012077    2.694743
     51          1           0        5.975222   -1.685240    4.160163
     52          1           0        4.281406   -1.981568    4.811377
     53          7           0        2.617610   -1.981283    1.209213
     54          6           0        1.339257   -1.829359    0.541882
     55          6           0        0.506013   -3.098975    0.602563
     56          8           0       -0.098017   -3.498672   -0.383991
     57          1           0        3.373849   -2.068065    0.549234
     58          1           0        1.530157   -1.557266   -0.499282
     59          1           0        0.742200   -1.006624    0.917021
     60          7           0        0.412603   -3.692671    1.803938
     61          6           0       -0.444893   -4.848073    1.988180
     62          6           0       -1.857264   -4.340779    2.245592
     63          8           0       -2.032468   -3.457218    3.085963
     64          6           0        0.147048   -5.654507    3.136296
     65          6           0       -0.534719   -6.959802    3.521911
     66          7           0       -0.535897   -7.884096    2.564790
     67          8           0       -1.195840   -7.106500    4.554770
     68          1           0        0.645609   -3.201995    2.654611
     69          1           0       -0.372698   -5.448106    1.074315
     70          1           0        0.044371   -4.930792    3.946847
     71          1           0        1.180395   -5.847636    2.845100
     72          1           0       -0.124549   -7.692019    1.657046
     73          1           0       -1.113016   -8.684830    2.777296
     74          7           0       -2.825728   -4.965706    1.586696
     75          6           0       -4.224587   -4.569702    1.578154
     76          6           0       -4.668468   -3.914556    0.286545
     77          8           0       -3.847377   -3.727993   -0.604468
     78          1           0       -2.545763   -5.591664    0.847645
     79          1           0       -4.480665   -3.906779    2.401839
     80          1           0       -4.755099   -5.490581    1.816983
     81          7           0       -5.905867   -3.419082    0.187804
     82          6           0       -6.394646   -2.585986   -0.895915
     83          6           0       -5.831676   -1.167720   -0.905066
     84          8           0       -6.224534   -0.411763   -1.781303
     85          6           0       -6.560799   -3.355389   -2.202594
     86          6           0       -7.288564   -4.677679   -2.166401
     87          6           0       -6.645692   -5.924542   -2.195540
     88          6           0       -8.673379   -4.610979   -1.981909
     89          6           0       -7.385038   -7.112888   -2.154319
     90          6           0       -9.401168   -5.793547   -1.809414
     91          6           0       -8.766210   -7.039553   -1.919402
     92          8           0       -9.510265   -8.183454   -1.879724
     93          1           0       -6.591391   -3.606194    0.908460
     94          1           0       -7.392682   -2.381729   -0.521477
     95          1           0       -5.567849   -3.560855   -2.596337
     96          1           0       -7.126348   -2.724060   -2.901220
     97          1           0       -5.562526   -5.923573   -2.232286
     98          1           0       -9.208576   -3.675381   -2.044531
     99          1           0       -6.790532   -8.017969   -2.171391
    100          1           0      -10.474133   -5.661166   -1.721541
    101          1           0      -10.442689   -8.032838   -1.695333
    102          7           0       -4.806271   -0.842447   -0.107732
    103          6           0       -4.105138    0.411525    0.043487
    104          6           0       -4.967407    1.523841    0.625764
    105          8           0       -4.480540    2.209472    1.521683
    106          6           0       -3.605227    0.899006   -1.310119
    107          6           0       -2.884600   -0.237576   -2.029687
    108          6           0       -2.627544    2.059890   -1.184482
    109          6           0       -1.572948   -0.712080   -1.423456
    110          1           0       -4.581393   -1.611916    0.502798
    111          1           0       -3.223851    0.211025    0.652694
    112          1           0       -4.384806    1.279236   -1.978088
    113          1           0       -2.568225    0.071955   -3.023366
    114          1           0       -3.581181   -1.083416   -2.104051
    115          1           0       -3.103112    2.924886   -0.740390
    116          1           0       -1.858507    1.902242   -0.424069
    117          1           0       -2.006742    2.234655   -2.063437
    118          1           0       -1.213784   -1.618128   -1.917196
    119          1           0       -0.768800   -0.004369   -1.638142
    120          1           0       -1.687963   -0.790241   -0.341900
    121          7           0       -6.183393    1.710335    0.115961
    122          6           0       -7.088449    2.775426    0.505263
    123          6           0       -6.704997    4.108502   -0.114310
    124          8           0       -6.840769    5.185545    0.475642
    125          6           0       -8.484601    2.456721   -0.008339
    126          8           0       -8.449095    2.268414   -1.394152
    127          1           0       -6.582654    1.042490   -0.534787
    128          1           0       -7.139635    3.004983    1.571464
    129          1           0       -9.195804    3.241678    0.274914
    130          1           0       -8.758977    1.512609    0.464915
    131          1           0       -9.345585    2.300940   -1.740198
    132          7           0       -6.193553    4.052534   -1.343698
    133          6           0       -5.636177    5.203410   -2.039122
    134          6           0       -4.728938    6.127563   -1.258507
    135          8           0       -4.598357    7.289292   -1.634983
    136          6           0       -6.690407    5.912921   -2.883274
    137          1           0       -6.512623    3.283768   -1.905652
    138          1           0       -4.990253    4.763839   -2.803360
    139          1           0       -6.392806    6.851014   -3.341549
    140          1           0       -7.028479    5.233212   -3.673719
    141          1           0       -7.521369    6.073666   -2.197881
    142          7           0       -4.112464    5.622541   -0.187521
    143          6           0       -2.964582    6.243063    0.445109
    144          6           0       -1.621404    5.855727   -0.164187
    145          8           0       -1.433670    4.878539   -0.888038
    146          6           0       -3.067738    5.946550    1.941251
    147          1           0       -4.355689    4.679472    0.090981
    148          1           0       -3.045380    7.325632    0.377911
    149          1           0       -2.227795    6.382345    2.469719
    150          1           0       -4.010953    6.379530    2.255851
    151          1           0       -3.108923    4.867463    2.092164
    152          7           0       -0.609713    6.646487    0.213940
    153          6           0        0.821893    6.556290   -0.012486
    154          6           0        1.270494    6.445593   -1.460175
    155          8           0        2.462424    6.288968   -1.702189
    156          6           0        1.570605    5.483399    0.758770
    157          6           0        1.463460    5.610003    2.270917
    158          6           0        2.134876    4.479539    3.045418
    159          8           0        3.318527    4.130475    2.859071
    160          8           0        1.483828    4.016280    4.002199
    161          1           0       -0.887438    7.497180    0.679333
    162          1           0        1.152558    7.543508    0.325539
    163          1           0        2.632263    5.629932    0.573536
    164          1           0        1.275690    4.470355    0.475104
    165          1           0        0.409023    5.633169    2.526507
    166          1           0        1.783858    6.620301    2.527322
    167          7           0        0.294788    6.635197   -2.354629
    168          6           0        0.529354    6.691694   -3.777123
    169          1           0        1.464374    7.216922   -3.970313
    170          1           0        0.593131    5.679349   -4.176039
    171          1           0       -0.290792    7.222077   -4.260431
    172          1           0       -0.638689    6.689253   -1.967076
    173         20           0        3.769787    2.807505    5.112583
    174          8           0        2.078526    0.797332    5.124476
    175          1           0        1.198671    1.099578    5.368409
    176          1           0        1.967426   -0.122173    4.900496
 ---------------------------------------------------------------------

 SCF Done:  E(RB3LYP) =  -5333.39798203     A.U. after   43 cycles

 The electronic state is 1-A.
 Alpha  occ. eigenvalues -- -145.45885 -19.16748 -19.16150 -19.15126 -19.11320
 Alpha  occ. eigenvalues --  -19.10692 -19.10178 -19.09636 -19.09585 -19.09451
 Alpha  occ. eigenvalues --  -19.09353 -19.09173 -19.08667 -19.08539 -19.08306
 Alpha  occ. eigenvalues --  -19.08233 -19.07988 -19.07588 -19.07347 -19.07064
 Alpha  occ. eigenvalues --  -19.06563 -19.05245 -18.97045 -18.95922 -15.51807
 Alpha  occ. eigenvalues --  -14.58043 -14.37809 -14.36441 -14.36285 -14.36282
 Alpha  occ. eigenvalues --  -14.35280 -14.35130 -14.35061 -14.34763 -14.34342
 Alpha  occ. eigenvalues --  -14.33876 -14.33545 -14.33433 -14.31616 -14.30363
 Alpha  occ. eigenvalues --  -12.65403 -12.65382 -12.65317 -10.33555 -10.30216
 Alpha  occ. eigenvalues --  -10.29634 -10.28619 -10.28164 -10.27933 -10.27885
 Alpha  occ. eigenvalues --  -10.27834 -10.27715 -10.27546 -10.27207 -10.27137
 Alpha  occ. eigenvalues --  -10.26782 -10.26629 -10.26340 -10.26242 -10.26165
 Alpha  occ. eigenvalues --  -10.25903 -10.25355 -10.24746 -10.24678 -10.24184
 Alpha  occ. eigenvalues --  -10.23847 -10.23391 -10.23207 -10.23143 -10.23116
 Alpha  occ. eigenvalues --  -10.23091 -10.22999 -10.22499 -10.22033 -10.21636
 Alpha  occ. eigenvalues --  -10.21589 -10.19915 -10.19870 -10.19844 -10.19666
 Alpha  occ. eigenvalues --  -10.19656 -10.19594 -10.19535 -10.19102 -10.18658
 Alpha  occ. eigenvalues --  -10.18163 -10.17734 -10.17121 -10.17087 -10.17065
 Alpha  occ. eigenvalues --  -10.16999 -10.16150 -10.15808 -10.15151 -10.14579
 Alpha  occ. eigenvalues --  -10.14567 -10.11343  -1.88494  -1.15950  -1.15670
 Alpha  occ. eigenvalues --   -1.15307  -1.13058  -1.05302  -1.05296  -1.04983
 Alpha  occ. eigenvalues --   -1.04269  -1.03413  -1.03319  -1.02682  -1.02660
 Alpha  occ. eigenvalues --   -1.02382  -1.02304  -1.02056  -1.01804  -1.01352
 Alpha  occ. eigenvalues --   -1.01178  -1.01073  -1.00936  -1.00814  -0.99543
 Alpha  occ. eigenvalues --   -0.97842  -0.94758  -0.93326  -0.93225  -0.93037
 Alpha  occ. eigenvalues --   -0.92660  -0.92553  -0.91992  -0.91672  -0.91578
 Alpha  occ. eigenvalues --   -0.91210  -0.91084  -0.90897  -0.90594  -0.90112
 Alpha  occ. eigenvalues --   -0.89761  -0.89609  -0.87720  -0.87697  -0.85783
 Alpha  occ. eigenvalues --   -0.80956  -0.80932  -0.80450  -0.79833  -0.79670
 Alpha  occ. eigenvalues --   -0.78661  -0.78478  -0.78019  -0.76734  -0.75753
 Alpha  occ. eigenvalues --   -0.75360  -0.75231  -0.75062  -0.73500  -0.73487
 Alpha  occ. eigenvalues --   -0.72866  -0.72680  -0.72279  -0.72048  -0.70602
 Alpha  occ. eigenvalues --   -0.69231  -0.68810  -0.68355  -0.67648  -0.67265
 Alpha  occ. eigenvalues --   -0.66435  -0.66187  -0.65428  -0.65121  -0.63942
 Alpha  occ. eigenvalues --   -0.62921  -0.62896  -0.62308  -0.61791  -0.61706
 Alpha  occ. eigenvalues --   -0.61445  -0.61142  -0.60424  -0.60106  -0.59499
 Alpha  occ. eigenvalues --   -0.59255  -0.59173  -0.58628  -0.58345  -0.58274
 Alpha  occ. eigenvalues --   -0.58037  -0.57296  -0.57150  -0.56939  -0.56643
 Alpha  occ. eigenvalues --   -0.55954  -0.55690  -0.55460  -0.54806  -0.54702
 Alpha  occ. eigenvalues --   -0.54676  -0.54326  -0.54240  -0.54183  -0.54036
 Alpha  occ. eigenvalues --   -0.53849  -0.53248  -0.52807  -0.52638  -0.52132
 Alpha  occ. eigenvalues --   -0.51421  -0.50712  -0.50358  -0.49993  -0.49796
 Alpha  occ. eigenvalues --   -0.49791  -0.49583  -0.49195  -0.48732  -0.48301
 Alpha  occ. eigenvalues --   -0.48270  -0.48104  -0.47757  -0.47697  -0.47542
 Alpha  occ. eigenvalues --   -0.47270  -0.46753  -0.46576  -0.46499  -0.46426
 Alpha  occ. eigenvalues --   -0.45854  -0.45730  -0.45472  -0.45321  -0.45106
 Alpha  occ. eigenvalues --   -0.44985  -0.44898  -0.44487  -0.44264  -0.44150
 Alpha  occ. eigenvalues --   -0.44044  -0.43968  -0.43876  -0.43575  -0.43545
 Alpha  occ. eigenvalues --   -0.43307  -0.43114  -0.42988  -0.42945  -0.42673
 Alpha  occ. eigenvalues --   -0.42459  -0.42338  -0.42133  -0.42122  -0.42002
 Alpha  occ. eigenvalues --   -0.41835  -0.41802  -0.41771  -0.41643  -0.41412
 Alpha  occ. eigenvalues --   -0.41333  -0.41262  -0.41158  -0.40917  -0.40594
 Alpha  occ. eigenvalues --   -0.40487  -0.40418  -0.40319  -0.40077  -0.39964
 Alpha  occ. eigenvalues --   -0.39900  -0.39852  -0.39712  -0.39615  -0.39461
 Alpha  occ. eigenvalues --   -0.39398  -0.39267  -0.39080  -0.38857  -0.38793
 Alpha  occ. eigenvalues --   -0.38588  -0.38501  -0.38262  -0.38069  -0.37808
 Alpha  occ. eigenvalues --   -0.37749  -0.37661  -0.37520  -0.37440  -0.37141
 Alpha  occ. eigenvalues --   -0.37002  -0.36762  -0.36666  -0.36401  -0.36181
 Alpha  occ. eigenvalues --   -0.36074  -0.35918  -0.35818  -0.35618  -0.35493
 Alpha  occ. eigenvalues --   -0.35469  -0.35338  -0.35163  -0.35079  -0.34789
 Alpha  occ. eigenvalues --   -0.34602  -0.34541  -0.34518  -0.34105  -0.33636
 Alpha  occ. eigenvalues --   -0.33585  -0.33549  -0.33281  -0.33095  -0.32803
 Alpha  occ. eigenvalues --   -0.32702  -0.31963  -0.31428  -0.30892  -0.30497
 Alpha  occ. eigenvalues --   -0.30363  -0.29622  -0.29309  -0.28294  -0.28186
 Alpha  occ. eigenvalues --   -0.28050  -0.27912  -0.27467  -0.27362  -0.27103
 Alpha  occ. eigenvalues --   -0.26890  -0.26802  -0.26784  -0.26749  -0.26528
 Alpha  occ. eigenvalues --   -0.26509  -0.26145  -0.26088  -0.25889  -0.25804
 Alpha  occ. eigenvalues --   -0.25232  -0.24962  -0.24870  -0.24780  -0.24652
 Alpha  occ. eigenvalues --   -0.24515  -0.24370  -0.24142  -0.24093  -0.23827
 Alpha  occ. eigenvalues --   -0.23803  -0.23608  -0.23177  -0.23025  -0.22954
 Alpha  occ. eigenvalues --   -0.22618  -0.22412  -0.22101  -0.21375  -0.21008
 Alpha  occ. eigenvalues --   -0.14232  -0.13797  -0.11353
 Alpha virt. eigenvalues --   -0.10400  -0.09996  -0.03924  -0.03514  -0.02671
 Alpha virt. eigenvalues --   -0.01156  -0.00327  -0.00109   0.00654   0.00685
 Alpha virt. eigenvalues --    0.00887   0.01105   0.01421   0.01460   0.01607

 Mulliken charges:
               1
     1  C    0.039605
     2  C    0.027272
     3  O   -0.291550
     4  H    0.027649
     5  H    0.014158
     6  H    0.013945
     7  N   -0.135200
     8  C    0.074876
     9  C    0.066107
    10  O   -0.291856
    11  C    0.070047
    12  C    0.059599
    13  O   -0.409225
    14  O   -0.350479
    15  H    0.108743
    16  H   -0.017285
    17  H    0.017978
    18  H   -0.004477
    19  N   -0.094740
    20  C    0.098461
    21  C    0.108192
    22  O   -0.254277
    23  C    0.051130
    24  C    0.011643
    25  C   -0.045205
    26  C    0.006630
    27  N    0.107916
    28  H    0.103013
    29  H   -0.016068
    30  H    0.012055
    31  H    0.030166
    32  H    0.010515
    33  H    0.025451
    34  H    0.033834
    35  H    0.030244
    36  H    0.074085
    37  H    0.063310
    38  H    0.168425
    39  H    0.188214
    40  H    0.184863
    41  N   -0.150336
    42  C    0.129501
    43  C    0.114529
    44  O   -0.318663
    45  C    0.080553
    46  C    0.062460
    47  O   -0.394464
    48  O   -0.432777
    49  H    0.121783
    50  H    0.042930
    51  H    0.019599
    52  H    0.035902
    53  N   -0.149985
    54  C    0.218068
    55  C    0.047502
    56  O   -0.264474
    57  H    0.123928
    58  H    0.030457
    59  H    0.038185
    60  N   -0.151972
    61  C    0.071877
    62  C    0.100236
    63  O   -0.281476
    64  C    0.068726
    65  C    0.004277
    66  N   -0.055553
    67  O   -0.255029
    68  H    0.137707
    69  H   -0.016393
    70  H    0.020882
    71  H    0.032701
    72  H    0.122474
    73  H    0.127089
    74  N   -0.108754
    75  C    0.200677
    76  C    0.015232
    77  O   -0.249211
    78  H    0.124512
    79  H    0.035094
    80  H    0.030370
    81  N   -0.169019
    82  C    0.143615
    83  C    0.050544
    84  O   -0.302520
    85  C    0.194723
    86  C   -0.048415
    87  C   -0.019708
    88  C   -0.049885
    89  C   -0.013515
    90  C   -0.042276
    91  C    0.204633
    92  O   -0.204655
    93  H    0.123003
    94  H   -0.014051
    95  H    0.016258
    96  H    0.010658
    97  H   -0.013802
    98  H   -0.028226
    99  H   -0.018610
   100  H   -0.039609
   101  H    0.175407
   102  N   -0.093785
   103  C    0.173469
   104  C    0.067422
   105  O   -0.270847
   106  C   -0.123195
   107  C    0.048371
   108  C    0.097773
   109  C   -0.009254
   110  H    0.123413
   111  H    0.006331
   112  H    0.000492
   113  H   -0.017480
   114  H    0.006246
   115  H   -0.027272
   116  H   -0.016402
   117  H    0.009734
   118  H    0.037432
   119  H   -0.008647
   120  H   -0.002812
   121  N   -0.119640
   122  C    0.106907
   123  C    0.015133
   124  O   -0.267542
   125  C    0.206703
   126  O   -0.302359
   127  H    0.145462
   128  H    0.017921
   129  H    0.020780
   130  H   -0.003206
   131  H    0.176014
   132  N   -0.138907
   133  C    0.075535
   134  C    0.069965
   135  O   -0.278997
   136  C    0.068880
   137  H    0.132170
   138  H    0.022739
   139  H    0.030478
   140  H   -0.012718
   141  H    0.010810
   142  N   -0.125886
   143  C    0.059659
   144  C    0.084521
   145  O   -0.258992
   146  C    0.052181
   147  H    0.162624
   148  H    0.004708
   149  H    0.001419
   150  H    0.038706
   151  H    0.039980
   152  N   -0.162624
   153  C    0.100442
   154  C    0.059411
   155  O   -0.285982
   156  C    0.035262
   157  C    0.089225
   158  C    0.117288
   159  O   -0.439838
   160  O   -0.409270
   161  H    0.118801
   162  H   -0.002588
   163  H    0.016706
   164  H    0.016362
   165  H   -0.019673
   166  H   -0.026689
   167  N   -0.130901
   168  C    0.141134
   169  H    0.022817
   170  H    0.028540
   171  H    0.018373
   172  H    0.123828
   173  Ca   1.302903
   174  O   -0.309345
   175  H    0.171398
   176  H    0.187907
 Sum of Mulliken charges =  -0.00000

 Dipole moment (field-independent basis, Debye):
    X=             -3.1079    Y=             24.7304    Z=              7.0407  Tot=             25.9003
 Quadrupole moment (field-independent basis, Debye-Ang):
   XX=           -424.1773   YY=           -558.0645   ZZ=           -545.2729
   XY=            336.6346   XZ=             57.5157   YZ=             12.1141

 ESP charges:
               1
     1  C   -0.428172
     2  C    0.772108
     3  O   -0.590583
     4  H    0.122371
     5  H    0.101012
     6  H    0.096583
     7  N   -0.809749
     8  C    0.484097
     9  C    0.552895
    10  O   -0.541095
    11  C   -0.318562
    12  C    0.754602
    13  O   -0.714943
    14  O   -0.668368
    15  H    0.341466
    16  H   -0.042297
    17  H    0.101223
    18  H    0.066254
    19  N   -0.808886
    20  C    0.718170
    21  C    0.366453
    22  O   -0.449479
    23  C   -0.585790
    24  C    0.384237
    25  C   -0.319332
    26  C    0.218640
    27  N   -0.482102
    28  H    0.300715
    29  H   -0.075964
    30  H    0.106511
    31  H    0.160543
    32  H   -0.023215
    33  H   -0.057038
    34  H    0.095009
    35  H    0.085006
    36  H    0.060078
    37  H    0.045797
    38  H    0.320886
    39  H    0.366966
    40  H    0.346074
    41  N   -0.313208
    42  C   -0.193050
    43  C    0.541363
    44  O   -0.457818
    45  C   -0.075585
    46  C    0.696427
    47  O   -0.642339
    48  O   -0.776393
    49  H    0.203276
    50  H    0.152781
    51  H    0.062280
    52  H    0.059923
    53  N   -0.499380
    54  C    0.152741
    55  C    0.579545
    56  O   -0.573101
    57  H    0.296234
    58  H    0.047606
    59  H    0.041398
    60  N   -0.587028
    61  C    0.345176
    62  C    0.527957
    63  O   -0.518066
    64  C   -0.425100
    65  C    0.678977
    66  N   -0.803168
    67  O   -0.549838
    68  H    0.255902
    69  H    0.029217
    70  H    0.121590
    71  H    0.137574
    72  H    0.368091
    73  H    0.368863
    74  N   -0.528412
    75  C    0.292914
    76  C    0.556535
    77  O   -0.492013
    78  H    0.257650
    79  H    0.005041
    80  H   -0.000841
    81  N   -0.872774
    82  C    0.512613
    83  C    0.338066
    84  O   -0.538955
    85  C   -0.333501
    86  C    0.119851
    87  C   -0.214016
    88  C   -0.061532
    89  C   -0.214544
    90  C   -0.389723
    91  C    0.402088
    92  O   -0.560019
    93  H    0.365342
    94  H    0.007955
    95  H    0.136387
    96  H    0.087818
    97  H    0.162752
    98  H    0.107098
    99  H    0.154908
   100  H    0.159802
   101  H    0.414371
   102  N   -0.483764
   103  C   -0.071901
   104  C    0.469705
   105  O   -0.512672
   106  C    0.244095
   107  C   -0.073376
   108  C   -0.542455
   109  C   -0.034404
   110  H    0.357244
   111  H    0.135787
   112  H    0.029757
   113  H    0.020661
   114  H    0.019941
   115  H    0.042188
   116  H    0.145135
   117  H    0.163773
   118  H    0.059743
   119  H    0.001089
   120  H   -0.000014
   121  N   -0.252925
   122  C   -0.119273
   123  C    0.587313
   124  O   -0.535082
   125  C    0.110023
   126  O   -0.614698
   127  H    0.302388
   128  H    0.096241
   129  H    0.057615
   130  H    0.030784
   131  H    0.427648
   132  N   -0.474803
   133  C    0.437637
   134  C    0.356134
   135  O   -0.518270
   136  C   -0.280481
   137  H    0.287108
   138  H   -0.024143
   139  H    0.082519
   140  H    0.046469
   141  H    0.063806
   142  N   -0.475574
   143  C    0.713806
   144  C    0.363844
   145  O   -0.455104
   146  C   -0.318537
   147  H    0.195314
   148  H   -0.103625
   149  H    0.036664
   150  H    0.077402
   151  H    0.101045
   152  N   -0.643606
   153  C   -0.012956
   154  C    0.305858
   155  O   -0.497172
   156  C    0.409638
   157  C   -0.149483
   158  C    0.705502
   159  O   -0.774119
   160  O   -0.732577
   161  H    0.326667
   162  H    0.093189
   163  H   -0.089199
   164  H   -0.022576
   165  H    0.032990
   166  H   -0.005320
   167  N   -0.087309
   168  C   -0.246235
   169  H    0.101763
   170  H    0.111795
   171  H    0.102034
   172  H    0.186553
   173  Ca   1.528679
   174  O   -0.774273
   175  H    0.394981
   176  H    0.383565
 Sum of ESP charges =  -0.00000

 Normal termination of Gaussian 16 at Tue Sep 17 00:23:10 2019.
