 Gaussian 16, Revision A.03,
 Gaussian 16:  ES64L-G16RevA.03 25-Dec-2016

 ----------------------------------------------------------------------
 #b3lyp/svp scf=(tight,noincore,xqc) Test #IOP(5/87=12) Density=Current
  Pop=(MK,readradii) iop(6/33=2) iop(6/42=6)
 ----------------------------------------------------------------------

 -----------------
 Ng-293_loop3_77.0
 -----------------
 Symbolic Z-matrix:
 Charge =  0 Multiplicity = 1

                         Standard orientation:
 ---------------------------------------------------------------------
 Center     Atomic      Atomic             Coordinates (Angstroms)
 Number     Number       Type             X           Y           Z
 ---------------------------------------------------------------------
      1          6           0       -9.383034    0.917879    6.895426
      2          6           0       -9.633180    0.820337    5.398492
      3          8           0       -9.985531    1.824463    4.782229
      4          1           0      -10.230388    0.492652    7.433807
      5          1           0       -8.478361    0.366365    7.149488
      6          1           0       -9.262721    1.964070    7.177167
      7          7           0       -9.430543   -0.316829    4.720928
      8          6           0       -9.504812   -0.512591    3.289719
      9          6           0       -8.142052   -0.229561    2.669252
     10          8           0       -7.104880   -0.395664    3.297173
     11          6           0       -9.925708   -1.958362    3.017702
     12          6           0      -10.092987   -2.453894    1.595849
     13          8           0      -10.091998   -1.657907    0.623736
     14          8           0      -10.293770   -3.674101    1.386853
     15          1           0       -9.454375   -1.165767    5.265754
     16          1           0      -10.229388    0.182743    2.877895
     17          1           0      -10.944971   -1.924117    3.387876
     18          1           0       -9.400654   -2.585589    3.735062
     19          7           0       -8.065708    0.085795    1.369090
     20          6           0       -6.895308    0.084912    0.513484
     21          6           0       -6.201778   -1.264829    0.459488
     22          8           0       -6.267199   -2.126958    1.333246
     23          6           0       -5.962620    1.254335    0.845511
     24          6           0       -6.719853    2.574477    0.824903
     25          6           0       -7.373088    2.968892   -0.502922
     26          6           0       -8.156873    4.259947   -0.372703
     27          7           0       -8.454146    4.770376   -1.734170
     28          1           0       -8.906607    0.244434    0.839257
     29          1           0       -7.257421    0.157347   -0.508928
     30          1           0       -5.123576    1.232693    0.145699
     31          1           0       -5.408226    1.195105    1.786967
     32          1           0       -5.958519    3.345409    0.933229
     33          1           0       -7.414646    2.818795    1.628191
     34          1           0       -7.984519    2.185119   -0.953979
     35          1           0       -6.532725    3.101689   -1.179350
     36          1           0       -7.539255    4.970207    0.178640
     37          1           0       -9.149153    4.228132    0.073020
     38          1           0       -7.582541    4.814493   -2.237220
     39          1           0       -9.201635    4.218183   -2.124739
     40          1           0       -8.702108    5.747168   -1.696861
     41          7           0       -5.550913   -1.554043   -0.669153
     42          6           0       -5.177432   -2.921718   -1.005720
     43          6           0       -3.942790   -3.492393   -0.325582
     44          8           0       -3.834822   -4.714480   -0.368538
     45          6           0       -5.050611   -3.017825   -2.524858
     46          6           0       -3.923760   -2.187348   -3.138302
     47          8           0       -3.091707   -1.476307   -2.535798
     48          8           0       -3.913604   -2.142909   -4.381693
     49          1           0       -5.622763   -0.829765   -1.360282
     50          1           0       -6.032262   -3.543495   -0.759629
     51          1           0       -5.989137   -2.608008   -2.903435
     52          1           0       -4.987057   -4.000071   -2.977575
     53          7           0       -3.040551   -2.693577    0.249186
     54          6           0       -1.952855   -3.134073    1.095638
     55          6           0       -0.906102   -4.006533    0.435395
     56          8           0       -0.136891   -4.606869    1.192303
     57          1           0       -3.202129   -1.703509    0.330783
     58          1           0       -2.175036   -3.516639    2.095277
     59          1           0       -1.498194   -2.182123    1.368538
     60          7           0       -0.843116   -4.049170   -0.903005
     61          6           0        0.101728   -4.943944   -1.538418
     62          6           0        1.457233   -4.254656   -1.634288
     63          8           0        1.620927   -3.077354   -1.918124
     64          6           0       -0.433026   -5.290799   -2.929328
     65          6           0        0.333254   -6.369113   -3.685274
     66          7           0       -0.249282   -7.564237   -3.807461
     67          8           0        1.447016   -6.206534   -4.163293
     68          1           0       -1.404779   -3.422925   -1.449313
     69          1           0        0.209759   -5.880048   -0.989840
     70          1           0       -0.328949   -4.382189   -3.522114
     71          1           0       -1.482891   -5.549238   -2.899447
     72          1           0       -1.209970   -7.742633   -3.532957
     73          1           0        0.106311   -8.177283   -4.534048
     74          7           0        2.473702   -5.118778   -1.569608
     75          6           0        3.833051   -4.680192   -1.814587
     76          6           0        4.491159   -4.065593   -0.591001
     77          8           0        3.874096   -3.826890    0.441692
     78          1           0        2.250099   -6.077121   -1.342936
     79          1           0        3.918864   -4.036978   -2.680561
     80          1           0        4.334670   -5.642455   -1.953616
     81          7           0        5.798891   -3.788126   -0.632813
     82          6           0        6.609958   -3.121550    0.367161
     83          6           0        6.159117   -1.801015    0.968102
     84          8           0        6.913390   -1.202725    1.738050
     85          6           0        6.757215   -4.187674    1.447205
     86          6           0        7.785349   -3.830780    2.495951
     87          6           0        7.493087   -3.734301    3.868021
     88          6           0        9.080599   -3.500963    2.083459
     89          6           0        8.488327   -3.400540    4.789162
     90          6           0       10.075861   -3.180761    3.008620
     91          6           0        9.768929   -2.977374    4.368225
     92          8           0       10.740306   -2.863082    5.320414
     93          1           0        6.407058   -4.057329   -1.395153
     94          1           0        7.585636   -2.931932   -0.093487
     95          1           0        7.044153   -5.164041    1.062793
     96          1           0        5.825574   -4.401906    1.973844
     97          1           0        6.476225   -3.874930    4.195611
     98          1           0        9.381298   -3.439532    1.044996
     99          1           0        8.250370   -3.333326    5.838285
    100          1           0       10.963816   -2.835629    2.500859
    101          1           0       11.616513   -3.044968    4.975483
    102          7           0        5.044225   -1.317912    0.414813
    103          6           0        4.352672   -0.046183    0.479307
    104          6           0        5.159019    1.039254   -0.217638
    105          8           0        4.609129    1.706815   -1.097344
    106          6           0        3.997268    0.314624    1.922396
    107          6           0        3.181282   -0.677098    2.736494
    108          6           0        3.180031    1.598290    1.803967
    109          6           0        1.917983   -1.228385    2.078271
    110          1           0        4.643222   -1.919477   -0.293576
    111          1           0        3.436970   -0.206186   -0.080058
    112          1           0        4.882068    0.522396    2.518684
    113          1           0        2.906412   -0.126645    3.649537
    114          1           0        3.816999   -1.479828    3.109976
    115          1           0        2.660690    1.841249    2.726060
    116          1           0        3.923949    2.382245    1.707531
    117          1           0        2.505589    1.613402    0.938287
    118          1           0        1.211901   -0.403244    1.979829
    119          1           0        2.188125   -1.632239    1.112443
    120          1           0        1.498968   -1.897415    2.834199
    121          7           0        6.400425    1.291344    0.202673
    122          6           0        7.376104    2.098589   -0.488275
    123          6           0        7.072998    3.591051   -0.552177
    124          8           0        7.161906    4.270250   -1.570451
    125          6           0        8.704014    1.988206    0.251299
    126          8           0        8.532991    1.894167    1.651731
    127          1           0        6.815987    0.764027    0.959141
    128          1           0        7.519074    1.809617   -1.538539
    129          1           0        9.321691    2.799841   -0.149104
    130          1           0        9.125003    1.034300   -0.058108
    131          1           0        9.222650    1.280830    1.917414
    132          7           0        6.432665    4.037852    0.535777
    133          6           0        5.885663    5.355991    0.755999
    134          6           0        4.810057    5.810451   -0.217571
    135          8           0        4.679733    7.004520   -0.492914
    136          6           0        6.938652    6.420385    1.056463
    137          1           0        6.385059    3.387352    1.302317
    138          1           0        5.407858    5.184105    1.721430
    139          1           0        7.532915    6.737943    0.208578
    140          1           0        6.484242    7.355057    1.400700
    141          1           0        7.596348    6.025087    1.833944
    142          7           0        4.101369    4.896726   -0.882528
    143          6           0        3.057601    5.217930   -1.833094
    144          6           0        1.648827    5.037526   -1.289118
    145          8           0        1.408815    4.294417   -0.336289
    146          6           0        3.156768    4.345841   -3.083745
    147          1           0        4.265853    3.905631   -0.743692
    148          1           0        3.151775    6.222204   -2.227511
    149          1           0        2.396595    4.587369   -3.832010
    150          1           0        4.105670    4.479490   -3.583767
    151          1           0        3.017850    3.316079   -2.775051
    152          7           0        0.715525    5.780831   -1.886232
    153          6           0       -0.639801    5.927358   -1.409031
    154          6           0       -1.015426    6.559365   -0.071020
    155          8           0       -2.154147    6.667388    0.374564
    156          6           0       -1.399202    4.633388   -1.689486
    157          6           0       -1.387934    4.172483   -3.144834
    158          6           0       -2.369661    3.029024   -3.388993
    159          8           0       -1.954670    1.896393   -3.082185
    160          8           0       -3.589250    3.279278   -3.433439
    161          1           0        1.070263    6.451278   -2.562369
    162          1           0       -1.011276    6.712614   -2.066890
    163          1           0       -2.436640    4.820145   -1.401834
    164          1           0       -1.041879    3.803943   -1.081094
    165          1           0       -0.397040    3.782581   -3.371122
    166          1           0       -1.625139    5.005370   -3.816945
    167          7           0        0.000769    7.113622    0.598641
    168          6           0       -0.108537    7.597623    1.958308
    169          1           0       -1.140826    7.883582    2.160114
    170          1           0        0.192052    6.810537    2.650210
    171          1           0        0.539492    8.463598    2.089348
    172          1           0        0.929303    6.835000    0.325153
    173         20           0       -1.825902   -0.282947   -4.612870
    174          8           0       -0.634373   -2.192302   -5.985285
    175          1           0        0.266529   -2.478652   -5.787098
    176          1           0       -0.794806   -2.519940   -6.865691
 ---------------------------------------------------------------------

 SCF Done:  E(RB3LYP) =  -5333.29059326     A.U. after   33 cycles
 SCF Done:  E(RB3LYP) =  -5333.31952843     a.u. after    8 cycles

 The electronic state is 1-A.
 Alpha  occ. eigenvalues -- -145.47844 -19.24182 -19.16220 -19.15748 -19.11279
 Alpha  occ. eigenvalues --  -19.11215 -19.11054 -19.10838 -19.10607 -19.09669
 Alpha  occ. eigenvalues --  -19.09504 -19.08749 -19.08057 -19.07936 -19.07415
 Alpha  occ. eigenvalues --  -19.07200 -19.06646 -19.06604 -19.05574 -19.04717
 Alpha  occ. eigenvalues --  -19.04188 -19.03551 -18.97824 -18.97001 -15.53768
 Alpha  occ. eigenvalues --  -14.56470 -14.38108 -14.36984 -14.36361 -14.36197
 Alpha  occ. eigenvalues --  -14.36178 -14.36161 -14.35145 -14.34210 -14.34105
 Alpha  occ. eigenvalues --  -14.33731 -14.33052 -14.32845 -14.30599 -14.30202
 Alpha  occ. eigenvalues --  -12.67395 -12.67318 -12.67282 -10.33096 -10.30441
 Alpha  occ. eigenvalues --  -10.30327 -10.30020 -10.29269 -10.28479 -10.27891
 Alpha  occ. eigenvalues --  -10.27848 -10.27621 -10.27130 -10.26590 -10.26435
 Alpha  occ. eigenvalues --  -10.25787 -10.25619 -10.25453 -10.25344 -10.24854
 Alpha  occ. eigenvalues --  -10.24805 -10.24642 -10.24412 -10.24288 -10.24165
 Alpha  occ. eigenvalues --  -10.24095 -10.23550 -10.23241 -10.23221 -10.22601
 Alpha  occ. eigenvalues --  -10.22491 -10.21850 -10.21605 -10.21059 -10.21013
 Alpha  occ. eigenvalues --  -10.20818 -10.20657 -10.19518 -10.18892 -10.18747
 Alpha  occ. eigenvalues --  -10.18704 -10.18631 -10.18551 -10.18223 -10.18210
 Alpha  occ. eigenvalues --  -10.18076 -10.18073 -10.17979 -10.17456 -10.17152
 Alpha  occ. eigenvalues --  -10.16744 -10.16353 -10.16219 -10.16207 -10.16112
 Alpha  occ. eigenvalues --  -10.15372 -10.12538  -1.90348  -1.18045  -1.17435
 Alpha  occ. eigenvalues --   -1.17196  -1.11964  -1.09835  -1.05517  -1.04821
 Alpha  occ. eigenvalues --   -1.04399  -1.04393  -1.03857  -1.03448  -1.03132
 Alpha  occ. eigenvalues --   -1.03124  -1.02850  -1.02255  -1.01633  -1.00799
 Alpha  occ. eigenvalues --   -1.00504  -1.00257  -0.99814  -0.99107  -0.98116
 Alpha  occ. eigenvalues --   -0.96823  -0.94985  -0.93760  -0.93214  -0.93033
 Alpha  occ. eigenvalues --   -0.92936  -0.91845  -0.91781  -0.91766  -0.91646
 Alpha  occ. eigenvalues --   -0.91248  -0.90351  -0.90091  -0.89778  -0.89741
 Alpha  occ. eigenvalues --   -0.88992  -0.87921  -0.87077  -0.86281  -0.84686
 Alpha  occ. eigenvalues --   -0.81748  -0.81308  -0.80206  -0.79471  -0.79365
 Alpha  occ. eigenvalues --   -0.79042  -0.78814  -0.76635  -0.76324  -0.75689
 Alpha  occ. eigenvalues --   -0.75042  -0.73996  -0.73959  -0.73884  -0.73070
 Alpha  occ. eigenvalues --   -0.72470  -0.72312  -0.72240  -0.71569  -0.70288
 Alpha  occ. eigenvalues --   -0.69918  -0.68709  -0.68534  -0.67945  -0.66832
 Alpha  occ. eigenvalues --   -0.66522  -0.66302  -0.65231  -0.64276  -0.63920
 Alpha  occ. eigenvalues --   -0.62923  -0.62855  -0.62602  -0.62029  -0.61621
 Alpha  occ. eigenvalues --   -0.61559  -0.61219  -0.61103  -0.60299  -0.60098
 Alpha  occ. eigenvalues --   -0.59403  -0.59241  -0.58979  -0.58794  -0.58387
 Alpha  occ. eigenvalues --   -0.58039  -0.57510  -0.57008  -0.56913  -0.56560
 Alpha  occ. eigenvalues --   -0.56332  -0.55887  -0.55150  -0.55033  -0.54898
 Alpha  occ. eigenvalues --   -0.54808  -0.54737  -0.54368  -0.54045  -0.53544
 Alpha  occ. eigenvalues --   -0.53504  -0.53185  -0.52222  -0.52141  -0.51302
 Alpha  occ. eigenvalues --   -0.51241  -0.51063  -0.51031  -0.50645  -0.49792
 Alpha  occ. eigenvalues --   -0.49573  -0.48985  -0.48770  -0.48626  -0.48459
 Alpha  occ. eigenvalues --   -0.48286  -0.48194  -0.47919  -0.47651  -0.47451
 Alpha  occ. eigenvalues --   -0.47117  -0.46774  -0.46631  -0.46300  -0.45903
 Alpha  occ. eigenvalues --   -0.45731  -0.45586  -0.45388  -0.45054  -0.44824
 Alpha  occ. eigenvalues --   -0.44819  -0.44669  -0.44521  -0.44483  -0.44279
 Alpha  occ. eigenvalues --   -0.44130  -0.44011  -0.43696  -0.43571  -0.43305
 Alpha  occ. eigenvalues --   -0.43204  -0.43028  -0.42991  -0.42797  -0.42559
 Alpha  occ. eigenvalues --   -0.42504  -0.42257  -0.42221  -0.42208  -0.42108
 Alpha  occ. eigenvalues --   -0.41925  -0.41731  -0.41546  -0.41538  -0.41426
 Alpha  occ. eigenvalues --   -0.41338  -0.41250  -0.41205  -0.41026  -0.40924
 Alpha  occ. eigenvalues --   -0.40843  -0.40608  -0.40548  -0.40401  -0.40169
 Alpha  occ. eigenvalues --   -0.40089  -0.39884  -0.39841  -0.39569  -0.39280
 Alpha  occ. eigenvalues --   -0.39113  -0.38781  -0.38700  -0.38638  -0.38538
 Alpha  occ. eigenvalues --   -0.38299  -0.38265  -0.38171  -0.38016  -0.37938
 Alpha  occ. eigenvalues --   -0.37815  -0.37680  -0.37452  -0.37200  -0.37087
 Alpha  occ. eigenvalues --   -0.36880  -0.36677  -0.36548  -0.36441  -0.36400
 Alpha  occ. eigenvalues --   -0.36056  -0.36040  -0.35689  -0.35248  -0.35091
 Alpha  occ. eigenvalues --   -0.35071  -0.35012  -0.34880  -0.34770  -0.34627
 Alpha  occ. eigenvalues --   -0.34445  -0.34022  -0.33985  -0.33971  -0.33636
 Alpha  occ. eigenvalues --   -0.33223  -0.33024  -0.32946  -0.32895  -0.32607
 Alpha  occ. eigenvalues --   -0.32574  -0.32439  -0.31836  -0.31573  -0.30744
 Alpha  occ. eigenvalues --   -0.30715  -0.30339  -0.29371  -0.29302  -0.28459
 Alpha  occ. eigenvalues --   -0.28280  -0.28147  -0.27852  -0.27781  -0.27346
 Alpha  occ. eigenvalues --   -0.26911  -0.26842  -0.26793  -0.26771  -0.26593
 Alpha  occ. eigenvalues --   -0.26237  -0.25667  -0.25413  -0.25331  -0.25161
 Alpha  occ. eigenvalues --   -0.25026  -0.24755  -0.24724  -0.24442  -0.24179
 Alpha  occ. eigenvalues --   -0.23903  -0.23865  -0.23605  -0.23334  -0.22990
 Alpha  occ. eigenvalues --   -0.22867  -0.22557  -0.22198  -0.21717  -0.21631
 Alpha  occ. eigenvalues --   -0.21614  -0.20654  -0.20203  -0.20031  -0.18637
 Alpha  occ. eigenvalues --   -0.15411  -0.14345  -0.11731
 Alpha virt. eigenvalues --   -0.10802  -0.08826  -0.03255  -0.02980  -0.01848
 Alpha virt. eigenvalues --   -0.01591  -0.01179  -0.00816  -0.00396  -0.00209
 Alpha virt. eigenvalues --   -0.00143   0.00631   0.00900   0.01190   0.01293

 Mulliken charges:
               1
     1  C    0.058444
     2  C    0.007777
     3  O   -0.315175
     4  H    0.024795
     5  H    0.024680
     6  H    0.022154
     7  N   -0.101828
     8  C    0.117218
     9  C    0.089707
    10  O   -0.275762
    11  C    0.034312
    12  C    0.084240
    13  O   -0.391937
    14  O   -0.340665
    15  H    0.106014
    16  H   -0.024299
    17  H    0.000995
    18  H   -0.001680
    19  N   -0.104057
    20  C    0.068513
    21  C    0.072284
    22  O   -0.232443
    23  C    0.123350
    24  C    0.026980
    25  C   -0.082553
    26  C    0.025138
    27  N    0.075109
    28  H    0.091693
    29  H   -0.018647
    30  H   -0.005019
    31  H    0.027756
    32  H    0.005772
    33  H    0.034368
    34  H    0.026594
    35  H    0.042429
    36  H    0.076744
    37  H    0.075904
    38  H    0.195143
    39  H    0.204731
    40  H    0.180364
    41  N   -0.145356
    42  C    0.189971
    43  C    0.076402
    44  O   -0.287220
    45  C    0.035674
    46  C    0.072498
    47  O   -0.420885
    48  O   -0.427805
    49  H    0.102258
    50  H    0.040003
    51  H    0.023131
    52  H    0.030967
    53  N   -0.125074
    54  C    0.208743
    55  C    0.056455
    56  O   -0.291176
    57  H    0.127828
    58  H    0.036629
    59  H    0.013269
    60  N   -0.111775
    61  C    0.072997
    62  C    0.114361
    63  O   -0.298782
    64  C    0.134538
    65  C   -0.047539
    66  N   -0.048942
    67  O   -0.267779
    68  H    0.126301
    69  H    0.009039
    70  H   -0.020900
    71  H    0.023340
    72  H    0.125896
    73  H    0.127189
    74  N   -0.119636
    75  C    0.256820
    76  C    0.013867
    77  O   -0.248475
    78  H    0.127512
    79  H    0.030893
    80  H    0.009982
    81  N   -0.145783
    82  C    0.052544
    83  C    0.112184
    84  O   -0.290312
    85  C    0.156026
    86  C   -0.017481
    87  C    0.021548
    88  C   -0.029382
    89  C   -0.021422
    90  C   -0.064144
    91  C    0.177935
    92  O   -0.213295
    93  H    0.112015
    94  H    0.021801
    95  H   -0.004077
    96  H    0.019089
    97  H   -0.027766
    98  H   -0.052096
    99  H   -0.017771
   100  H   -0.036959
   101  H    0.173548
   102  N   -0.095883
   103  C    0.162950
   104  C    0.061362
   105  O   -0.276198
   106  C   -0.127512
   107  C    0.022390
   108  C    0.090371
   109  C    0.018079
   110  H    0.130391
   111  H    0.007566
   112  H   -0.004676
   113  H   -0.013456
   114  H   -0.003753
   115  H   -0.002514
   116  H   -0.028069
   117  H    0.041631
   118  H   -0.000951
   119  H    0.035526
   120  H    0.025222
   121  N   -0.117150
   122  C    0.059520
   123  C    0.039122
   124  O   -0.251829
   125  C    0.210648
   126  O   -0.294254
   127  H    0.140037
   128  H    0.014210
   129  H    0.022762
   130  H   -0.004082
   131  H    0.184572
   132  N   -0.144176
   133  C    0.084031
   134  C    0.070847
   135  O   -0.288578
   136  C    0.075734
   137  H    0.124764
   138  H    0.008234
   139  H    0.024323
   140  H    0.018955
   141  H   -0.006743
   142  N   -0.106002
   143  C    0.083567
   144  C    0.048036
   145  O   -0.266952
   146  C    0.050648
   147  H    0.148548
   148  H   -0.003006
   149  H   -0.009440
   150  H    0.032337
   151  H    0.024149
   152  N   -0.133869
   153  C    0.109575
   154  C    0.079084
   155  O   -0.278765
   156  C    0.030108
   157  C    0.106550
   158  C    0.043941
   159  O   -0.447533
   160  O   -0.365705
   161  H    0.123203
   162  H   -0.001864
   163  H   -0.000972
   164  H    0.028455
   165  H   -0.041466
   166  H   -0.043699
   167  N   -0.155562
   168  C    0.120062
   169  H    0.038515
   170  H    0.026559
   171  H    0.017513
   172  H    0.118409
   173  Ca   1.243230
   174  O   -0.310152
   175  H    0.203969
   176  H    0.194549
 Sum of Mulliken charges =  -0.00000

 Dipole moment (field-independent basis, Debye):
    X=             12.1460    Y=             12.0006    Z=            -23.9913  Tot=             29.4469
 Quadrupole moment (field-independent basis, Debye-Ang):
   XX=           -588.5298   YY=           -524.5324   ZZ=           -474.4992
   XY=           -252.5837   XZ=             93.8192   YZ=             32.4244

 ESP charges:
               1
     1  C   -0.429214
     2  C    0.798943
     3  O   -0.623600
     4  H    0.103547
     5  H    0.108149
     6  H    0.117736
     7  N   -0.804814
     8  C    0.564839
     9  C    0.588779
    10  O   -0.558447
    11  C   -0.432831
    12  C    0.771550
    13  O   -0.704277
    14  O   -0.640856
    15  H    0.340896
    16  H   -0.056795
    17  H    0.080434
    18  H    0.102178
    19  N   -0.721539
    20  C    0.527343
    21  C    0.498200
    22  O   -0.470256
    23  C   -0.559011
    24  C    0.336171
    25  C   -0.367380
    26  C    0.328892
    27  N   -0.600031
    28  H    0.280321
    29  H    0.002328
    30  H    0.126550
    31  H    0.170588
    32  H   -0.008309
    33  H   -0.042522
    34  H    0.074150
    35  H    0.128222
    36  H    0.021753
    37  H    0.039880
    38  H    0.379045
    39  H    0.402460
    40  H    0.363671
    41  N   -0.499021
    42  C    0.028462
    43  C    0.466947
    44  O   -0.527242
    45  C   -0.311441
    46  C    0.774285
    47  O   -0.702164
    48  O   -0.737073
    49  H    0.230948
    50  H    0.148718
    51  H    0.120516
    52  H    0.111781
    53  N   -0.269430
    54  C   -0.069065
    55  C    0.633505
    56  O   -0.584814
    57  H    0.254619
    58  H    0.102129
    59  H    0.062518
    60  N   -0.720698
    61  C    0.699327
    62  C    0.218901
    63  O   -0.449084
    64  C   -0.408292
    65  C    0.627103
    66  N   -0.781146
    67  O   -0.552254
    68  H    0.298057
    69  H   -0.048393
    70  H    0.113513
    71  H    0.120101
    72  H    0.361715
    73  H    0.365065
    74  N   -0.277848
    75  C   -0.259649
    76  C    0.734165
    77  O   -0.522011
    78  H    0.277690
    79  H    0.132747
    80  H    0.132147
    81  N   -0.815759
    82  C    0.315093
    83  C    0.496765
    84  O   -0.505160
    85  C    0.027577
    86  C   -0.016937
    87  C   -0.181648
    88  C   -0.160350
    89  C   -0.178709
    90  C   -0.287149
    91  C    0.353739
    92  O   -0.557180
    93  H    0.349844
    94  H    0.020819
    95  H    0.020377
    96  H    0.067008
    97  H    0.137605
    98  H    0.119480
    99  H    0.140060
   100  H    0.124077
   101  H    0.408624
   102  N   -0.684461
   103  C    0.129950
   104  C    0.472900
   105  O   -0.540050
   106  C    0.402985
   107  C    0.136222
   108  C   -0.416747
   109  C   -0.271962
   110  H    0.381285
   111  H    0.044790
   112  H   -0.087775
   113  H   -0.047747
   114  H   -0.031111
   115  H    0.112076
   116  H    0.028917
   117  H    0.086892
   118  H    0.052763
   119  H    0.084611
   120  H    0.092077
   121  N   -0.224183
   122  C   -0.054647
   123  C    0.443710
   124  O   -0.512092
   125  C    0.041344
   126  O   -0.586987
   127  H    0.211241
   128  H    0.086848
   129  H    0.069900
   130  H    0.040487
   131  H    0.429576
   132  N   -0.165190
   133  C    0.079808
   134  C    0.539353
   135  O   -0.542670
   136  C   -0.215540
   137  H    0.221506
   138  H    0.043651
   139  H    0.089347
   140  H    0.065428
   141  H    0.037816
   142  N   -0.595998
   143  C    0.657537
   144  C    0.230865
   145  O   -0.414624
   146  C   -0.104550
   147  H    0.207587
   148  H   -0.108269
   149  H   -0.026057
   150  H    0.038987
   151  H    0.029006
   152  N   -0.231327
   153  C   -0.806369
   154  C    0.627376
   155  O   -0.527747
   156  C    0.681170
   157  C   -0.123198
   158  C    0.492694
   159  O   -0.680495
   160  O   -0.642147
   161  H    0.274819
   162  H    0.246630
   163  H   -0.098123
   164  H   -0.039079
   165  H   -0.039908
   166  H   -0.011193
   167  N   -0.286662
   168  C   -0.081675
   169  H    0.077697
   170  H    0.074358
   171  H    0.052510
   172  H    0.239949
   173  Ca   1.413518
   174  O   -0.853698
   175  H    0.427187
   176  H    0.444661
 Sum of ESP charges =  -0.00000

 Normal termination of Gaussian 16 at Thu Sep 19 15:28:50 2019.
