 Gaussian 16, Revision A.03,
 Gaussian 16:  ES64L-G16RevA.03 25-Dec-2016

 ----------------------------------------------------------------------
 #b3lyp/svp scf=(tight,noincore) Test #IOP(5/87=12) Density=Current Pop
 =(MK,readradii) iop(6/33=2) iop(6/42=6)
 ----------------------------------------------------------------------

 -----------------
 Ng-293_loop3_16.0
 -----------------
 Symbolic Z-matrix:
 Charge =  0 Multiplicity = 1

                         Standard orientation:
 ---------------------------------------------------------------------
 Center     Atomic      Atomic             Coordinates (Angstroms)
 Number     Number       Type             X           Y           Z
 ---------------------------------------------------------------------
      1          6           0        8.743477    2.616488    5.015236
      2          6           0        8.880017    3.017784    3.548362
      3          8           0        9.981874    3.127939    3.019518
      4          1           0        7.925459    3.175279    5.469064
      5          1           0        8.534245    1.548659    5.082683
      6          1           0        9.671991    2.839463    5.541783
      7          7           0        7.726562    3.174844    2.895160
      8          6           0        7.717260    3.297780    1.453703
      9          6           0        7.933090    1.945003    0.793390
     10          8           0        7.199249    1.017803    1.142786
     11          6           0        6.426831    3.989958    1.012133
     12          6           0        5.134933    3.383081    1.533764
     13          8           0        4.041339    3.822904    1.153623
     14          8           0        5.193021    2.440604    2.353071
     15          1           0        6.846482    3.033222    3.380138
     16          1           0        8.511459    3.950498    1.100280
     17          1           0        6.477261    4.094906   -0.071123
     18          1           0        6.407400    5.006959    1.403963
     19          7           0        8.806987    1.780549   -0.203133
     20          6           0        9.273408    0.538877   -0.781841
     21          6           0        8.301522   -0.417142   -1.464823
     22          8           0        8.767584   -1.355459   -2.114782
     23          6           0       10.335091   -0.161540    0.070711
     24          6           0       11.466876    0.739615    0.582455
     25          6           0       12.505600   -0.091599    1.314737
     26          6           0       13.129503    0.823278    2.367468
     27          7           0       14.452773    0.453098    2.908229
     28          1           0        9.441123    2.536836   -0.380053
     29          1           0        9.935708    0.829721   -1.590401
     30          1           0       10.738918   -0.982831   -0.524188
     31          1           0        9.900644   -0.502121    1.004607
     32          1           0       11.010271    1.316338    1.386882
     33          1           0       11.904152    1.275457   -0.258355
     34          1           0       13.195799   -0.475989    0.561697
     35          1           0       12.074644   -0.966968    1.801878
     36          1           0       12.375494    0.988741    3.130484
     37          1           0       13.219606    1.792021    1.879598
     38          1           0       14.747564    1.174278    3.539338
     39          1           0       14.480980   -0.439463    3.378801
     40          1           0       15.080464    0.321222    2.134463
     41          7           0        6.980439   -0.269765   -1.387883
     42          6           0        5.925180   -0.976658   -2.098891
     43          6           0        4.753877   -0.040700   -2.322791
     44          8           0        4.787009    1.068569   -1.795227
     45          6           0        5.493715   -2.112856   -1.174179
     46          6           0        4.777653   -3.224725   -1.926909
     47          8           0        4.558832   -3.174226   -3.160630
     48          8           0        4.428925   -4.295308   -1.378692
     49          1           0        6.721611    0.561784   -0.883370
     50          1           0        6.318239   -1.314322   -3.065528
     51          1           0        4.894237   -1.749023   -0.342101
     52          1           0        6.384406   -2.588499   -0.772889
     53          7           0        3.766265   -0.381623   -3.150374
     54          6           0        2.546594    0.305757   -3.545357
     55          6           0        1.329508    0.078693   -2.660346
     56          8           0        1.106826   -1.033505   -2.179068
     57          1           0        3.804487   -1.298045   -3.560387
     58          1           0        2.256940    0.078961   -4.571254
     59          1           0        2.767755    1.368273   -3.643061
     60          7           0        0.525124    1.092433   -2.338792
     61          6           0       -0.567282    1.175326   -1.392284
     62          6           0       -1.752421    2.022749   -1.823235
     63          8           0       -2.915176    1.616378   -1.708936
     64          6           0       -0.008000    1.664847   -0.053377
     65          6           0        0.993331    0.684270    0.540007
     66          7           0        2.268380    1.040822    0.662157
     67          8           0        0.653018   -0.454916    0.849429
     68          1           0        0.723925    1.830086   -3.002679
     69          1           0       -1.069706    0.213305   -1.359327
     70          1           0       -0.843985    1.665436    0.636861
     71          1           0        0.477674    2.635038   -0.124448
     72          1           0        2.587971    1.903314    0.252682
     73          1           0        3.003912    0.499205    1.099127
     74          7           0       -1.463967    3.199947   -2.371960
     75          6           0       -2.458351    4.224414   -2.649392
     76          6           0       -3.197514    4.534877   -1.365940
     77          8           0       -2.589503    4.577910   -0.301576
     78          1           0       -0.515363    3.463255   -2.574986
     79          1           0       -3.042441    3.775926   -3.456979
     80          1           0       -2.026224    5.126958   -3.083997
     81          7           0       -4.536026    4.517131   -1.395446
     82          6           0       -5.509249    4.594850   -0.321390
     83          6           0       -5.565246    3.357454    0.563548
     84          8           0       -6.555898    3.145952    1.273672
     85          6           0       -5.388282    5.861355    0.539734
     86          6           0       -5.494990    7.182954   -0.179562
     87          6           0       -4.372715    7.767718   -0.767821
     88          6           0       -6.774194    7.738358   -0.343162
     89          6           0       -4.615815    8.899322   -1.557108
     90          6           0       -6.975461    8.933471   -1.034897
     91          6           0       -5.858715    9.552561   -1.636981
     92          8           0       -5.951884   10.730066   -2.314403
     93          1           0       -4.858475    4.561055   -2.343654
     94          1           0       -6.462549    4.692216   -0.833970
     95          1           0       -4.493076    5.830146    1.160243
     96          1           0       -6.218492    5.754559    1.235900
     97          1           0       -3.373276    7.386088   -0.625057
     98          1           0       -7.601104    7.188492    0.083415
     99          1           0       -3.803531    9.398240   -2.082632
    100          1           0       -7.958531    9.366269   -1.042701
    101          1           0       -6.851640   11.038593   -2.461548
    102          7           0       -4.590939    2.454943    0.471896
    103          6           0       -4.531568    1.185247    1.165399
    104          6           0       -5.498007    0.219255    0.498876
    105          8           0       -5.144015   -0.862220    0.030152
    106          6           0       -4.543348    1.213069    2.693040
    107          6           0       -3.457535    2.082170    3.309947
    108          6           0       -4.318874   -0.191920    3.237759
    109          6           0       -3.761375    2.880641    4.574907
    110          1           0       -3.945441    2.572367   -0.290366
    111          1           0       -3.554846    0.762691    0.926314
    112          1           0       -5.485806    1.624710    3.072151
    113          1           0       -3.128576    2.789765    2.548307
    114          1           0       -2.573381    1.440873    3.382122
    115          1           0       -4.597538   -0.187794    4.292524
    116          1           0       -4.958600   -0.893710    2.720418
    117          1           0       -3.278776   -0.517801    3.169955
    118          1           0       -2.952628    3.569829    4.834230
    119          1           0       -4.672057    3.415056    4.313068
    120          1           0       -3.982237    2.155438    5.350858
    121          7           0       -6.793681    0.484413    0.626627
    122          6           0       -7.842973   -0.297484    0.001868
    123          6           0       -8.272613   -1.581915    0.702474
    124          8           0       -8.923504   -2.415301    0.072626
    125          6           0       -9.032115    0.595116   -0.315315
    126          8           0       -8.696327    1.863924   -0.836344
    127          1           0       -6.995776    1.314348    1.147842
    128          1           0       -7.476714   -0.625959   -0.974635
    129          1           0       -9.493943    0.864737    0.632851
    130          1           0       -9.798109    0.108501   -0.927819
    131          1           0       -7.916607    1.761844   -1.387177
    132          7           0       -7.808423   -1.952509    1.904052
    133          6           0       -7.779855   -3.291938    2.443971
    134          6           0       -7.049283   -4.303166    1.565061
    135          8           0       -7.228010   -5.515656    1.569989
    136          6           0       -9.176994   -3.728958    2.872474
    137          1           0       -7.310839   -1.252243    2.431060
    138          1           0       -7.122440   -3.235071    3.305929
    139          1           0       -9.131492   -4.737732    3.279050
    140          1           0       -9.550750   -3.049300    3.638942
    141          1           0       -9.818586   -3.750713    1.990099
    142          7           0       -6.072254   -3.779702    0.817599
    143          6           0       -5.320851   -4.581601   -0.135791
    144          6           0       -4.049488   -5.114773    0.505663
    145          8           0       -3.587959   -4.480717    1.454116
    146          6           0       -5.031062   -3.798231   -1.409704
    147          1           0       -6.066197   -2.773956    0.744538
    148          1           0       -5.987945   -5.410176   -0.392793
    149          1           0       -4.483736   -4.395511   -2.135093
    150          1           0       -5.974288   -3.477283   -1.863044
    151          1           0       -4.327882   -2.985288   -1.234881
    152          7           0       -3.501008   -6.215923   -0.002901
    153          6           0       -2.274992   -6.894130    0.383389
    154          6           0       -2.127681   -7.538729    1.754699
    155          8           0       -1.195001   -7.301412    2.513376
    156          6           0       -0.977701   -6.191786   -0.033566
    157          6           0       -1.206146   -5.587474   -1.414587
    158          6           0        0.141699   -5.355752   -2.072705
    159          8           0        0.966049   -4.477308   -1.740316
    160          8           0        0.508617   -6.022564   -3.072171
    161          1           0       -4.054894   -6.648809   -0.725964
    162          1           0       -2.356336   -7.726626   -0.312911
    163          1           0       -0.234489   -6.993959   -0.072990
    164          1           0       -0.649575   -5.438240    0.679036
    165          1           0       -1.640402   -4.588810   -1.321895
    166          1           0       -1.807255   -6.198750   -2.084295
    167          7           0       -3.192054   -8.222031    2.154710
    168          6           0       -3.388158   -8.673460    3.513700
    169          1           0       -4.215355   -8.124009    3.962476
    170          1           0       -3.617333   -9.739002    3.513789
    171          1           0       -2.479852   -8.496655    4.090656
    172          1           0       -3.859082   -8.318556    1.393423
    173         20           0        3.017941   -5.383112   -3.211425
    174          8           0        1.959993   -3.343767   -4.408304
    175          1           0        1.609871   -3.085200   -5.253737
    176          1           0        1.549088   -2.743017   -3.786728
 ---------------------------------------------------------------------

 SCF Done:  E(RB3LYP) =  -5333.38363754     A.U. after   28 cycles

 The electronic state is 1-A.
 Alpha  occ. eigenvalues -- -145.42233 -19.16032 -19.14665 -19.11900 -19.10889
 Alpha  occ. eigenvalues --  -19.10049 -19.08915 -19.07938 -19.07602 -19.07538
 Alpha  occ. eigenvalues --  -19.07246 -19.06593 -19.06296 -19.05941 -19.05613
 Alpha  occ. eigenvalues --  -19.05565 -19.05517 -19.05210 -19.04742 -19.03175
 Alpha  occ. eigenvalues --  -19.01710 -19.01441 -18.96393 -18.96119 -15.48179
 Alpha  occ. eigenvalues --  -14.57906 -14.37016 -14.36345 -14.34682 -14.34470
 Alpha  occ. eigenvalues --  -14.33895 -14.33622 -14.33221 -14.33051 -14.32746
 Alpha  occ. eigenvalues --  -14.32062 -14.31228 -14.31043 -14.30175 -14.27270
 Alpha  occ. eigenvalues --  -12.61768 -12.61764 -12.61670 -10.33476 -10.29254
 Alpha  occ. eigenvalues --  -10.29152 -10.27565 -10.26752 -10.26670 -10.26417
 Alpha  occ. eigenvalues --  -10.26289 -10.25906 -10.25723 -10.25661 -10.25166
 Alpha  occ. eigenvalues --  -10.24896 -10.24855 -10.24479 -10.24180 -10.24151
 Alpha  occ. eigenvalues --  -10.23929 -10.23924 -10.23401 -10.22809 -10.22568
 Alpha  occ. eigenvalues --  -10.22387 -10.22178 -10.22160 -10.21894 -10.21503
 Alpha  occ. eigenvalues --  -10.21035 -10.20927 -10.20637 -10.20367 -10.19923
 Alpha  occ. eigenvalues --  -10.19354 -10.19272 -10.19211 -10.18663 -10.18654
 Alpha  occ. eigenvalues --  -10.18498 -10.18301 -10.18157 -10.17935 -10.17291
 Alpha  occ. eigenvalues --  -10.16681 -10.16416 -10.16236 -10.15896 -10.15081
 Alpha  occ. eigenvalues --  -10.15024 -10.14852 -10.14711 -10.14501 -10.14464
 Alpha  occ. eigenvalues --  -10.14100 -10.12805  -1.84975  -1.13162  -1.12389
 Alpha  occ. eigenvalues --   -1.12279  -1.11751  -1.04472  -1.04393  -1.02865
 Alpha  occ. eigenvalues --   -1.02237  -1.01454  -1.01062  -1.00810  -1.00684
 Alpha  occ. eigenvalues --   -1.00666  -1.00581  -1.00099  -1.00045  -0.99603
 Alpha  occ. eigenvalues --   -0.99192  -0.98963  -0.98737  -0.98275  -0.97788
 Alpha  occ. eigenvalues --   -0.94681  -0.93600  -0.93103  -0.91738  -0.90929
 Alpha  occ. eigenvalues --   -0.90872  -0.90823  -0.90541  -0.89887  -0.89736
 Alpha  occ. eigenvalues --   -0.89495  -0.88806  -0.88286  -0.88209  -0.88095
 Alpha  occ. eigenvalues --   -0.88019  -0.86922  -0.85934  -0.84450  -0.82005
 Alpha  occ. eigenvalues --   -0.81127  -0.80634  -0.79851  -0.78800  -0.77712
 Alpha  occ. eigenvalues --   -0.76614  -0.76479  -0.76111  -0.75296  -0.74452
 Alpha  occ. eigenvalues --   -0.74174  -0.74076  -0.73817  -0.72883  -0.72550
 Alpha  occ. eigenvalues --   -0.72295  -0.71432  -0.71226  -0.71080  -0.70421
 Alpha  occ. eigenvalues --   -0.69523  -0.68154  -0.67678  -0.66348  -0.66134
 Alpha  occ. eigenvalues --   -0.65188  -0.64276  -0.64177  -0.63408  -0.63164
 Alpha  occ. eigenvalues --   -0.61881  -0.61676  -0.61345  -0.61230  -0.60669
 Alpha  occ. eigenvalues --   -0.60111  -0.59618  -0.59196  -0.58766  -0.58620
 Alpha  occ. eigenvalues --   -0.57386  -0.57205  -0.56767  -0.56522  -0.56396
 Alpha  occ. eigenvalues --   -0.55502  -0.55469  -0.55175  -0.54778  -0.54608
 Alpha  occ. eigenvalues --   -0.54373  -0.53993  -0.53958  -0.53503  -0.53459
 Alpha  occ. eigenvalues --   -0.53423  -0.53191  -0.52767  -0.52709  -0.52281
 Alpha  occ. eigenvalues --   -0.52074  -0.52023  -0.51421  -0.50438  -0.50060
 Alpha  occ. eigenvalues --   -0.49699  -0.49138  -0.49004  -0.48752  -0.48459
 Alpha  occ. eigenvalues --   -0.48273  -0.48048  -0.47408  -0.47181  -0.46886
 Alpha  occ. eigenvalues --   -0.46588  -0.46458  -0.46296  -0.46035  -0.45614
 Alpha  occ. eigenvalues --   -0.45529  -0.45464  -0.45377  -0.44796  -0.44720
 Alpha  occ. eigenvalues --   -0.44617  -0.44487  -0.44423  -0.44188  -0.44157
 Alpha  occ. eigenvalues --   -0.43876  -0.43685  -0.43360  -0.43124  -0.42910
 Alpha  occ. eigenvalues --   -0.42829  -0.42743  -0.42660  -0.42345  -0.42167
 Alpha  occ. eigenvalues --   -0.41885  -0.41827  -0.41737  -0.41588  -0.41170
 Alpha  occ. eigenvalues --   -0.40944  -0.40806  -0.40705  -0.40626  -0.40380
 Alpha  occ. eigenvalues --   -0.40110  -0.39986  -0.39800  -0.39673  -0.39555
 Alpha  occ. eigenvalues --   -0.39437  -0.39420  -0.39206  -0.39063  -0.39024
 Alpha  occ. eigenvalues --   -0.38726  -0.38612  -0.38472  -0.38366  -0.38300
 Alpha  occ. eigenvalues --   -0.38247  -0.37840  -0.37698  -0.37655  -0.37621
 Alpha  occ. eigenvalues --   -0.37351  -0.37126  -0.37079  -0.37061  -0.37016
 Alpha  occ. eigenvalues --   -0.36877  -0.36610  -0.36485  -0.36363  -0.36341
 Alpha  occ. eigenvalues --   -0.36007  -0.35965  -0.35796  -0.35442  -0.35214
 Alpha  occ. eigenvalues --   -0.35152  -0.35059  -0.34862  -0.34791  -0.34767
 Alpha  occ. eigenvalues --   -0.34666  -0.34515  -0.34397  -0.34266  -0.34102
 Alpha  occ. eigenvalues --   -0.33822  -0.33589  -0.33504  -0.33428  -0.33381
 Alpha  occ. eigenvalues --   -0.32922  -0.32812  -0.32418  -0.32355  -0.32255
 Alpha  occ. eigenvalues --   -0.32150  -0.31964  -0.31884  -0.31802  -0.31418
 Alpha  occ. eigenvalues --   -0.31298  -0.31156  -0.30534  -0.30177  -0.30168
 Alpha  occ. eigenvalues --   -0.28761  -0.28250  -0.28106  -0.27486  -0.27226
 Alpha  occ. eigenvalues --   -0.27141  -0.27077  -0.26119  -0.25918  -0.25802
 Alpha  occ. eigenvalues --   -0.25653  -0.25338  -0.24998  -0.24947  -0.24784
 Alpha  occ. eigenvalues --   -0.24383  -0.24092  -0.23899  -0.23613  -0.23390
 Alpha  occ. eigenvalues --   -0.23317  -0.22740  -0.22585  -0.22577  -0.22437
 Alpha  occ. eigenvalues --   -0.22416  -0.22080  -0.21944  -0.21858  -0.21816
 Alpha  occ. eigenvalues --   -0.21753  -0.21219  -0.20917  -0.20762  -0.20485
 Alpha  occ. eigenvalues --   -0.20190  -0.19984  -0.19089  -0.17704  -0.16964
 Alpha  occ. eigenvalues --   -0.14360  -0.13952  -0.11310
 Alpha virt. eigenvalues --   -0.10276  -0.07142  -0.03937  -0.03514  -0.01197
 Alpha virt. eigenvalues --   -0.00574   0.00465   0.00543   0.00947   0.01903
 Alpha virt. eigenvalues --    0.02089   0.02132   0.02243   0.02850   0.03312

 Mulliken charges:
               1
     1  C    0.050755
     2  C    0.021722
     3  O   -0.342322
     4  H    0.029271
     5  H    0.041505
     6  H   -0.009007
     7  N   -0.095767
     8  C    0.164966
     9  C    0.043669
    10  O   -0.261565
    11  C    0.057427
    12  C    0.059556
    13  O   -0.371413
    14  O   -0.375546
    15  H    0.123458
    16  H   -0.051992
    17  H   -0.014197
    18  H   -0.003657
    19  N   -0.100358
    20  C    0.126229
    21  C    0.054797
    22  O   -0.321230
    23  C    0.013924
    24  C   -0.036297
    25  C   -0.001598
    26  C   -0.028494
    27  N    0.118562
    28  H    0.107996
    29  H   -0.009697
    30  H    0.014508
    31  H    0.009723
    32  H    0.048863
    33  H    0.002943
    34  H    0.010419
    35  H    0.028221
    36  H    0.097676
    37  H    0.075225
    38  H    0.177802
    39  H    0.167887
    40  H    0.163500
    41  N   -0.086431
    42  C    0.082335
    43  C    0.053487
    44  O   -0.272619
    45  C    0.126487
    46  C    0.149978
    47  O   -0.455352
    48  O   -0.447536
    49  H    0.140588
    50  H    0.020989
    51  H    0.053898
    52  H    0.028399
    53  N   -0.095745
    54  C    0.197714
    55  C    0.023911
    56  O   -0.249895
    57  H    0.112462
    58  H    0.006697
    59  H   -0.004663
    60  N   -0.134896
    61  C    0.127108
    62  C    0.066736
    63  O   -0.290521
    64  C    0.150616
    65  C   -0.030187
    66  N   -0.023324
    67  O   -0.257257
    68  H    0.092350
    69  H    0.047380
    70  H    0.017734
    71  H   -0.000915
    72  H    0.118251
    73  H    0.139684
    74  N   -0.126103
    75  C    0.199939
    76  C    0.021476
    77  O   -0.272861
    78  H    0.118021
    79  H    0.014220
    80  H    0.036857
    81  N   -0.133052
    82  C    0.150252
    83  C    0.097632
    84  O   -0.321040
    85  C    0.113872
    86  C   -0.040193
    87  C    0.000256
    88  C   -0.000322
    89  C   -0.029420
    90  C   -0.047614
    91  C    0.177307
    92  O   -0.201252
    93  H    0.114861
    94  H    0.000384
    95  H    0.017747
    96  H    0.006110
    97  H   -0.009327
    98  H   -0.022928
    99  H   -0.024584
   100  H   -0.045277
   101  H    0.177972
   102  N   -0.111625
   103  C    0.161885
   104  C    0.022795
   105  O   -0.261997
   106  C   -0.095440
   107  C   -0.015077
   108  C    0.074656
   109  C    0.056965
   110  H    0.151503
   111  H    0.012836
   112  H   -0.015400
   113  H   -0.006465
   114  H   -0.000912
   115  H   -0.004760
   116  H   -0.001819
   117  H    0.044427
   118  H    0.024778
   119  H    0.008448
   120  H   -0.000149
   121  N   -0.127643
   122  C    0.074004
   123  C    0.054853
   124  O   -0.281742
   125  C    0.250107
   126  O   -0.304288
   127  H    0.136830
   128  H    0.025044
   129  H   -0.015847
   130  H    0.018967
   131  H    0.156527
   132  N   -0.140012
   133  C    0.068380
   134  C    0.058906
   135  O   -0.285484
   136  C    0.083259
   137  H    0.114717
   138  H    0.023979
   139  H    0.016661
   140  H   -0.009104
   141  H    0.035176
   142  N   -0.125409
   143  C    0.067029
   144  C    0.068138
   145  O   -0.260298
   146  C    0.061094
   147  H    0.135482
   148  H   -0.006655
   149  H   -0.017520
   150  H    0.026174
   151  H    0.043991
   152  N   -0.128189
   153  C    0.075123
   154  C    0.060392
   155  O   -0.259300
   156  C    0.039124
   157  C    0.148413
   158  C    0.046169
   159  O   -0.394077
   160  O   -0.484311
   161  H    0.114468
   162  H   -0.023069
   163  H   -0.005619
   164  H    0.062552
   165  H    0.029084
   166  H   -0.037422
   167  N   -0.133001
   168  C    0.134813
   169  H    0.031529
   170  H    0.006720
   171  H    0.048738
   172  H    0.100549
   173  Ca   1.365811
   174  O   -0.308972
   175  H    0.162018
   176  H    0.190631
 Sum of Mulliken charges =  -0.00000

 Dipole moment (field-independent basis, Debye):
    X=             39.2792    Y=              1.3460    Z=             -9.2143  Tot=             40.3680
 Quadrupole moment (field-independent basis, Debye-Ang):
   XX=             57.6460   YY=           -526.5481   ZZ=           -473.6853
   XY=            -77.1287   XZ=            119.7262   YZ=              8.8998

 ESP charges:
               1
     1  C   -0.456027
     2  C    0.848840
     3  O   -0.701773
     4  H    0.116880
     5  H    0.128420
     6  H    0.088110
     7  N   -0.732080
     8  C    0.390003
     9  C    0.556623
    10  O   -0.485691
    11  C   -0.348367
    12  C    0.802774
    13  O   -0.719238
    14  O   -0.716566
    15  H    0.370835
    16  H   -0.033448
    17  H    0.047984
    18  H    0.081744
    19  N   -0.585570
    20  C    0.026963
    21  C    0.489400
    22  O   -0.563243
    23  C    0.037900
    24  C    0.127204
    25  C   -0.060888
    26  C    0.174517
    27  N   -0.472353
    28  H    0.280011
    29  H    0.090256
    30  H   -0.008316
    31  H    0.028965
    32  H   -0.019891
    33  H   -0.017090
    34  H    0.016484
    35  H    0.014721
    36  H    0.080346
    37  H    0.027964
    38  H    0.347636
    39  H    0.329724
    40  H    0.323875
    41  N   -0.471404
    42  C    0.230588
    43  C    0.546460
    44  O   -0.527596
    45  C   -0.216592
    46  C    0.824568
    47  O   -0.819795
    48  O   -0.802700
    49  H    0.296271
    50  H    0.042157
    51  H    0.105405
    52  H    0.095426
    53  N   -0.568989
    54  C    0.220870
    55  C    0.449419
    56  O   -0.406991
    57  H    0.290823
    58  H   -0.002085
    59  H    0.030908
    60  N   -0.521150
    61  C    0.134675
    62  C    0.586828
    63  O   -0.512647
    64  C   -0.303110
    65  C    0.713343
    66  N   -0.791253
    67  O   -0.565420
    68  H    0.204959
    69  H    0.080460
    70  H    0.078973
    71  H    0.093552
    72  H    0.375831
    73  H    0.411545
    74  N   -0.446055
    75  C   -0.171096
    76  C    0.575817
    77  O   -0.513711
    78  H    0.350938
    79  H    0.097486
    80  H    0.125568
    81  N   -0.642565
    82  C    0.275675
    83  C    0.300572
    84  O   -0.534774
    85  C   -0.308067
    86  C    0.052356
    87  C   -0.093423
    88  C   -0.044458
    89  C   -0.341628
    90  C   -0.417555
    91  C    0.472603
    92  O   -0.571324
    93  H    0.325072
    94  H    0.074662
    95  H    0.140744
    96  H    0.096564
    97  H    0.154274
    98  H    0.111966
    99  H    0.158557
   100  H    0.168637
   101  H    0.414050
   102  N   -0.146726
   103  C   -0.254955
   104  C    0.590339
   105  O   -0.586686
   106  C    0.373723
   107  C    0.323902
   108  C   -0.367010
   109  C   -0.446313
   110  H    0.233743
   111  H    0.111616
   112  H   -0.077356
   113  H   -0.068636
   114  H   -0.073799
   115  H    0.071486
   116  H    0.045133
   117  H    0.117588
   118  H    0.121019
   119  H    0.096248
   120  H    0.079889
   121  N   -0.347890
   122  C   -0.257453
   123  C    0.392416
   124  O   -0.489011
   125  C    0.354826
   126  O   -0.616245
   127  H    0.318322
   128  H    0.161296
   129  H    0.032379
   130  H   -0.004517
   131  H    0.376196
   132  N   -0.295143
   133  C    0.150686
   134  C    0.641551
   135  O   -0.574406
   136  C   -0.306948
   137  H    0.208609
   138  H    0.053940
   139  H    0.072878
   140  H    0.069377
   141  H    0.109481
   142  N   -0.700772
   143  C    0.461621
   144  C    0.334209
   145  O   -0.449508
   146  C   -0.264343
   147  H    0.362953
   148  H   -0.020841
   149  H   -0.003761
   150  H    0.081400
   151  H    0.123840
   152  N   -0.472042
   153  C    0.534825
   154  C    0.171699
   155  O   -0.453119
   156  C   -0.189324
   157  C    0.009919
   158  C    0.706630
   159  O   -0.708692
   160  O   -0.856071
   161  H    0.245050
   162  H   -0.077348
   163  H    0.018711
   164  H    0.085567
   165  H    0.045897
   166  H    0.003667
   167  N   -0.186208
   168  C    0.037388
   169  H    0.043843
   170  H    0.000913
   171  H    0.070042
   172  H    0.170957
   173  Ca   1.665679
   174  O   -0.765135
   175  H    0.404743
   176  H    0.352201
 Sum of ESP charges =   0.00000

 Normal termination of Gaussian 16 at Tue Sep 17 00:07:03 2019.
