 Gaussian 16, Revision A.03,
 Gaussian 16:  ES64L-G16RevA.03 25-Dec-2016

 ----------------------------------------------------------------------
 #b3lyp/svp scf=(tight,noincore) Test #IOP(5/87=12) Density=Current Pop
 =(MK,readradii) iop(6/33=2) iop(6/42=6)
 ----------------------------------------------------------------------

 -----------------
 Ng-293_loop3_22.0
 -----------------
 Symbolic Z-matrix:
 Charge =  0 Multiplicity = 1

                         Standard orientation:
 ---------------------------------------------------------------------
 Center     Atomic      Atomic             Coordinates (Angstroms)
 Number     Number       Type             X           Y           Z
 ---------------------------------------------------------------------
      1          6           0       -9.225801   -1.016874    6.880863
      2          6           0       -9.626670   -0.717839    5.443337
      3          8           0      -10.739895   -0.214683    5.322656
      4          1           0       -8.387917   -1.713275    6.886317
      5          1           0       -8.931800   -0.091404    7.376688
      6          1           0      -10.069709   -1.461179    7.409406
      7          7           0       -8.844184   -1.080792    4.432357
      8          6           0       -9.304181   -1.104129    3.053822
      9          6           0       -8.122796   -0.903593    2.109621
     10          8           0       -6.962383   -0.965832    2.512198
     11          6           0      -10.007795   -2.426552    2.804370
     12          6           0      -10.807487   -2.547414    1.513563
     13          8           0      -11.153716   -1.466289    0.994050
     14          8           0      -11.264854   -3.652690    1.154980
     15          1           0       -7.884650   -1.316952    4.613802
     16          1           0      -10.075039   -0.359778    2.833096
     17          1           0      -10.683080   -2.566968    3.650346
     18          1           0       -9.309558   -3.255874    2.862597
     19          7           0       -8.516522   -0.388763    0.949910
     20          6           0       -7.641775   -0.030668   -0.139027
     21          6           0       -7.007936   -1.256732   -0.792874
     22          8           0       -7.666961   -2.286695   -0.901333
     23          6           0       -6.811245    1.201917    0.194220
     24          6           0       -7.596351    2.494577    0.422999
     25          6           0       -8.106426    3.189229   -0.840283
     26          6           0       -9.112800    4.307507   -0.582668
     27          7           0      -10.483785    3.885540   -0.216412
     28          1           0       -9.519383   -0.368441    0.774535
     29          1           0       -8.244456    0.246301   -1.000980
     30          1           0       -6.065173    1.371651   -0.586719
     31          1           0       -6.081464    1.101114    0.995256
     32          1           0       -6.929103    3.143390    0.991085
     33          1           0       -8.440783    2.211256    1.059289
     34          1           0       -8.595253    2.528058   -1.546258
     35          1           0       -7.260823    3.599238   -1.395034
     36          1           0       -9.170523    4.936688   -1.472331
     37          1           0       -8.712763    5.018866    0.137359
     38          1           0      -10.558504    3.158989    0.483045
     39          1           0      -11.013053    4.698715    0.060755
     40          1           0      -10.929468    3.540340   -1.059504
     41          7           0       -5.731544   -1.187723   -1.172297
     42          6           0       -5.123711   -2.185251   -2.023869
     43          6           0       -3.804820   -2.765972   -1.529310
     44          8           0       -3.268982   -3.639142   -2.212504
     45          6           0       -4.879723   -1.535422   -3.386547
     46          6           0       -4.149012   -0.199254   -3.328084
     47          8           0       -4.563557    0.775500   -3.998984
     48          8           0       -2.977267   -0.078705   -2.901844
     49          1           0       -5.305415   -0.278024   -1.088257
     50          1           0       -5.789647   -3.041659   -2.155374
     51          1           0       -5.846244   -1.269300   -3.804537
     52          1           0       -4.376220   -2.179702   -4.102360
     53          7           0       -3.377340   -2.413613   -0.314442
     54          6           0       -2.208224   -2.827903    0.432640
     55          6           0       -1.559504   -4.137614    0.007882
     56          8           0       -1.751980   -5.158955    0.653186
     57          1           0       -4.000412   -1.798918    0.192738
     58          1           0       -2.495105   -2.865739    1.487707
     59          1           0       -1.431282   -2.072520    0.416594
     60          7           0       -0.700925   -4.051925   -1.014468
     61          6           0        0.196463   -5.155083   -1.281745
     62          6           0        1.543720   -4.547028   -1.658395
     63          8           0        1.518082   -3.378922   -2.035583
     64          6           0       -0.371408   -5.999184   -2.417358
     65          6           0       -1.633734   -6.734127   -1.976006
     66          7           0       -2.856165   -6.391296   -2.399127
     67          8           0       -1.581072   -7.735322   -1.269865
     68          1           0       -0.457892   -3.163534   -1.413462
     69          1           0        0.328421   -5.819084   -0.424896
     70          1           0        0.359377   -6.771146   -2.657209
     71          1           0       -0.484958   -5.380802   -3.315194
     72          1           0       -2.846613   -5.408542   -2.624967
     73          1           0       -3.687686   -6.887197   -2.096218
     74          7           0        2.612881   -5.338579   -1.761067
     75          6           0        3.942386   -4.862891   -2.061799
     76          6           0        4.695901   -4.486888   -0.792691
     77          8           0        4.170935   -4.686571    0.303867
     78          1           0        2.542818   -6.282943   -1.392874
     79          1           0        3.876063   -3.935578   -2.625973
     80          1           0        4.453610   -5.612955   -2.678365
     81          7           0        5.844496   -3.876508   -1.087928
     82          6           0        6.778163   -3.254911   -0.162518
     83          6           0        6.452014   -1.812140    0.195584
     84          8           0        6.904606   -1.232930    1.171687
     85          6           0        6.909698   -4.125275    1.079965
     86          6           0        8.291953   -4.293285    1.660862
     87          6           0        8.475891   -4.253340    3.043314
     88          6           0        9.386166   -4.421537    0.792156
     89          6           0        9.785368   -4.344515    3.530405
     90          6           0       10.685744   -4.566780    1.295943
     91          6           0       10.904388   -4.482101    2.688108
     92          8           0       12.129109   -4.653474    3.260551
     93          1           0        6.115372   -3.758368   -2.054142
     94          1           0        7.693579   -3.236065   -0.750700
     95          1           0        6.529661   -5.133096    0.933096
     96          1           0        6.286059   -3.748797    1.893500
     97          1           0        7.607476   -4.245653    3.691385
     98          1           0        9.328551   -4.443645   -0.289921
     99          1           0       10.034097   -4.426033    4.581875
    100          1           0       11.526011   -4.744722    0.636861
    101          1           0       12.754029   -4.632473    2.537064
    102          7           0        5.440583   -1.255681   -0.482767
    103          6           0        4.676734   -0.072056   -0.157244
    104          6           0        5.492101    1.139045   -0.597371
    105          8           0        4.890356    2.116859   -1.045904
    106          6           0        4.149779   -0.017208    1.277263
    107          6           0        3.552048   -1.255793    1.931117
    108          6           0        3.125687    1.095901    1.405807
    109          6           0        2.525634   -1.960789    1.051995
    110          1           0        5.093405   -1.863005   -1.211893
    111          1           0        3.797591   -0.071548   -0.796624
    112          1           0        4.958433    0.230578    1.972160
    113          1           0        2.983652   -1.061452    2.840434
    114          1           0        4.315936   -2.015461    2.134044
    115          1           0        3.537317    2.061459    1.099118
    116          1           0        2.236986    0.780403    0.845475
    117          1           0        2.931342    1.221351    2.469524
    118          1           0        2.925792   -2.173378    0.055713
    119          1           0        2.350528   -2.970352    1.416302
    120          1           0        1.608600   -1.382902    0.936254
    121          7           0        6.819524    1.145630   -0.459880
    122          6           0        7.700295    2.230693   -0.862100
    123          6           0        7.354601    3.501837   -0.107057
    124          8           0        7.494060    4.580948   -0.674569
    125          6           0        9.158760    1.966990   -0.503992
    126          8           0        9.320543    1.839082    0.896746
    127          1           0        7.248426    0.300921   -0.120012
    128          1           0        7.714713    2.359804   -1.950825
    129          1           0        9.742999    2.817656   -0.846820
    130          1           0        9.542006    1.084729   -1.001623
    131          1           0       10.085300    1.336055    1.170626
    132          7           0        6.752216    3.403144    1.078984
    133          6           0        6.172074    4.455122    1.889709
    134          6           0        5.122103    5.317956    1.204378
    135          8           0        4.995979    6.484349    1.564685
    136          6           0        7.240952    5.226266    2.672804
    137          1           0        6.676873    2.467263    1.447562
    138          1           0        5.543034    3.947826    2.623166
    139          1           0        7.886838    5.889654    2.107430
    140          1           0        6.705763    5.814496    3.409932
    141          1           0        7.843469    4.448208    3.145771
    142          7           0        4.441909    4.823903    0.165461
    143          6           0        3.505656    5.597396   -0.627974
    144          6           0        2.095795    5.484560   -0.074295
    145          8           0        1.765913    4.606663    0.720485
    146          6           0        3.619974    5.169148   -2.090825
    147          1           0        4.706197    3.907481   -0.171915
    148          1           0        3.829850    6.639697   -0.708024
    149          1           0        3.194814    4.165414   -2.167358
    150          1           0        3.123138    5.879698   -2.743721
    151          1           0        4.640392    5.019043   -2.451125
    152          7           0        1.174859    6.376916   -0.419805
    153          6           0       -0.234659    6.368276   -0.079534
    154          6           0       -0.586497    6.506757    1.394214
    155          8           0       -1.731965    6.563415    1.838954
    156          6           0       -0.883765    5.157296   -0.738387
    157          6           0       -0.665663    5.232140   -2.253454
    158          6           0       -1.285531    4.067558   -3.014250
    159          8           0       -1.129705    4.161778   -4.251926
    160          8           0       -1.775330    3.064908   -2.442770
    161          1           0        1.495333    7.077611   -1.075261
    162          1           0       -0.587510    7.279098   -0.573497
    163          1           0       -1.961061    5.140094   -0.588261
    164          1           0       -0.502299    4.231922   -0.310525
    165          1           0        0.380485    5.411262   -2.502636
    166          1           0       -1.218512    6.073451   -2.659846
    167          7           0        0.354580    6.531055    2.336331
    168          6           0        0.164791    6.571611    3.774710
    169          1           0       -0.891122    6.725903    3.997545
    170          1           0        0.493396    5.628243    4.211789
    171          1           0        0.748142    7.390602    4.195488
    172          1           0        1.276571    6.379102    1.965599
    173         20           0       -2.563615    2.010162   -4.816505
    174          8           0       -0.122574    1.333572   -4.482224
    175          1           0        0.119327    0.415889   -4.579398
    176          1           0        0.652249    1.751838   -4.111815
 ---------------------------------------------------------------------

 SCF Done:  E(RB3LYP) =  -5333.38483485     A.U. after   28 cycles

 The electronic state is 1-A.
 Alpha  occ. eigenvalues -- -145.46558 -19.20401 -19.17680 -19.15064 -19.13782
 Alpha  occ. eigenvalues --  -19.12989 -19.11978 -19.11816 -19.09262 -19.09104
 Alpha  occ. eigenvalues --  -19.09070 -19.09019 -19.08575 -19.08166 -19.07921
 Alpha  occ. eigenvalues --  -19.07627 -19.07603 -19.07586 -19.07384 -19.06482
 Alpha  occ. eigenvalues --  -19.04596 -19.03747 -18.97163 -18.95623 -15.52516
 Alpha  occ. eigenvalues --  -14.57623 -14.40553 -14.38390 -14.38203 -14.37516
 Alpha  occ. eigenvalues --  -14.35968 -14.35691 -14.35270 -14.35188 -14.33220
 Alpha  occ. eigenvalues --  -14.33188 -14.32511 -14.32063 -14.30514 -14.29677
 Alpha  occ. eigenvalues --  -12.66122 -12.66095 -12.66000 -10.34474 -10.32330
 Alpha  occ. eigenvalues --  -10.31579 -10.30642 -10.30032 -10.28260 -10.28082
 Alpha  occ. eigenvalues --  -10.28006 -10.27724 -10.27562 -10.27500 -10.27017
 Alpha  occ. eigenvalues --  -10.26915 -10.26674 -10.26569 -10.26493 -10.26224
 Alpha  occ. eigenvalues --  -10.26106 -10.25981 -10.25630 -10.25313 -10.25116
 Alpha  occ. eigenvalues --  -10.24494 -10.23685 -10.23612 -10.23590 -10.23246
 Alpha  occ. eigenvalues --  -10.23216 -10.23187 -10.23063 -10.23056 -10.22098
 Alpha  occ. eigenvalues --  -10.21005 -10.20761 -10.20717 -10.20527 -10.20417
 Alpha  occ. eigenvalues --  -10.20320 -10.20307 -10.19656 -10.19493 -10.19096
 Alpha  occ. eigenvalues --  -10.18962 -10.18909 -10.17943 -10.17519 -10.17349
 Alpha  occ. eigenvalues --  -10.17056 -10.16912 -10.16904 -10.16553 -10.16091
 Alpha  occ. eigenvalues --  -10.15163 -10.10385  -1.89301  -1.16921  -1.16525
 Alpha  occ. eigenvalues --   -1.16084  -1.12588  -1.07157  -1.06621  -1.06487
 Alpha  occ. eigenvalues --   -1.06236  -1.05128  -1.04834  -1.03966  -1.03369
 Alpha  occ. eigenvalues --   -1.03302  -1.02749  -1.02447  -1.02147  -1.01706
 Alpha  occ. eigenvalues --   -1.00641  -1.00624  -1.00277  -0.99824  -0.98088
 Alpha  occ. eigenvalues --   -0.97994  -0.97042  -0.95308  -0.94621  -0.94101
 Alpha  occ. eigenvalues --   -0.92848  -0.92835  -0.92538  -0.91961  -0.91922
 Alpha  occ. eigenvalues --   -0.91230  -0.91177  -0.90670  -0.90262  -0.90130
 Alpha  occ. eigenvalues --   -0.88259  -0.87975  -0.87147  -0.86356  -0.84706
 Alpha  occ. eigenvalues --   -0.83119  -0.81597  -0.81573  -0.81033  -0.79695
 Alpha  occ. eigenvalues --   -0.79235  -0.78881  -0.78269  -0.76944  -0.76672
 Alpha  occ. eigenvalues --   -0.75587  -0.75553  -0.75365  -0.75115  -0.73501
 Alpha  occ. eigenvalues --   -0.72819  -0.72637  -0.72382  -0.71406  -0.71132
 Alpha  occ. eigenvalues --   -0.71129  -0.69360  -0.68798  -0.68536  -0.67668
 Alpha  occ. eigenvalues --   -0.67014  -0.66826  -0.65971  -0.65768  -0.64310
 Alpha  occ. eigenvalues --   -0.63954  -0.63718  -0.63557  -0.63243  -0.62361
 Alpha  occ. eigenvalues --   -0.62027  -0.61580  -0.61512  -0.60797  -0.60513
 Alpha  occ. eigenvalues --   -0.59760  -0.59751  -0.59329  -0.59178  -0.59150
 Alpha  occ. eigenvalues --   -0.58150  -0.58043  -0.57451  -0.57084  -0.56855
 Alpha  occ. eigenvalues --   -0.56720  -0.56543  -0.56155  -0.55751  -0.54955
 Alpha  occ. eigenvalues --   -0.54909  -0.54384  -0.54126  -0.54060  -0.53787
 Alpha  occ. eigenvalues --   -0.53568  -0.53306  -0.52743  -0.52712  -0.52199
 Alpha  occ. eigenvalues --   -0.52126  -0.51799  -0.51665  -0.51509  -0.50283
 Alpha  occ. eigenvalues --   -0.50187  -0.50011  -0.49569  -0.49510  -0.49303
 Alpha  occ. eigenvalues --   -0.48849  -0.48639  -0.48321  -0.48004  -0.47886
 Alpha  occ. eigenvalues --   -0.47729  -0.47523  -0.47485  -0.47226  -0.46922
 Alpha  occ. eigenvalues --   -0.46721  -0.46496  -0.46400  -0.46152  -0.46053
 Alpha  occ. eigenvalues --   -0.46023  -0.45844  -0.45503  -0.45344  -0.45247
 Alpha  occ. eigenvalues --   -0.45170  -0.44598  -0.44504  -0.44376  -0.44227
 Alpha  occ. eigenvalues --   -0.44094  -0.44067  -0.44049  -0.43847  -0.43741
 Alpha  occ. eigenvalues --   -0.43412  -0.43365  -0.42956  -0.42900  -0.42554
 Alpha  occ. eigenvalues --   -0.42468  -0.42166  -0.42030  -0.42027  -0.41774
 Alpha  occ. eigenvalues --   -0.41634  -0.41460  -0.41377  -0.41331  -0.41098
 Alpha  occ. eigenvalues --   -0.41021  -0.40878  -0.40555  -0.40495  -0.40446
 Alpha  occ. eigenvalues --   -0.40279  -0.40247  -0.40190  -0.40025  -0.39832
 Alpha  occ. eigenvalues --   -0.39676  -0.39501  -0.39476  -0.39280  -0.39219
 Alpha  occ. eigenvalues --   -0.38889  -0.38619  -0.38613  -0.38477  -0.38443
 Alpha  occ. eigenvalues --   -0.38067  -0.38039  -0.37852  -0.37747  -0.37559
 Alpha  occ. eigenvalues --   -0.37207  -0.37147  -0.36938  -0.36933  -0.36732
 Alpha  occ. eigenvalues --   -0.36554  -0.36452  -0.36313  -0.36148  -0.35905
 Alpha  occ. eigenvalues --   -0.35608  -0.35535  -0.35271  -0.35005  -0.34816
 Alpha  occ. eigenvalues --   -0.34753  -0.34684  -0.34503  -0.34499  -0.34321
 Alpha  occ. eigenvalues --   -0.34115  -0.34030  -0.33923  -0.33857  -0.33714
 Alpha  occ. eigenvalues --   -0.33261  -0.33196  -0.32784  -0.32302  -0.31647
 Alpha  occ. eigenvalues --   -0.31593  -0.30652  -0.30180  -0.29812  -0.29540
 Alpha  occ. eigenvalues --   -0.28898  -0.28443  -0.28101  -0.27821  -0.27764
 Alpha  occ. eigenvalues --   -0.27725  -0.27374  -0.27010  -0.26974  -0.26775
 Alpha  occ. eigenvalues --   -0.26390  -0.26373  -0.26283  -0.25978  -0.25858
 Alpha  occ. eigenvalues --   -0.25818  -0.25285  -0.24964  -0.24760  -0.24498
 Alpha  occ. eigenvalues --   -0.24332  -0.24089  -0.23800  -0.23406  -0.23247
 Alpha  occ. eigenvalues --   -0.23205  -0.22940  -0.22849  -0.22701  -0.22672
 Alpha  occ. eigenvalues --   -0.22341  -0.22307  -0.20874  -0.20557  -0.19620
 Alpha  occ. eigenvalues --   -0.14077  -0.13982  -0.11674
 Alpha virt. eigenvalues --   -0.10732  -0.09312  -0.03823  -0.03115  -0.02927
 Alpha virt. eigenvalues --   -0.02506  -0.02204  -0.01415  -0.01089  -0.00850
 Alpha virt. eigenvalues --   -0.00560  -0.00116   0.00382   0.00486   0.00786

 Mulliken charges:
               1
     1  C    0.071160
     2  C    0.001721
     3  O   -0.314222
     4  H   -0.016143
     5  H    0.018313
     6  H    0.035589
     7  N   -0.106707
     8  C    0.064246
     9  C    0.115799
    10  O   -0.305608
    11  C    0.058051
    12  C    0.091348
    13  O   -0.422543
    14  O   -0.350667
    15  H    0.113858
    16  H   -0.016346
    17  H    0.013929
    18  H   -0.026938
    19  N   -0.107020
    20  C    0.111077
    21  C    0.048888
    22  O   -0.230666
    23  C    0.048105
    24  C    0.021509
    25  C   -0.005234
    26  C    0.014190
    27  N    0.084094
    28  H    0.099780
    29  H   -0.003348
    30  H   -0.017175
    31  H    0.029050
    32  H    0.027150
    33  H   -0.008401
    34  H    0.013201
    35  H    0.047045
    36  H    0.056329
    37  H    0.068562
    38  H    0.199915
    39  H    0.187060
    40  H    0.188550
    41  N   -0.164617
    42  C    0.109064
    43  C    0.101743
    44  O   -0.315654
    45  C    0.139018
    46  C    0.025807
    47  O   -0.496672
    48  O   -0.378326
    49  H    0.141222
    50  H    0.058583
    51  H   -0.007649
    52  H    0.029519
    53  N   -0.121405
    54  C    0.249856
    55  C    0.025379
    56  O   -0.251082
    57  H    0.128584
    58  H    0.022162
    59  H    0.009555
    60  N   -0.118413
    61  C    0.046780
    62  C    0.109124
    63  O   -0.312710
    64  C    0.155156
    65  C   -0.008724
    66  N   -0.045388
    67  O   -0.273667
    68  H    0.121729
    69  H    0.036597
    70  H   -0.013779
    71  H   -0.017424
    72  H    0.114046
    73  H    0.128036
    74  N   -0.120045
    75  C    0.171231
    76  C    0.062800
    77  O   -0.248286
    78  H    0.138606
    79  H    0.013822
    80  H    0.039763
    81  N   -0.176319
    82  C    0.127286
    83  C    0.041756
    84  O   -0.270407
    85  C    0.163432
    86  C   -0.021455
    87  C    0.026405
    88  C   -0.019988
    89  C   -0.016448
    90  C   -0.067833
    91  C    0.146953
    92  O   -0.179406
    93  H    0.123870
    94  H    0.009055
    95  H    0.031581
    96  H    0.022052
    97  H   -0.016809
    98  H   -0.043203
    99  H   -0.016650
   100  H   -0.047929
   101  H    0.169355
   102  N   -0.128033
   103  C    0.186646
   104  C    0.050874
   105  O   -0.291695
   106  C   -0.087391
   107  C    0.030844
   108  C    0.079552
   109  C   -0.022121
   110  H    0.105124
   111  H    0.001633
   112  H   -0.004180
   113  H    0.004906
   114  H    0.006403
   115  H    0.004566
   116  H    0.012960
   117  H    0.001090
   118  H   -0.018842
   119  H    0.022338
   120  H    0.013109
   121  N   -0.116985
   122  C    0.116639
   123  C    0.046651
   124  O   -0.269408
   125  C    0.220832
   126  O   -0.323475
   127  H    0.124702
   128  H    0.017679
   129  H    0.019207
   130  H   -0.008521
   131  H    0.174704
   132  N   -0.119956
   133  C    0.061127
   134  C    0.051678
   135  O   -0.285053
   136  C    0.095915
   137  H    0.125705
   138  H    0.016513
   139  H    0.030129
   140  H    0.017626
   141  H   -0.004838
   142  N   -0.129337
   143  C    0.080369
   144  C    0.070540
   145  O   -0.280620
   146  C    0.039637
   147  H    0.166288
   148  H    0.014597
   149  H    0.008928
   150  H    0.007816
   151  H    0.040000
   152  N   -0.145414
   153  C    0.125237
   154  C    0.065373
   155  O   -0.304936
   156  C    0.067832
   157  C    0.038923
   158  C    0.089203
   159  O   -0.456841
   160  O   -0.377908
   161  H    0.112920
   162  H   -0.007181
   163  H   -0.002038
   164  H    0.033762
   165  H   -0.006557
   166  H   -0.016651
   167  N   -0.124512
   168  C    0.132627
   169  H    0.039639
   170  H    0.023587
   171  H    0.016701
   172  H    0.108448
   173  Ca   1.361254
   174  O   -0.305740
   175  H    0.182530
   176  H    0.205726
 Sum of Mulliken charges =  -0.00000

 Dipole moment (field-independent basis, Debye):
    X=             15.4301    Y=             21.7404    Z=            -24.2027  Tot=             36.0070
 Quadrupole moment (field-independent basis, Debye-Ang):
   XX=           -567.3935   YY=           -625.0174   ZZ=           -494.2447
   XY=           -356.7116   XZ=             75.8634   YZ=             -7.4960

 ESP charges:
               1
     1  C   -0.391396
     2  C    0.748635
     3  O   -0.594814
     4  H    0.073621
     5  H    0.090441
     6  H    0.123861
     7  N   -0.788334
     8  C    0.395926
     9  C    0.535542
    10  O   -0.569803
    11  C   -0.167450
    12  C    0.676982
    13  O   -0.708373
    14  O   -0.654049
    15  H    0.363152
    16  H   -0.050327
    17  H    0.083870
    18  H   -0.001123
    19  N   -0.456768
    20  C    0.015609
    21  C    0.657252
    22  O   -0.525001
    23  C   -0.045846
    24  C    0.086571
    25  C   -0.146081
    26  C    0.228536
    27  N   -0.490381
    28  H    0.251437
    29  H    0.066556
    30  H    0.023944
    31  H    0.075768
    32  H    0.023742
    33  H   -0.055593
    34  H    0.043062
    35  H    0.067256
    36  H    0.028059
    37  H    0.034550
    38  H    0.382729
    39  H    0.344164
    40  H    0.348657
    41  N   -0.608988
    42  C    0.110398
    43  C    0.433565
    44  O   -0.495398
    45  C   -0.364621
    46  C    0.863003
    47  O   -0.874809
    48  O   -0.700217
    49  H    0.271592
    50  H    0.144520
    51  H    0.108149
    52  H    0.099720
    53  N   -0.212520
    54  C   -0.135196
    55  C    0.525515
    56  O   -0.482629
    57  H    0.247929
    58  H    0.106578
    59  H    0.067587
    60  N   -0.538113
    61  C    0.301485
    62  C    0.421733
    63  O   -0.488998
    64  C   -0.386663
    65  C    0.792940
    66  N   -0.871500
    67  O   -0.589289
    68  H    0.307944
    69  H    0.020223
    70  H    0.055487
    71  H    0.123240
    72  H    0.329293
    73  H    0.421911
    74  N   -0.405283
    75  C    0.039096
    76  C    0.564618
    77  O   -0.498791
    78  H    0.307494
    79  H    0.040462
    80  H    0.056634
    81  N   -0.667934
    82  C    0.490770
    83  C    0.341515
    84  O   -0.510489
    85  C   -0.420823
    86  C    0.126987
    87  C   -0.134377
    88  C   -0.219952
    89  C   -0.231401
    90  C   -0.278660
    91  C    0.330806
    92  O   -0.511647
    93  H    0.302472
    94  H    0.010390
    95  H    0.163432
    96  H    0.182074
    97  H    0.130154
    98  H    0.148350
    99  H    0.156759
   100  H    0.135111
   101  H    0.390478
   102  N   -0.776021
   103  C    0.186283
   104  C    0.530328
   105  O   -0.580189
   106  C    0.156222
   107  C   -0.134030
   108  C   -0.294964
   109  C   -0.121569
   110  H    0.405066
   111  H    0.067071
   112  H    0.033375
   113  H    0.060130
   114  H    0.056724
   115  H   -0.008913
   116  H    0.104530
   117  H    0.090468
   118  H    0.002861
   119  H    0.071959
   120  H    0.041556
   121  N   -0.256867
   122  C   -0.282052
   123  C    0.679320
   124  O   -0.582397
   125  C    0.200175
   126  O   -0.633830
   127  H    0.314245
   128  H    0.140377
   129  H    0.049072
   130  H    0.016931
   131  H    0.422958
   132  N   -0.312719
   133  C    0.254384
   134  C    0.497113
   135  O   -0.547319
   136  C   -0.371184
   137  H    0.185454
   138  H    0.040472
   139  H    0.129672
   140  H    0.092629
   141  H    0.071264
   142  N   -0.568725
   143  C    0.516840
   144  C    0.300343
   145  O   -0.443564
   146  C   -0.239326
   147  H    0.310935
   148  H   -0.029146
   149  H    0.064250
   150  H    0.039244
   151  H    0.077710
   152  N   -0.607237
   153  C   -0.184880
   154  C    0.520932
   155  O   -0.554757
   156  C    0.038445
   157  C    0.232222
   158  C    0.579114
   159  O   -0.794466
   160  O   -0.714073
   161  H    0.350984
   162  H    0.134713
   163  H   -0.009041
   164  H    0.088197
   165  H   -0.024903
   166  H   -0.052591
   167  N   -0.251793
   168  C   -0.078065
   169  H    0.092129
   170  H    0.068327
   171  H    0.041738
   172  H    0.259992
   173  Ca   1.645120
   174  O   -0.859108
   175  H    0.420574
   176  H    0.464577
 Sum of ESP charges =   0.00000

 Normal termination of Gaussian 16 at Tue Sep 17 00:18:37 2019.
