 Gaussian 16, Revision A.03,
 Gaussian 16:  ES64L-G16RevA.03 25-Dec-2016

 ----------------------------------------------------------------------
 #b3lyp/svp scf=(tight,noincore) Test #IOP(5/87=12) Density=Current Pop
 =(MK,readradii) iop(6/33=2) iop(6/42=6)
 ----------------------------------------------------------------------

 ----------------
 Ng-293_loop3_7.0
 ----------------
 Symbolic Z-matrix:
 Charge =  0 Multiplicity = 1

                         Standard orientation:
 ---------------------------------------------------------------------
 Center     Atomic      Atomic             Coordinates (Angstroms)
 Number     Number       Type             X           Y           Z
 ---------------------------------------------------------------------
      1          6           0        8.190988   -3.235823   -6.529292
      2          6           0        8.861743   -3.059887   -5.175138
      3          8           0       10.060478   -2.808092   -5.142984
      4          1           0        7.194115   -3.652533   -6.388679
      5          1           0        8.113589   -2.268265   -7.025811
      6          1           0        8.783614   -3.912947   -7.143688
      7          7           0        8.064016   -2.962583   -4.109557
      8          6           0        8.413659   -2.725858   -2.714276
      9          6           0        7.321498   -1.870380   -2.092069
     10          8           0        6.262203   -1.647599   -2.673072
     11          6           0        8.652528   -4.023631   -1.960667
     12          6           0        9.145221   -3.834939   -0.527576
     13          8           0        9.781286   -2.776330   -0.335568
     14          8           0        8.843908   -4.686142    0.337735
     15          1           0        7.098531   -2.795257   -4.335702
     16          1           0        9.384771   -2.260803   -2.851261
     17          1           0        9.501600   -4.489069   -2.455686
     18          1           0        7.787195   -4.692891   -2.028403
     19          7           0        7.492733   -1.285566   -0.904646
     20          6           0        6.496184   -0.750609    0.006567
     21          6           0        5.488028   -1.768045    0.510298
     22          8           0        5.347910   -2.877783    0.006166
     23          6           0        5.843497    0.551045   -0.445978
     24          6           0        6.777992    1.532501   -1.153129
     25          6           0        7.910667    2.019212   -0.255209
     26          6           0        8.658888    3.128491   -0.983882
     27          7           0        9.832165    2.563907   -1.667742
     28          1           0        8.392592   -1.395038   -0.454569
     29          1           0        7.144484   -0.386813    0.798311
     30          1           0        5.432941    1.005578    0.449647
     31          1           0        4.994395    0.483431   -1.127927
     32          1           0        6.238789    2.383735   -1.578405
     33          1           0        7.209766    1.001535   -1.998674
     34          1           0        8.623888    1.239453    0.017722
     35          1           0        7.491515    2.511061    0.625130
     36          1           0        8.996477    3.843645   -0.239108
     37          1           0        8.069428    3.679999   -1.713523
     38          1           0       10.375473    1.974103   -1.044887
     39          1           0        9.498957    2.059593   -2.475975
     40          1           0       10.385910    3.285673   -2.094733
     41          7           0        4.699081   -1.331490    1.502862
     42          6           0        3.692624   -2.134377    2.169583
     43          6           0        2.286769   -2.066711    1.594523
     44          8           0        1.257718   -2.022256    2.262114
     45          6           0        3.744837   -2.136192    3.686248
     46          6           0        3.716487   -0.713774    4.243763
     47          8           0        3.499158    0.262146    3.497005
     48          8           0        4.042388   -0.523381    5.434619
     49          1           0        4.833192   -0.376429    1.809411
     50          1           0        3.981613   -3.178377    2.003308
     51          1           0        4.643438   -2.629751    4.049865
     52          1           0        2.915854   -2.723290    4.079952
     53          7           0        2.214882   -2.285370    0.276866
     54          6           0        0.972776   -2.435864   -0.464906
     55          6           0        0.307260   -3.798488   -0.381582
     56          8           0        0.421888   -4.616127   -1.290662
     57          1           0        3.077294   -2.394613   -0.239285
     58          1           0        1.244837   -2.202497   -1.493994
     59          1           0        0.279949   -1.625745   -0.236875
     60          7           0       -0.469068   -3.994001    0.683308
     61          6           0       -1.317116   -5.150043    0.915647
     62          6           0       -2.550884   -4.701751    1.683274
     63          8           0       -2.425612   -3.801156    2.509491
     64          6           0       -0.550686   -6.239830    1.651342
     65          6           0        0.442963   -7.005274    0.780964
     66          7           0       -0.041988   -7.605039   -0.312335
     67          8           0        1.633447   -7.051496    1.084629
     68          1           0       -0.467197   -3.312930    1.422455
     69          1           0       -1.683358   -5.548163   -0.040004
     70          1           0       -1.262097   -6.955975    2.049878
     71          1           0       -0.038471   -5.764175    2.491752
     72          1           0       -1.031152   -7.761306   -0.471195
     73          1           0        0.675168   -8.011944   -0.897754
     74          7           0       -3.614914   -5.502886    1.562352
     75          6           0       -4.938576   -5.106794    1.984879
     76          6           0       -5.656806   -4.159478    1.031287
     77          8           0       -5.288088   -4.141717   -0.140178
     78          1           0       -3.444221   -6.205236    0.857392
     79          1           0       -4.898109   -4.800653    3.030030
     80          1           0       -5.502480   -6.027347    1.965014
     81          7           0       -6.597600   -3.353765    1.525388
     82          6           0       -7.403429   -2.502615    0.693773
     83          6           0       -6.648232   -1.381969   -0.004533
     84          8           0       -7.103775   -0.852443   -1.020152
     85          6           0       -8.180285   -3.444798   -0.227359
     86          6           0       -9.516461   -2.933749   -0.714353
     87          6           0       -9.887033   -3.182085   -2.034620
     88          6           0      -10.500396   -2.407938    0.121646
     89          6           0      -11.148024   -2.864539   -2.565247
     90          6           0      -11.809677   -2.158693   -0.313049
     91          6           0      -12.106061   -2.344821   -1.673642
     92          8           0      -13.414942   -2.077765   -1.973494
     93          1           0       -6.815905   -3.352929    2.513741
     94          1           0       -8.201620   -2.145861    1.352801
     95          1           0       -8.495413   -4.340288    0.308638
     96          1           0       -7.577194   -3.818149   -1.052701
     97          1           0       -9.216805   -3.752819   -2.666488
     98          1           0      -10.288664   -2.319815    1.172837
     99          1           0      -11.492412   -3.184522   -3.538699
    100          1           0      -12.608383   -1.903115    0.367502
    101          1           0      -13.973410   -2.044592   -1.199018
    102          7           0       -5.370734   -1.110963    0.259197
    103          6           0       -4.439050   -0.149222   -0.285156
    104          6           0       -4.726380    1.296677    0.102424
    105          8           0       -3.752628    1.982867    0.405657
    106          6           0       -4.250641   -0.292060   -1.793068
    107          6           0       -3.812894   -1.726844   -2.087636
    108          6           0       -3.228250    0.667548   -2.387095
    109          6           0       -2.682670   -2.308056   -1.257042
    110          1           0       -4.987804   -1.556549    1.082251
    111          1           0       -3.451555   -0.327388    0.150746
    112          1           0       -5.204474   -0.035547   -2.259441
    113          1           0       -3.557796   -1.852550   -3.146373
    114          1           0       -4.692052   -2.372926   -1.986341
    115          1           0       -3.739293    1.611095   -2.563603
    116          1           0       -2.362257    0.801033   -1.743560
    117          1           0       -2.988002    0.340182   -3.399869
    118          1           0       -2.957932   -2.631408   -0.256106
    119          1           0       -2.305572   -3.147234   -1.842942
    120          1           0       -1.780292   -1.686848   -1.242397
    121          7           0       -5.989405    1.735048    0.116496
    122          6           0       -6.469640    2.962071    0.738982
    123          6           0       -5.829472    4.252098    0.244092
    124          8           0       -5.540362    5.145306    1.025561
    125          6           0       -7.979485    3.043824    0.525014
    126          8           0       -8.275384    3.093761   -0.854896
    127          1           0       -6.679230    1.065158   -0.182317
    128          1           0       -6.318387    2.881442    1.817834
    129          1           0       -8.314735    3.958682    1.016992
    130          1           0       -8.444638    2.185001    0.992835
    131          1           0       -9.191809    2.884459   -1.033663
    132          7           0       -5.545438    4.329232   -1.068454
    133          6           0       -4.818538    5.379119   -1.746947
    134          6           0       -3.483516    5.850686   -1.189507
    135          8           0       -3.064580    6.985968   -1.427471
    136          6           0       -5.647933    6.642977   -1.930706
    137          1           0       -6.003252    3.611945   -1.593816
    138          1           0       -4.646055    5.064595   -2.775308
    139          1           0       -5.248226    7.328263   -2.667603
    140          1           0       -6.675325    6.421389   -2.220987
    141          1           0       -5.619873    7.229911   -1.010858
    142          7           0       -2.767869    5.050385   -0.385848
    143          6           0       -1.620416    5.445555    0.398047
    144          6           0       -0.308381    5.433302   -0.376236
    145          8           0       -0.046004    4.555539   -1.188079
    146          6           0       -1.546952    4.594490    1.667886
    147          1           0       -3.147807    4.135929   -0.186808
    148          1           0       -1.785552    6.487084    0.671815
    149          1           0       -1.513854    3.558101    1.350076
    150          1           0       -0.757453    4.777198    2.383014
    151          1           0       -2.385219    4.745386    2.357190
    152          7           0        0.631246    6.315601   -0.006846
    153          6           0        2.032873    6.518538   -0.338900
    154          6           0        2.317595    6.510433   -1.833747
    155          8           0        3.423578    6.269705   -2.330287
    156          6           0        2.766710    5.365406    0.325908
    157          6           0        2.611731    5.427344    1.839957
    158          6           0        3.874510    4.919679    2.526954
    159          8           0        4.867037    5.647416    2.737877
    160          8           0        3.837473    3.721888    2.875126
    161          1           0        0.312944    7.049040    0.608420
    162          1           0        2.501381    7.415863    0.057342
    163          1           0        3.807159    5.370816    0.009150
    164          1           0        2.395492    4.429533   -0.114478
    165          1           0        1.764357    4.876452    2.240800
    166          1           0        2.276325    6.431179    2.104376
    167          7           0        1.292118    6.707577   -2.659901
    168          6           0        1.325846    6.418667   -4.077608
    169          1           0        1.020563    5.385811   -4.244261
    170          1           0        0.643790    7.088155   -4.601932
    171          1           0        2.338771    6.562876   -4.454815
    172          1           0        0.405679    6.851049   -2.197146
    173         20           0        4.337258    2.204010    5.123183
    174          8           0        4.074977    1.498769    7.716317
    175          1           0        3.741178    1.928437    8.501533
    176          1           0        4.316032    0.614115    8.005246
 ---------------------------------------------------------------------

 SCF Done:  E(RB3LYP) =  -5333.35918947     A.U. after   32 cycles

 The electronic state is 1-A.
 Alpha  occ. eigenvalues -- -145.49436 -19.22869 -19.16407 -19.15496 -19.12836
 Alpha  occ. eigenvalues --  -19.11276 -19.11095 -19.10527 -19.09350 -19.08503
 Alpha  occ. eigenvalues --  -19.08161 -19.07983 -19.07762 -19.07633 -19.07539
 Alpha  occ. eigenvalues --  -19.07002 -19.06982 -19.06633 -19.06255 -19.06110
 Alpha  occ. eigenvalues --  -19.04154 -19.03480 -18.97144 -18.96371 -15.55322
 Alpha  occ. eigenvalues --  -14.56074 -14.39638 -14.37797 -14.37102 -14.36251
 Alpha  occ. eigenvalues --  -14.34981 -14.34888 -14.33645 -14.33403 -14.33060
 Alpha  occ. eigenvalues --  -14.32869 -14.32670 -14.32510 -14.31032 -14.29626
 Alpha  occ. eigenvalues --  -12.68960 -12.68880 -12.68832 -10.32491 -10.31659
 Alpha  occ. eigenvalues --  -10.30703 -10.29335 -10.28826 -10.28190 -10.27116
 Alpha  occ. eigenvalues --  -10.27038 -10.26934 -10.26814 -10.26506 -10.26454
 Alpha  occ. eigenvalues --  -10.26243 -10.25984 -10.25898 -10.25880 -10.25814
 Alpha  occ. eigenvalues --  -10.25594 -10.25171 -10.24727 -10.24631 -10.23907
 Alpha  occ. eigenvalues --  -10.23453 -10.23451 -10.23358 -10.23039 -10.22622
 Alpha  occ. eigenvalues --  -10.22446 -10.22386 -10.21585 -10.21111 -10.20927
 Alpha  occ. eigenvalues --  -10.20418 -10.20376 -10.20050 -10.20007 -10.19907
 Alpha  occ. eigenvalues --  -10.19846 -10.19797 -10.19227 -10.18839 -10.17827
 Alpha  occ. eigenvalues --  -10.17810 -10.17539 -10.17373 -10.16495 -10.16160
 Alpha  occ. eigenvalues --  -10.16130 -10.16106 -10.16105 -10.16017 -10.15669
 Alpha  occ. eigenvalues --  -10.15539 -10.10415  -1.91799  -1.19552  -1.18875
 Alpha  occ. eigenvalues --   -1.18495  -1.11563  -1.08584  -1.06477  -1.05335
 Alpha  occ. eigenvalues --   -1.04902  -1.04073  -1.03985  -1.03440  -1.03063
 Alpha  occ. eigenvalues --   -1.02332  -1.01761  -1.01093  -1.00547  -1.00463
 Alpha  occ. eigenvalues --   -0.99838  -0.99581  -0.99454  -0.99366  -0.99319
 Alpha  occ. eigenvalues --   -0.97211  -0.96677  -0.94515  -0.93678  -0.92988
 Alpha  occ. eigenvalues --   -0.92719  -0.91648  -0.91604  -0.91215  -0.90396
 Alpha  occ. eigenvalues --   -0.90234  -0.89730  -0.89053  -0.88994  -0.88644
 Alpha  occ. eigenvalues --   -0.88419  -0.88026  -0.86784  -0.86577  -0.86166
 Alpha  occ. eigenvalues --   -0.81814  -0.81770  -0.80658  -0.79711  -0.78957
 Alpha  occ. eigenvalues --   -0.78879  -0.78253  -0.76940  -0.76250  -0.76121
 Alpha  occ. eigenvalues --   -0.75248  -0.74549  -0.74106  -0.74009  -0.72750
 Alpha  occ. eigenvalues --   -0.72642  -0.71762  -0.71301  -0.71256  -0.70433
 Alpha  occ. eigenvalues --   -0.69452  -0.68066  -0.67957  -0.67596  -0.67296
 Alpha  occ. eigenvalues --   -0.66739  -0.66311  -0.65155  -0.64249  -0.63877
 Alpha  occ. eigenvalues --   -0.63332  -0.63158  -0.62507  -0.61752  -0.61711
 Alpha  occ. eigenvalues --   -0.61659  -0.60817  -0.60540  -0.60197  -0.59863
 Alpha  occ. eigenvalues --   -0.59791  -0.59331  -0.58685  -0.58535  -0.58182
 Alpha  occ. eigenvalues --   -0.57419  -0.57017  -0.56911  -0.56328  -0.56088
 Alpha  occ. eigenvalues --   -0.55969  -0.55711  -0.55456  -0.55073  -0.54958
 Alpha  occ. eigenvalues --   -0.54883  -0.54111  -0.53514  -0.53426  -0.53020
 Alpha  occ. eigenvalues --   -0.52687  -0.52285  -0.52177  -0.51973  -0.51640
 Alpha  occ. eigenvalues --   -0.51369  -0.50929  -0.50712  -0.50535  -0.50225
 Alpha  occ. eigenvalues --   -0.49934  -0.49864  -0.49225  -0.48842  -0.48523
 Alpha  occ. eigenvalues --   -0.48307  -0.48094  -0.47889  -0.47649  -0.47505
 Alpha  occ. eigenvalues --   -0.47245  -0.46953  -0.46668  -0.46551  -0.46427
 Alpha  occ. eigenvalues --   -0.46317  -0.46039  -0.45699  -0.45442  -0.45320
 Alpha  occ. eigenvalues --   -0.45081  -0.44792  -0.44627  -0.44568  -0.44388
 Alpha  occ. eigenvalues --   -0.43814  -0.43744  -0.43707  -0.43614  -0.43356
 Alpha  occ. eigenvalues --   -0.43201  -0.43074  -0.43030  -0.42797  -0.42584
 Alpha  occ. eigenvalues --   -0.42507  -0.42168  -0.41969  -0.41955  -0.41897
 Alpha  occ. eigenvalues --   -0.41874  -0.41579  -0.41274  -0.41161  -0.41035
 Alpha  occ. eigenvalues --   -0.40869  -0.40648  -0.40578  -0.40409  -0.40358
 Alpha  occ. eigenvalues --   -0.40273  -0.40194  -0.40134  -0.40011  -0.39627
 Alpha  occ. eigenvalues --   -0.39542  -0.39430  -0.39402  -0.39208  -0.38976
 Alpha  occ. eigenvalues --   -0.38833  -0.38665  -0.38645  -0.38124  -0.37935
 Alpha  occ. eigenvalues --   -0.37897  -0.37697  -0.37656  -0.37389  -0.37183
 Alpha  occ. eigenvalues --   -0.37044  -0.36953  -0.36910  -0.36810  -0.36710
 Alpha  occ. eigenvalues --   -0.36573  -0.36414  -0.36364  -0.36298  -0.36053
 Alpha  occ. eigenvalues --   -0.35991  -0.35865  -0.35772  -0.35588  -0.35532
 Alpha  occ. eigenvalues --   -0.35058  -0.34961  -0.34851  -0.34662  -0.34631
 Alpha  occ. eigenvalues --   -0.34532  -0.34337  -0.34011  -0.33735  -0.33657
 Alpha  occ. eigenvalues --   -0.33573  -0.33499  -0.33436  -0.33300  -0.32830
 Alpha  occ. eigenvalues --   -0.32312  -0.31952  -0.31887  -0.31340  -0.30508
 Alpha  occ. eigenvalues --   -0.30264  -0.30182  -0.30045  -0.29336  -0.28889
 Alpha  occ. eigenvalues --   -0.28134  -0.28014  -0.27730  -0.27080  -0.26827
 Alpha  occ. eigenvalues --   -0.26747  -0.26657  -0.26577  -0.26461  -0.25984
 Alpha  occ. eigenvalues --   -0.25925  -0.25881  -0.25422  -0.25063  -0.24881
 Alpha  occ. eigenvalues --   -0.24720  -0.24527  -0.24324  -0.23980  -0.23681
 Alpha  occ. eigenvalues --   -0.23521  -0.23418  -0.23030  -0.23019  -0.22653
 Alpha  occ. eigenvalues --   -0.22542  -0.22439  -0.22397  -0.22341  -0.21937
 Alpha  occ. eigenvalues --   -0.21799  -0.21523  -0.20787  -0.20065  -0.19355
 Alpha  occ. eigenvalues --   -0.14635  -0.13879  -0.12221
 Alpha virt. eigenvalues --   -0.11140  -0.07885  -0.03307  -0.02790  -0.02109
 Alpha virt. eigenvalues --   -0.02006  -0.01737  -0.01671  -0.01377  -0.00500
 Alpha virt. eigenvalues --   -0.00142   0.00784   0.00873   0.01047   0.01457

 Mulliken charges:
               1
     1  C    0.054283
     2  C    0.001721
     3  O   -0.310205
     4  H   -0.000551
     5  H    0.024965
     6  H    0.027078
     7  N   -0.133036
     8  C    0.107156
     9  C    0.093290
    10  O   -0.307360
    11  C    0.103470
    12  C    0.052797
    13  O   -0.436186
    14  O   -0.340710
    15  H    0.106983
    16  H   -0.024519
    17  H   -0.000381
    18  H   -0.013294
    19  N   -0.137793
    20  C    0.096489
    21  C    0.122729
    22  O   -0.239551
    23  C    0.078339
    24  C    0.012740
    25  C   -0.062393
    26  C    0.038411
    27  N    0.074071
    28  H    0.106198
    29  H   -0.015887
    30  H   -0.003177
    31  H    0.021178
    32  H    0.026370
    33  H   -0.001690
    34  H    0.028731
    35  H    0.047438
    36  H    0.063818
    37  H    0.073657
    38  H    0.206671
    39  H    0.194700
    40  H    0.182153
    41  N   -0.154877
    42  C    0.080597
    43  C    0.104690
    44  O   -0.284029
    45  C    0.109712
    46  C    0.088495
    47  O   -0.421453
    48  O   -0.436635
    49  H    0.115409
    50  H    0.054098
    51  H    0.019050
    52  H    0.030597
    53  N   -0.155132
    54  C    0.221123
    55  C    0.056539
    56  O   -0.281456
    57  H    0.139781
    58  H    0.004849
    59  H    0.019948
    60  N   -0.133149
    61  C    0.051946
    62  C    0.074534
    63  O   -0.279243
    64  C    0.132573
    65  C    0.023683
    66  N   -0.049524
    67  O   -0.240483
    68  H    0.136117
    69  H   -0.003905
    70  H   -0.013130
    71  H    0.016302
    72  H    0.106337
    73  H    0.137356
    74  N   -0.122895
    75  C    0.227712
    76  C    0.032709
    77  O   -0.257361
    78  H    0.119507
    79  H    0.026769
    80  H    0.018593
    81  N   -0.141478
    82  C    0.101322
    83  C    0.095486
    84  O   -0.293897
    85  C    0.132363
    86  C    0.038831
    87  C   -0.026787
    88  C   -0.033360
    89  C   -0.013640
    90  C   -0.037290
    91  C    0.158079
    92  O   -0.208352
    93  H    0.124213
    94  H    0.004183
    95  H    0.003841
    96  H    0.031446
    97  H   -0.023058
    98  H   -0.049294
    99  H   -0.015297
   100  H   -0.046237
   101  H    0.171287
   102  N   -0.081891
   103  C    0.134634
   104  C    0.052986
   105  O   -0.274205
   106  C   -0.141261
   107  C    0.055716
   108  C    0.113048
   109  C   -0.025586
   110  H    0.120889
   111  H    0.022394
   112  H    0.001433
   113  H   -0.013705
   114  H    0.006327
   115  H   -0.018881
   116  H    0.030438
   117  H   -0.001410
   118  H    0.015528
   119  H    0.018432
   120  H    0.002214
   121  N   -0.112850
   122  C    0.095005
   123  C    0.049174
   124  O   -0.255168
   125  C    0.215517
   126  O   -0.316509
   127  H    0.126682
   128  H    0.013387
   129  H    0.015363
   130  H   -0.001824
   131  H    0.177727
   132  N   -0.111159
   133  C    0.077495
   134  C    0.062614
   135  O   -0.300250
   136  C    0.074456
   137  H    0.121488
   138  H    0.023007
   139  H    0.013481
   140  H   -0.010871
   141  H    0.019626
   142  N   -0.099147
   143  C    0.106386
   144  C    0.065025
   145  O   -0.266079
   146  C    0.043903
   147  H    0.136476
   148  H   -0.017390
   149  H    0.042996
   150  H   -0.004520
   151  H    0.024545
   152  N   -0.148279
   153  C    0.098081
   154  C    0.043428
   155  O   -0.306500
   156  C    0.014220
   157  C    0.120650
   158  C    0.050101
   159  O   -0.360256
   160  O   -0.448341
   161  H    0.117789
   162  H    0.030061
   163  H    0.009424
   164  H    0.022365
   165  H   -0.025162
   166  H   -0.045452
   167  N   -0.122450
   168  C    0.134642
   169  H    0.028756
   170  H    0.011176
   171  H    0.031398
   172  H    0.114533
   173  Ca   1.317723
   174  O   -0.318725
   175  H    0.185806
   176  H    0.212509
 Sum of Mulliken charges =  -0.00000

 Dipole moment (field-independent basis, Debye):
    X=            -11.5070    Y=             15.0787    Z=             16.3711  Tot=             25.0558
 Quadrupole moment (field-independent basis, Debye-Ang):
   XX=           -436.8285   YY=           -629.3440   ZZ=           -441.5377
   XY=            280.1645   XZ=              8.9717   YZ=              9.3522

 ESP charges:
               1
     1  C   -0.459275
     2  C    0.721507
     3  O   -0.586134
     4  H    0.102461
     5  H    0.122876
     6  H    0.123364
     7  N   -0.673058
     8  C    0.473736
     9  C    0.506503
    10  O   -0.516778
    11  C   -0.327309
    12  C    0.767107
    13  O   -0.764028
    14  O   -0.665607
    15  H    0.285151
    16  H   -0.047819
    17  H    0.087312
    18  H    0.057737
    19  N   -0.761686
    20  C    0.484009
    21  C    0.543654
    22  O   -0.456752
    23  C   -0.567537
    24  C    0.357203
    25  C   -0.290498
    26  C    0.206520
    27  N   -0.581121
    28  H    0.326754
    29  H   -0.022830
    30  H    0.145306
    31  H    0.152229
    32  H   -0.012391
    33  H   -0.048795
    34  H    0.106729
    35  H    0.097453
    36  H    0.056485
    37  H    0.050290
    38  H    0.399937
    39  H    0.380585
    40  H    0.370808
    41  N   -0.667745
    42  C    0.381623
    43  C    0.388577
    44  O   -0.513709
    45  C   -0.188086
    46  C    0.628457
    47  O   -0.644764
    48  O   -0.711096
    49  H    0.248898
    50  H    0.017767
    51  H    0.076394
    52  H    0.080446
    53  N   -0.339893
    54  C   -0.107728
    55  C    0.516280
    56  O   -0.519989
    57  H    0.290594
    58  H    0.084278
    59  H    0.110508
    60  N   -0.330232
    61  C    0.299145
    62  C    0.539208
    63  O   -0.497226
    64  C   -0.274843
    65  C    0.678075
    66  N   -0.826352
    67  O   -0.539763
    68  H    0.199398
    69  H   -0.054094
    70  H    0.025585
    71  H    0.095922
    72  H    0.362761
    73  H    0.391702
    74  N   -0.477889
    75  C   -0.041677
    76  C    0.681053
    77  O   -0.544471
    78  H    0.309379
    79  H    0.076309
    80  H    0.085929
    81  N   -0.905934
    82  C    0.589136
    83  C    0.189910
    84  O   -0.468252
    85  C   -0.033919
    86  C   -0.024027
    87  C   -0.156979
    88  C   -0.146580
    89  C   -0.204377
    90  C   -0.314465
    91  C    0.393101
    92  O   -0.564690
    93  H    0.389390
    94  H   -0.027173
    95  H    0.037325
    96  H    0.088415
    97  H    0.124242
    98  H    0.121124
    99  H    0.145749
   100  H    0.144767
   101  H    0.404535
   102  N   -0.422276
   103  C   -0.019673
   104  C    0.466257
   105  O   -0.510285
   106  C    0.235027
   107  C   -0.126197
   108  C   -0.337424
   109  C    0.025329
   110  H    0.324056
   111  H    0.099612
   112  H    0.008512
   113  H    0.024495
   114  H    0.069073
   115  H    0.046643
   116  H    0.091084
   117  H    0.096338
   118  H   -0.071260
   119  H    0.030148
   120  H   -0.009179
   121  N   -0.260475
   122  C   -0.136906
   123  C    0.581536
   124  O   -0.541466
   125  C    0.112696
   126  O   -0.622395
   127  H    0.253457
   128  H    0.102420
   129  H    0.053465
   130  H    0.041494
   131  H    0.435473
   132  N   -0.273826
   133  C    0.074491
   134  C    0.600483
   135  O   -0.548707
   136  C   -0.149214
   137  H    0.232630
   138  H    0.057402
   139  H    0.046323
   140  H    0.024579
   141  H    0.063761
   142  N   -0.636066
   143  C    0.527346
   144  C    0.365768
   145  O   -0.449913
   146  C   -0.389159
   147  H    0.238209
   148  H   -0.035831
   149  H    0.125345
   150  H    0.081866
   151  H    0.113341
   152  N   -0.545592
   153  C   -0.149625
   154  C    0.444712
   155  O   -0.526956
   156  C    0.390323
   157  C   -0.366811
   158  C    0.803906
   159  O   -0.705926
   160  O   -0.843725
   161  H    0.309161
   162  H    0.124269
   163  H   -0.055857
   164  H    0.006997
   165  H    0.089386
   166  H    0.047698
   167  N   -0.304145
   168  C   -0.022170
   169  H    0.066834
   170  H    0.037561
   171  H    0.065247
   172  H    0.262814
   173  Ca   1.512969
   174  O   -0.826197
   175  H    0.436112
   176  H    0.426475
 Sum of ESP charges =  -0.00000

 Normal termination of Gaussian 16 at Tue Sep 17 18:41:49 2019.
