 Gaussian 16, Revision A.03,
 Gaussian 16:  ES64L-G16RevA.03 25-Dec-2016

 ----------------------------------------------------------------------
 #b3lyp/svp scf=(tight,noincore) Test #IOP(5/87=12) Density=Current Pop
 =(MK,readradii) iop(6/33=2) iop(6/42=6)
 ----------------------------------------------------------------------

 -----------------
 Ng-293_loop3_13.0
 -----------------
 Symbolic Z-matrix:
 Charge =  0 Multiplicity = 1

                         Standard orientation:
 ---------------------------------------------------------------------
 Center     Atomic      Atomic             Coordinates (Angstroms)
 Number     Number       Type             X           Y           Z
 ---------------------------------------------------------------------
      1          6           0        7.572978   -2.393251   -6.653854
      2          6           0        7.177347   -2.275415   -5.192180
      3          8           0        7.230331   -1.166107   -4.653451
      4          1           0        6.980678   -3.176063   -7.128261
      5          1           0        7.390814   -1.444023   -7.157880
      6          1           0        8.630286   -2.646033   -6.725258
      7          7           0        6.727566   -3.406603   -4.650782
      8          6           0        6.071576   -3.529679   -3.361662
      9          6           0        6.837209   -3.211592   -2.085368
     10          8           0        7.190387   -4.118522   -1.338144
     11          6           0        4.683454   -2.884579   -3.345448
     12          6           0        3.702162   -3.466510   -4.347558
     13          8           0        3.368545   -2.887879   -5.400784
     14          8           0        3.275705   -4.635432   -4.187385
     15          1           0        6.716701   -4.226785   -5.241784
     16          1           0        5.789440   -4.583773   -3.339641
     17          1           0        4.766696   -1.809692   -3.521771
     18          1           0        4.228840   -3.011883   -2.367021
     19          7           0        7.257857   -1.952076   -1.925137
     20          6           0        8.055294   -1.416454   -0.845227
     21          6           0        7.674047   -2.015573    0.503886
     22          8           0        8.520454   -2.498698    1.255076
     23          6           0        8.111197    0.107139   -0.991304
     24          6           0        6.861481    0.833167   -0.486731
     25          6           0        5.506888    0.611387   -1.138645
     26          6           0        4.485645    1.485758   -0.396597
     27          7           0        3.890998    0.930446    0.823904
     28          1           0        7.299302   -1.342697   -2.731821
     29          1           0        9.053523   -1.782859   -1.089942
     30          1           0        8.309832    0.338274   -2.032131
     31          1           0        9.044769    0.403106   -0.511255
     32          1           0        7.194399    1.871526   -0.629473
     33          1           0        6.888333    0.700732    0.593010
     34          1           0        5.181003   -0.419001   -1.259885
     35          1           0        5.589725    0.994797   -2.159397
     36          1           0        3.760649    1.829885   -1.141552
     37          1           0        5.050648    2.346255   -0.058194
     38          1           0        3.186979    1.487327    1.286010
     39          1           0        3.448008    0.078737    0.534853
     40          1           0        4.612834    0.666774    1.483320
     41          7           0        6.349218   -2.075338    0.622859
     42          6           0        5.462986   -2.857494    1.453718
     43          6           0        4.022070   -2.659121    1.007280
     44          8           0        3.674018   -1.752415    0.251473
     45          6           0        5.583329   -2.585191    2.951606
     46          6           0        5.771234   -1.141259    3.399103
     47          8           0        6.012842   -0.955024    4.610483
     48          8           0        5.504296   -0.089694    2.769536
     49          1           0        5.823839   -1.573331   -0.088525
     50          1           0        5.707706   -3.910185    1.336019
     51          1           0        6.425154   -3.095742    3.421145
     52          1           0        4.732062   -3.007033    3.467741
     53          7           0        3.165048   -3.591176    1.440047
     54          6           0        1.810197   -3.781122    0.973569
     55          6           0        0.865280   -2.918470    1.796468
     56          8           0        1.340580   -2.366010    2.788374
     57          1           0        3.527147   -4.171746    2.184105
     58          1           0        1.522935   -4.834992    1.004173
     59          1           0        1.756195   -3.423688   -0.046688
     60          7           0       -0.372437   -2.701209    1.342755
     61          6           0       -1.300978   -1.785997    1.975998
     62          6           0       -2.754790   -2.230303    2.016282
     63          8           0       -3.614740   -1.377180    2.191115
     64          6           0       -1.081266   -0.341116    1.568634
     65          6           0        0.261595    0.260847    1.958971
     66          7           0        0.585731    0.690034    3.178371
     67          8           0        1.128693    0.323080    1.088816
     68          1           0       -0.787619   -3.344651    0.680406
     69          1           0       -1.125422   -1.785494    3.059548
     70          1           0       -1.728423    0.423814    2.001035
     71          1           0       -1.097174   -0.289709    0.474237
     72          1           0       -0.009650    0.496125    3.969585
     73          1           0        1.576934    0.875313    3.276285
     74          7           0       -3.092102   -3.519797    1.906611
     75          6           0       -4.433852   -4.044292    2.050875
     76          6           0       -5.341533   -3.600110    0.902912
     77          8           0       -4.987442   -3.885515   -0.229680
     78          1           0       -2.368458   -4.219751    1.786185
     79          1           0       -4.847224   -3.578183    2.945283
     80          1           0       -4.451873   -5.126567    2.091582
     81          7           0       -6.409020   -2.841574    1.165957
     82          6           0       -7.136085   -2.032471    0.209594
     83          6           0       -6.440372   -0.875514   -0.488500
     84          8           0       -7.074423   -0.105204   -1.201874
     85          6           0       -7.849474   -2.875656   -0.847059
     86          6           0       -8.664154   -4.032906   -0.324882
     87          6           0       -9.866366   -3.822911    0.372964
     88          6           0       -8.188074   -5.332086   -0.530987
     89          6           0      -10.654286   -4.887371    0.838803
     90          6           0       -8.935754   -6.416019   -0.063905
     91          6           0      -10.139462   -6.179147    0.620696
     92          8           0      -10.977331   -7.251337    0.812226
     93          1           0       -6.617896   -2.616003    2.130524
     94          1           0       -7.984523   -1.595076    0.740007
     95          1           0       -7.128441   -3.299571   -1.547136
     96          1           0       -8.492404   -2.162663   -1.366175
     97          1           0      -10.221348   -2.806330    0.437389
     98          1           0       -7.225761   -5.509712   -1.000139
     99          1           0      -11.567015   -4.684629    1.383525
    100          1           0       -8.574216   -7.428339   -0.112875
    101          1           0      -10.639907   -8.039954    0.381845
    102          7           0       -5.142314   -0.701743   -0.206989
    103          6           0       -4.267943    0.309873   -0.759627
    104          6           0       -4.611497    1.698747   -0.220368
    105          8           0       -3.741889    2.359920    0.328478
    106          6           0       -4.050317    0.324176   -2.272814
    107          6           0       -3.995989   -1.089278   -2.844385
    108          6           0       -2.755193    1.060416   -2.578603
    109          6           0       -2.767948   -1.847589   -2.347416
    110          1           0       -4.706037   -1.253956    0.510732
    111          1           0       -3.319490    0.135411   -0.246793
    112          1           0       -4.853011    0.850974   -2.789308
    113          1           0       -3.927231   -1.068023   -3.934028
    114          1           0       -4.899689   -1.648602   -2.623969
    115          1           0       -2.384718    0.837361   -3.586519
    116          1           0       -3.010919    2.122097   -2.607527
    117          1           0       -1.967383    0.780813   -1.891015
    118          1           0       -2.638124   -2.802830   -2.850863
    119          1           0       -1.885895   -1.287671   -2.662336
    120          1           0       -2.808263   -2.026639   -1.271629
    121          7           0       -5.833661    2.225057   -0.358254
    122          6           0       -6.304537    3.502443    0.142805
    123          6           0       -5.647668    4.647337   -0.613131
    124          8           0       -5.588835    5.711860    0.000164
    125          6           0       -7.818963    3.565648   -0.041095
    126          8           0       -8.106823    3.143740   -1.355527
    127          1           0       -6.523302    1.615374   -0.777637
    128          1           0       -6.169912    3.602999    1.222603
    129          1           0       -8.058169    4.626958    0.033068
    130          1           0       -8.288037    2.963948    0.731321
    131          1           0       -8.946553    3.551966   -1.564826
    132          7           0       -5.057063    4.477872   -1.793879
    133          6           0       -4.121808    5.406401   -2.401195
    134          6           0       -2.940639    5.787746   -1.519144
    135          8           0       -2.097199    6.604171   -1.875456
    136          6           0       -4.810616    6.649227   -2.949856
    137          1           0       -5.142325    3.593786   -2.264542
    138          1           0       -3.661171    4.808954   -3.182393
    139          1           0       -5.355510    6.319070   -3.837655
    140          1           0       -5.449003    7.123744   -2.201728
    141          1           0       -3.975008    7.300578   -3.224992
    142          7           0       -2.730448    5.102236   -0.397050
    143          6           0       -1.526867    5.267649    0.399149
    144          6           0       -0.224254    4.776422   -0.231403
    145          8           0       -0.193931    3.824352   -1.004090
    146          6           0       -1.736763    4.527472    1.714475
    147          1           0       -3.412173    4.422612   -0.075862
    148          1           0       -1.498128    6.336748    0.609861
    149          1           0       -1.588034    3.473719    1.469558
    150          1           0       -0.948793    4.874431    2.397501
    151          1           0       -2.715245    4.781690    2.137022
    152          7           0        0.788026    5.512394    0.249255
    153          6           0        2.194503    5.233111    0.059716
    154          6           0        2.584824    5.012574   -1.390806
    155          8           0        3.730768    4.622479   -1.639877
    156          6           0        2.542134    4.058309    0.973714
    157          6           0        2.254716    4.256991    2.451319
    158          6           0        3.038092    3.347165    3.385685
    159          8           0        3.562002    3.897739    4.383375
    160          8           0        3.103603    2.131042    3.130238
    161          1           0        0.525615    6.195858    0.948553
    162          1           0        2.741368    6.089968    0.445636
    163          1           0        3.623962    3.966514    0.876649
    164          1           0        1.987939    3.179506    0.642243
    165          1           0        1.183476    4.294934    2.649320
    166          1           0        2.463625    5.283500    2.759111
    167          7           0        1.774243    5.422098   -2.363353
    168          6           0        2.085192    5.204788   -3.768162
    169          1           0        1.401153    4.463322   -4.180768
    170          1           0        1.976307    6.142534   -4.314336
    171          1           0        3.110278    4.844894   -3.863016
    172          1           0        0.826878    5.647800   -2.107895
    173         20           0        4.651580    1.113632    5.141642
    174          8           0        4.319753   -0.093580    7.433241
    175          1           0        4.322584    0.105744    8.373487
    176          1           0        4.574941   -1.007776    7.376447
 ---------------------------------------------------------------------

 SCF Done:  E(RB3LYP) =  -5333.47054624     A.U. after   54 cycles

 The electronic state is 1-A.
 Alpha  occ. eigenvalues -- -145.48556 -19.24584 -19.16572 -19.15156 -19.15148
 Alpha  occ. eigenvalues --  -19.13783 -19.13422 -19.12836 -19.12831 -19.12123
 Alpha  occ. eigenvalues --  -19.11436 -19.10771 -19.10768 -19.10608 -19.10375
 Alpha  occ. eigenvalues --  -19.10315 -19.09527 -19.08284 -19.08040 -19.07497
 Alpha  occ. eigenvalues --  -19.07114 -19.06277 -18.97469 -18.97300 -15.54503
 Alpha  occ. eigenvalues --  -14.41711 -14.40745 -14.39495 -14.39328 -14.38704
 Alpha  occ. eigenvalues --  -14.36757 -14.36384 -14.36195 -14.35942 -14.34974
 Alpha  occ. eigenvalues --  -14.33859 -14.33602 -14.33141 -14.32857 -14.31027
 Alpha  occ. eigenvalues --  -12.68136 -12.68049 -12.68011 -10.34280 -10.32448
 Alpha  occ. eigenvalues --  -10.31800 -10.31591 -10.30795 -10.30601 -10.30036
 Alpha  occ. eigenvalues --  -10.29917 -10.28844 -10.28659 -10.28441 -10.28377
 Alpha  occ. eigenvalues --  -10.27911 -10.27234 -10.26779 -10.26583 -10.26420
 Alpha  occ. eigenvalues --  -10.26096 -10.25933 -10.25638 -10.25264 -10.24842
 Alpha  occ. eigenvalues --  -10.24777 -10.24143 -10.24023 -10.23936 -10.23334
 Alpha  occ. eigenvalues --  -10.22365 -10.22345 -10.21987 -10.21418 -10.20378
 Alpha  occ. eigenvalues --  -10.20248 -10.20243 -10.20113 -10.20032 -10.19947
 Alpha  occ. eigenvalues --  -10.19926 -10.19716 -10.19427 -10.19184 -10.19158
 Alpha  occ. eigenvalues --  -10.18904 -10.18900 -10.18429 -10.17669 -10.17660
 Alpha  occ. eigenvalues --  -10.17559 -10.17299 -10.17184 -10.17140 -10.16905
 Alpha  occ. eigenvalues --  -10.15936 -10.12342  -1.91175  -1.18967  -1.18375
 Alpha  occ. eigenvalues --   -1.18107  -1.10448  -1.09026  -1.07127  -1.06895
 Alpha  occ. eigenvalues --   -1.06410  -1.06243  -1.05844  -1.05327  -1.05195
 Alpha  occ. eigenvalues --   -1.04413  -1.03792  -1.03518  -1.03213  -1.02806
 Alpha  occ. eigenvalues --   -1.01357  -1.00841  -1.00377  -0.99546  -0.98621
 Alpha  occ. eigenvalues --   -0.98079  -0.97190  -0.96700  -0.96154  -0.96057
 Alpha  occ. eigenvalues --   -0.95161  -0.94860  -0.93923  -0.93813  -0.93045
 Alpha  occ. eigenvalues --   -0.92276  -0.91887  -0.91651  -0.90931  -0.90102
 Alpha  occ. eigenvalues --   -0.89746  -0.89493  -0.88938  -0.85983  -0.83030
 Alpha  occ. eigenvalues --   -0.82319  -0.81089  -0.80949  -0.80577  -0.80552
 Alpha  occ. eigenvalues --   -0.79506  -0.78539  -0.77899  -0.77112  -0.76334
 Alpha  occ. eigenvalues --   -0.75773  -0.75647  -0.75444  -0.74890  -0.73527
 Alpha  occ. eigenvalues --   -0.73380  -0.73182  -0.71554  -0.70534  -0.70023
 Alpha  occ. eigenvalues --   -0.68958  -0.68928  -0.67625  -0.67268  -0.66424
 Alpha  occ. eigenvalues --   -0.65440  -0.65183  -0.64406  -0.64214  -0.64140
 Alpha  occ. eigenvalues --   -0.63713  -0.63167  -0.63020  -0.62853  -0.62382
 Alpha  occ. eigenvalues --   -0.62275  -0.61248  -0.61139  -0.60620  -0.60144
 Alpha  occ. eigenvalues --   -0.59922  -0.59569  -0.59491  -0.59242  -0.59152
 Alpha  occ. eigenvalues --   -0.58063  -0.57852  -0.57649  -0.57086  -0.56939
 Alpha  occ. eigenvalues --   -0.56901  -0.56654  -0.56199  -0.55794  -0.55594
 Alpha  occ. eigenvalues --   -0.55569  -0.55358  -0.54884  -0.54361  -0.54237
 Alpha  occ. eigenvalues --   -0.53960  -0.53751  -0.53439  -0.53285  -0.52806
 Alpha  occ. eigenvalues --   -0.52633  -0.51948  -0.51693  -0.51218  -0.51043
 Alpha  occ. eigenvalues --   -0.50680  -0.50472  -0.50194  -0.50098  -0.49665
 Alpha  occ. eigenvalues --   -0.49342  -0.49239  -0.48922  -0.48677  -0.48607
 Alpha  occ. eigenvalues --   -0.48487  -0.48224  -0.48091  -0.47819  -0.47492
 Alpha  occ. eigenvalues --   -0.47375  -0.47108  -0.47015  -0.46835  -0.46506
 Alpha  occ. eigenvalues --   -0.46459  -0.46346  -0.45883  -0.45693  -0.45630
 Alpha  occ. eigenvalues --   -0.45487  -0.45156  -0.44977  -0.44846  -0.44744
 Alpha  occ. eigenvalues --   -0.44679  -0.44133  -0.44023  -0.43989  -0.43952
 Alpha  occ. eigenvalues --   -0.43880  -0.43753  -0.43724  -0.43534  -0.43436
 Alpha  occ. eigenvalues --   -0.43375  -0.43152  -0.42814  -0.42707  -0.42194
 Alpha  occ. eigenvalues --   -0.42135  -0.42043  -0.41951  -0.41894  -0.41818
 Alpha  occ. eigenvalues --   -0.41676  -0.41614  -0.41515  -0.41236  -0.41182
 Alpha  occ. eigenvalues --   -0.40830  -0.40706  -0.40587  -0.40498  -0.40302
 Alpha  occ. eigenvalues --   -0.40172  -0.40012  -0.39849  -0.39742  -0.39617
 Alpha  occ. eigenvalues --   -0.39577  -0.39492  -0.39421  -0.39004  -0.38944
 Alpha  occ. eigenvalues --   -0.38865  -0.38452  -0.38227  -0.38141  -0.38125
 Alpha  occ. eigenvalues --   -0.37956  -0.37334  -0.37294  -0.37206  -0.36964
 Alpha  occ. eigenvalues --   -0.36792  -0.36757  -0.36550  -0.36461  -0.36410
 Alpha  occ. eigenvalues --   -0.36232  -0.35935  -0.35916  -0.35762  -0.35442
 Alpha  occ. eigenvalues --   -0.35300  -0.35056  -0.34820  -0.34587  -0.34536
 Alpha  occ. eigenvalues --   -0.34160  -0.33915  -0.33767  -0.33512  -0.33398
 Alpha  occ. eigenvalues --   -0.33181  -0.33037  -0.32756  -0.32695  -0.32180
 Alpha  occ. eigenvalues --   -0.31713  -0.31446  -0.31252  -0.31031  -0.30995
 Alpha  occ. eigenvalues --   -0.30579  -0.29901  -0.29881  -0.29749  -0.29456
 Alpha  occ. eigenvalues --   -0.29240  -0.29131  -0.29098  -0.28760  -0.28294
 Alpha  occ. eigenvalues --   -0.28250  -0.28138  -0.28011  -0.27896  -0.27569
 Alpha  occ. eigenvalues --   -0.27436  -0.27317  -0.27072  -0.26866  -0.26238
 Alpha  occ. eigenvalues --   -0.26082  -0.25974  -0.25339  -0.24744  -0.24542
 Alpha  occ. eigenvalues --   -0.24344  -0.24166  -0.23901  -0.23750  -0.23544
 Alpha  occ. eigenvalues --   -0.23453  -0.23102  -0.22787  -0.22091  -0.20719
 Alpha  occ. eigenvalues --   -0.15392  -0.14424  -0.11086
 Alpha virt. eigenvalues --   -0.10208  -0.03948  -0.03592  -0.03001  -0.02837
 Alpha virt. eigenvalues --   -0.02241  -0.02016  -0.01639  -0.01444  -0.00263
 Alpha virt. eigenvalues --   -0.00152   0.00232   0.00513   0.00564   0.00983

 Mulliken charges:
               1
     1  C    0.042358
     2  C    0.065107
     3  O   -0.320375
     4  H    0.023091
     5  H    0.036401
     6  H    0.027906
     7  N   -0.104229
     8  C    0.105801
     9  C    0.057907
    10  O   -0.269082
    11  C    0.088874
    12  C   -0.006587
    13  O   -0.325788
    14  O   -0.363117
    15  H    0.134357
    16  H   -0.015434
    17  H   -0.006284
    18  H   -0.031994
    19  N   -0.161492
    20  C    0.051451
    21  C    0.087364
    22  O   -0.254746
    23  C    0.084368
    24  C   -0.060045
    25  C   -0.005003
    26  C    0.056152
    27  N    0.061110
    28  H    0.136969
    29  H   -0.001188
    30  H    0.006271
    31  H   -0.001613
    32  H    0.005822
    33  H    0.013741
    34  H    0.056131
    35  H    0.031317
    36  H    0.061222
    37  H    0.020974
    38  H    0.167078
    39  H    0.162131
    40  H    0.132577
    41  N   -0.159192
    42  C    0.135815
    43  C    0.091242
    44  O   -0.302495
    45  C    0.058895
    46  C    0.141376
    47  O   -0.471279
    48  O   -0.405558
    49  H    0.159208
    50  H    0.031321
    51  H    0.046848
    52  H   -0.004630
    53  N   -0.108432
    54  C    0.212070
    55  C    0.046409
    56  O   -0.293890
    57  H    0.121059
    58  H    0.040619
    59  H    0.072052
    60  N   -0.128199
    61  C    0.093476
    62  C    0.054898
    63  O   -0.294264
    64  C    0.151383
    65  C   -0.021074
    66  N   -0.030003
    67  O   -0.297788
    68  H    0.131846
    69  H    0.022781
    70  H    0.039236
    71  H    0.042524
    72  H    0.102991
    73  H    0.125915
    74  N   -0.116133
    75  C    0.240339
    76  C    0.003705
    77  O   -0.264384
    78  H    0.115187
    79  H   -0.005576
    80  H    0.044570
    81  N   -0.104364
    82  C    0.093080
    83  C    0.109803
    84  O   -0.295380
    85  C    0.120380
    86  C   -0.021832
    87  C   -0.027341
    88  C   -0.010142
    89  C   -0.012516
    90  C   -0.038350
    91  C    0.171310
    92  O   -0.214409
    93  H    0.131346
    94  H    0.007916
    95  H    0.012709
    96  H    0.020656
    97  H   -0.029126
    98  H   -0.011955
    99  H   -0.017781
   100  H   -0.036658
   101  H    0.170389
   102  N   -0.128114
   103  C    0.175852
   104  C    0.028980
   105  O   -0.283652
   106  C   -0.115946
   107  C    0.055796
   108  C    0.084333
   109  C   -0.005701
   110  H    0.144199
   111  H   -0.020798
   112  H   -0.008188
   113  H   -0.000066
   114  H    0.001797
   115  H    0.014087
   116  H   -0.007299
   117  H    0.034571
   118  H    0.015037
   119  H    0.018925
   120  H   -0.023736
   121  N   -0.141283
   122  C    0.132722
   123  C    0.028659
   124  O   -0.288912
   125  C    0.202492
   126  O   -0.296837
   127  H    0.147150
   128  H    0.013936
   129  H    0.014734
   130  H    0.003312
   131  H    0.166102
   132  N   -0.115751
   133  C    0.063673
   134  C    0.063916
   135  O   -0.304631
   136  C    0.080988
   137  H    0.124721
   138  H    0.024657
   139  H   -0.003103
   140  H    0.033589
   141  H    0.031957
   142  N   -0.110343
   143  C    0.043367
   144  C    0.073568
   145  O   -0.262608
   146  C    0.064623
   147  H    0.144516
   148  H   -0.006871
   149  H    0.037403
   150  H   -0.006941
   151  H    0.034907
   152  N   -0.155600
   153  C    0.127948
   154  C    0.069114
   155  O   -0.305681
   156  C   -0.044360
   157  C    0.091240
   158  C    0.117049
   159  O   -0.365185
   160  O   -0.454529
   161  H    0.128670
   162  H    0.016273
   163  H    0.029082
   164  H    0.047797
   165  H   -0.001745
   166  H   -0.023939
   167  N   -0.118213
   168  C    0.120507
   169  H    0.031770
   170  H    0.021280
   171  H    0.048180
   172  H    0.124928
   173  Ca   1.221820
   174  O   -0.316830
   175  H    0.190361
   176  H    0.196168
 Sum of Mulliken charges =  -0.00000

 Dipole moment (field-independent basis, Debye):
    X=            -12.3537    Y=              0.4531    Z=             28.9648  Tot=             31.4925
 Quadrupole moment (field-independent basis, Debye-Ang):
   XX=           -578.9178   YY=           -582.2878   ZZ=           -494.1248
   XY=             66.0802   XZ=             65.9708   YZ=            -53.1293

 ESP charges:
               1
     1  C   -0.419646
     2  C    0.732318
     3  O   -0.567606
     4  H    0.109964
     5  H    0.132203
     6  H    0.093488
     7  N   -0.735761
     8  C    0.665360
     9  C   -0.002083
    10  O   -0.481894
    11  C   -0.438518
    12  C    0.754404
    13  O   -0.639333
    14  O   -0.673716
    15  H    0.371894
    16  H   -0.051091
    17  H    0.064051
    18  H    0.069236
    19  N    0.215864
    20  C    0.027478
    21  C    0.410374
    22  O   -0.536734
    23  C   -0.209998
    24  C    0.050701
    25  C    0.007245
    26  C   -0.129573
    27  N    0.387593
    28  H    0.010455
    29  H    0.026235
    30  H    0.091837
    31  H    0.065590
    32  H    0.011311
    33  H   -0.019755
    34  H   -0.034505
    35  H    0.073842
    36  H    0.086211
    37  H    0.023875
    38  H   -0.043369
    39  H    0.110835
    40  H    0.125379
    41  N    0.037144
    42  C   -0.002160
    43  C    0.443548
    44  O   -0.360372
    45  C   -0.345783
    46  C    0.856575
    47  O   -0.779704
    48  O   -0.726479
    49  H    0.040866
    50  H    0.068537
    51  H    0.133718
    52  H    0.077819
    53  N   -0.488155
    54  C    0.042825
    55  C    0.551813
    56  O   -0.520535
    57  H    0.335642
    58  H    0.068746
    59  H    0.096723
    60  N   -0.592926
    61  C    0.114733
    62  C    0.552092
    63  O   -0.516937
    64  C   -0.138503
    65  C    0.835356
    66  N   -0.991103
    67  O   -0.644376
    68  H    0.297966
    69  H    0.040983
    70  H    0.058662
    71  H    0.102903
    72  H    0.388125
    73  H    0.464115
    74  N   -0.374613
    75  C   -0.211547
    76  C    0.690016
    77  O   -0.527767
    78  H    0.299276
    79  H    0.081024
    80  H    0.147830
    81  N   -0.727381
    82  C    0.256217
    83  C    0.407646
    84  O   -0.501715
    85  C   -0.215647
    86  C    0.161897
    87  C   -0.252104
    88  C   -0.196318
    89  C   -0.159887
    90  C   -0.247785
    91  C    0.295989
    92  O   -0.545166
    93  H    0.369220
    94  H    0.058238
    95  H    0.096848
    96  H    0.076579
    97  H    0.145674
    98  H    0.164760
    99  H    0.150282
   100  H    0.129898
   101  H    0.408988
   102  N   -0.415828
   103  C   -0.324890
   104  C    0.710245
   105  O   -0.594509
   106  C    0.208529
   107  C   -0.047111
   108  C   -0.192148
   109  C   -0.024387
   110  H    0.330030
   111  H    0.086150
   112  H   -0.007929
   113  H    0.014192
   114  H    0.047899
   115  H    0.081592
   116  H    0.006541
   117  H    0.067300
   118  H    0.030964
   119  H    0.029354
   120  H   -0.027765
   121  N   -0.345886
   122  C   -0.115560
   123  C    0.770252
   124  O   -0.597627
   125  C    0.055780
   126  O   -0.625381
   127  H    0.321100
   128  H    0.099853
   129  H    0.044742
   130  H    0.070599
   131  H    0.435881
   132  N   -0.615408
   133  C    0.341319
   134  C    0.513861
   135  O   -0.576071
   136  C   -0.395623
   137  H    0.315879
   138  H    0.038046
   139  H    0.081872
   140  H    0.139352
   141  H    0.092355
   142  N   -0.413536
   143  C    0.403205
   144  C    0.282517
   145  O   -0.450265
   146  C   -0.383098
   147  H    0.174948
   148  H   -0.009722
   149  H    0.144820
   150  H    0.057792
   151  H    0.123641
   152  N   -0.531361
   153  C   -0.299605
   154  C    0.545829
   155  O   -0.533675
   156  C    0.099040
   157  C    0.012570
   158  C    0.621553
   159  O   -0.700347
   160  O   -0.681838
   161  H    0.353466
   162  H    0.175001
   163  H    0.017259
   164  H    0.137306
   165  H    0.009923
   166  H    0.024060
   167  N   -0.295960
   168  C   -0.053127
   169  H    0.067790
   170  H    0.044819
   171  H    0.082476
   172  H    0.303353
   173  Ca   1.415592
   174  O   -0.843136
   175  H    0.424013
   176  H    0.430657
 Sum of ESP charges =  -0.00000

 Normal termination of Gaussian 16 at Tue Sep 17 00:15:00 2019.
