 Gaussian 16, Revision A.03,
 Gaussian 16:  ES64L-G16RevA.03 25-Dec-2016

 ----------------------------------------------------------------------
 #b3lyp/svp scf=(tight,noincore) Test #IOP(5/87=12) Density=Current Pop
 =(MK,readradii) iop(6/33=2) iop(6/42=6)
 ----------------------------------------------------------------------

 -----------------
 Ng-295_loop3_35.0
 -----------------
 Symbolic Z-matrix:
 Charge =  0 Multiplicity = 1

                         Standard orientation:
 ---------------------------------------------------------------------
 Center     Atomic      Atomic             Coordinates (Angstroms)
 Number     Number       Type             X           Y           Z
 ---------------------------------------------------------------------
      1          6           0       10.117528   -5.046729    4.362221
      2          6           0        9.843772   -4.577487    2.935838
      3          8           0        9.561262   -5.384912    2.053369
      4          1           0        9.204885   -4.964622    4.952378
      5          1           0       10.447038   -6.085421    4.347090
      6          1           0       10.894507   -4.425197    4.807036
      7          7           0        9.791057   -3.266440    2.718175
      8          6           0        9.279256   -2.620331    1.522558
      9          6           0       10.192264   -1.574596    0.904534
     10          8           0       10.677623   -0.698595    1.607421
     11          6           0        7.862210   -2.164459    1.841714
     12          6           0        7.165538   -1.502196    0.662284
     13          8           0        5.917193   -1.486512    0.555091
     14          8           0        7.809097   -0.970814   -0.271078
     15          1           0        9.996942   -2.683228    3.511444
     16          1           0        9.080326   -3.375742    0.770507
     17          1           0        7.858602   -1.424941    2.644024
     18          1           0        7.308093   -3.008372    2.242794
     19          7           0       10.641266   -1.732172   -0.346293
     20          6           0       11.505091   -0.851905   -1.101434
     21          6           0       11.118132    0.611739   -1.260832
     22          8           0       11.884392    1.401842   -1.810908
     23          6           0       11.795802   -1.477496   -2.463646
     24          6           0       11.994723   -2.982936   -2.532052
     25          6           0       13.096798   -3.480320   -1.600741
     26          6           0       13.110618   -4.994190   -1.476619
     27          7           0       14.258978   -5.532400   -0.735810
     28          1           0       10.085009   -2.386988   -0.874965
     29          1           0       12.403018   -0.786965   -0.486690
     30          1           0       12.580488   -0.988359   -3.046582
     31          1           0       10.861228   -1.410493   -3.023183
     32          1           0       12.406324   -3.383261   -3.461204
     33          1           0       11.058150   -3.501351   -2.307826
     34          1           0       12.902318   -3.042400   -0.626367
     35          1           0       14.106666   -3.225793   -1.935379
     36          1           0       13.219364   -5.357126   -2.504165
     37          1           0       12.178582   -5.369255   -1.059442
     38          1           0       14.279592   -6.526754   -0.941320
     39          1           0       15.052671   -5.097713   -1.186253
     40          1           0       14.179427   -5.358701    0.258022
     41          7           0        9.887823    0.992395   -0.933203
     42          6           0        9.464249    2.374849   -0.935543
     43          6           0        8.683278    2.787149    0.297621
     44          8           0        8.545541    3.971696    0.606616
     45          6           0        8.737357    2.627240   -2.254947
     46          6           0        7.663899    1.575433   -2.462526
     47          8           0        7.719938    0.714670   -3.360494
     48          8           0        6.789929    1.435518   -1.579803
     49          1           0        9.282027    0.270463   -0.564522
     50          1           0       10.291441    3.092320   -0.853154
     51          1           0        9.409573    2.538864   -3.113618
     52          1           0        8.215396    3.577646   -2.177576
     53          7           0        8.183168    1.810164    1.065273
     54          6           0        7.433276    2.054575    2.271103
     55          6           0        6.114201    2.742294    1.958082
     56          8           0        5.553113    3.464099    2.780443
     57          1           0        8.229718    0.853575    0.741436
     58          1           0        8.002820    2.633585    3.002449
     59          1           0        6.976918    1.143886    2.663001
     60          7           0        5.553966    2.475759    0.774107
     61          6           0        4.245368    2.949681    0.374019
     62          6           0        3.366740    1.711274    0.341431
     63          8           0        3.775259    0.572198    0.145175
     64          6           0        4.311608    3.832340   -0.874630
     65          6           0        3.060037    4.609804   -1.241401
     66          7           0        3.038935    5.417259   -2.306704
     67          8           0        2.050832    4.660473   -0.548913
     68          1           0        6.020373    1.810376    0.167042
     69          1           0        3.836964    3.549272    1.184080
     70          1           0        4.665920    3.317024   -1.762612
     71          1           0        5.041643    4.620838   -0.687763
     72          1           0        3.825187    5.481601   -2.942052
     73          1           0        2.158020    5.492137   -2.798724
     74          7           0        2.071024    1.967706    0.571131
     75          6           0        1.114596    1.009465    1.081640
     76          6           0       -0.205257    1.574638    1.586287
     77          8           0       -0.723910    1.062955    2.573597
     78          1           0        1.781285    2.934055    0.510957
     79          1           0        1.564050    0.502818    1.938786
     80          1           0        0.986391    0.289724    0.267738
     81          7           0       -0.775838    2.537948    0.866934
     82          6           0       -2.151565    2.921300    1.118759
     83          6           0       -3.037578    1.948437    0.372356
     84          8           0       -2.587063    1.478090   -0.678791
     85          6           0       -2.287972    4.365369    0.621810
     86          6           0       -3.512724    5.095021    1.127963
     87          6           0       -4.263941    5.832598    0.214150
     88          6           0       -3.733329    5.297664    2.489715
     89          6           0       -5.281540    6.730085    0.583485
     90          6           0       -4.607817    6.303462    2.908929
     91          6           0       -5.333483    7.038230    1.949958
     92          8           0       -6.200608    8.033019    2.309804
     93          1           0       -0.325979    2.902585    0.031430
     94          1           0       -2.489133    2.997569    2.154245
     95          1           0       -2.271374    4.306181   -0.470125
     96          1           0       -1.377249    4.893622    0.889454
     97          1           0       -4.092272    5.568286   -0.817145
     98          1           0       -3.069303    4.855324    3.225109
     99          1           0       -5.760303    7.237051   -0.250405
    100          1           0       -4.777187    6.416561    3.975288
    101          1           0       -6.510023    7.967742    3.215012
    102          7           0       -4.195738    1.609733    0.938347
    103          6           0       -5.174940    0.633859    0.495928
    104          6           0       -5.789618    0.945802   -0.867767
    105          8           0       -5.188444    1.476781   -1.802941
    106          6           0       -4.691256   -0.808662    0.540444
    107          6           0       -4.250361   -1.273793    1.919416
    108          6           0       -3.800283   -1.315851   -0.595790
    109          6           0       -5.207200   -1.293250    3.113142
    110          1           0       -4.508258    2.161406    1.723705
    111          1           0       -5.978225    0.702544    1.224087
    112          1           0       -5.614910   -1.361851    0.360041
    113          1           0       -3.443774   -0.622929    2.277738
    114          1           0       -3.778157   -2.253797    1.908740
    115          1           0       -4.112975   -0.877697   -1.546234
    116          1           0       -2.751950   -1.120802   -0.382356
    117          1           0       -3.843791   -2.397828   -0.661619
    118          1           0       -4.592965   -1.198799    4.010636
    119          1           0       -5.864077   -0.433330    3.000224
    120          1           0       -5.832118   -2.180232    3.193391
    121          7           0       -7.025283    0.487967   -1.055699
    122          6           0       -7.637824    0.218546   -2.339952
    123          6           0       -9.132235    0.510373   -2.326743
    124          8           0       -9.620273    0.866878   -3.406753
    125          6           0       -7.380503   -1.251209   -2.623336
    126          8           0       -8.003402   -2.182457   -1.753064
    127          1           0       -7.480961   -0.037115   -0.324231
    128          1           0       -7.132389    0.773228   -3.138115
    129          1           0       -6.324821   -1.500836   -2.648249
    130          1           0       -7.827705   -1.490262   -3.587838
    131          1           0       -8.147869   -3.042474   -2.155556
    132          7           0       -9.913683    0.420335   -1.246404
    133          6           0      -11.345734    0.633605   -1.239528
    134          6           0      -12.136657    0.139465   -2.440222
    135          8           0      -12.787019    0.880324   -3.175380
    136          6           0      -11.735708    2.054096   -0.877554
    137          1           0       -9.510267    0.059507   -0.393375
    138          1           0      -11.719365    0.018941   -0.420633
    139          1           0      -11.315315    2.756316   -1.595716
    140          1           0      -12.823072    2.093405   -0.782195
    141          1           0      -11.358335    2.234001    0.133051
    142          7           0      -11.980901   -1.133282   -2.819900
    143          6           0      -11.424245   -2.206560   -2.026295
    144          6           0      -12.370541   -2.492128   -0.854342
    145          8           0      -13.586250   -2.382122   -0.973295
    146          6           0      -11.254857   -3.340416   -3.031372
    147          1           0      -12.437267   -1.354575   -3.684399
    148          1           0      -10.453830   -1.939770   -1.606750
    149          1           0      -11.057706   -4.305523   -2.571916
    150          1           0      -12.202541   -3.434956   -3.579420
    151          1           0      -10.500269   -3.032025   -3.752961
    152          7           0      -11.910762   -2.855802    0.336348
    153          6           0      -10.559944   -3.032260    0.841474
    154          6           0      -10.530183   -2.653244    2.322846
    155          8           0       -9.523261   -2.100722    2.762990
    156          6           0      -10.013653   -4.448345    0.685039
    157          6           0       -8.507188   -4.591841    0.908584
    158          6           0       -8.165544   -6.049050    0.636699
    159          8           0       -8.262887   -6.526403   -0.511411
    160          8           0       -7.765879   -6.746118    1.597097
    161          1           0      -12.610850   -3.087277    1.035274
    162          1           0       -9.875090   -2.321253    0.391982
    163          1           0      -10.131241   -4.698392   -0.371299
    164          1           0      -10.612604   -5.137934    1.272596
    165          1           0       -8.323009   -4.308982    1.945198
    166          1           0       -7.913510   -3.965927    0.237854
    167          7           0      -11.584619   -2.922492    3.096001
    168          6           0      -11.725460   -2.577808    4.491837
    169          1           0      -12.432808   -3.258995    4.964171
    170          1           0      -10.757776   -2.659776    4.986667
    171          1           0      -12.093300   -1.555006    4.579275
    172          1           0      -12.201753   -3.598389    2.671491
    173         20           0        5.719483   -0.765655   -1.932977
    174          8           0        4.928884   -3.350931   -2.124293
    175          1           0        4.064755   -3.514073   -2.514505
    176          1           0        5.240812   -4.222294   -1.886960
 ---------------------------------------------------------------------

 SCF Done:  E(RB3LYP) =  -5333.34523084     A.U. after   67 cycles

 The electronic state is 1-A.
 Alpha  occ. eigenvalues -- -145.47532 -19.24982 -19.15156 -19.13337 -19.12848
 Alpha  occ. eigenvalues --  -19.12735 -19.12733 -19.12142 -19.12112 -19.11089
 Alpha  occ. eigenvalues --  -19.10478 -19.10403 -19.10116 -19.09080 -19.08878
 Alpha  occ. eigenvalues --  -19.07413 -19.07325 -19.07177 -19.07143 -19.07139
 Alpha  occ. eigenvalues --  -19.05975 -19.05088 -18.97796 -18.97781 -15.53410
 Alpha  occ. eigenvalues --  -14.57495 -14.39927 -14.39538 -14.36855 -14.35848
 Alpha  occ. eigenvalues --  -14.35390 -14.35085 -14.34959 -14.34752 -14.34387
 Alpha  occ. eigenvalues --  -14.34283 -14.34130 -14.33248 -14.33057 -14.30919
 Alpha  occ. eigenvalues --  -12.67027 -12.66976 -12.66926 -10.35196 -10.32384
 Alpha  occ. eigenvalues --  -10.32084 -10.31297 -10.31089 -10.29657 -10.29630
 Alpha  occ. eigenvalues --  -10.28913 -10.28416 -10.27973 -10.27906 -10.27661
 Alpha  occ. eigenvalues --  -10.27573 -10.26909 -10.26668 -10.26568 -10.26515
 Alpha  occ. eigenvalues --  -10.26250 -10.25828 -10.25226 -10.24845 -10.24760
 Alpha  occ. eigenvalues --  -10.24323 -10.23898 -10.23881 -10.22978 -10.22777
 Alpha  occ. eigenvalues --  -10.22630 -10.22533 -10.22435 -10.22360 -10.22313
 Alpha  occ. eigenvalues --  -10.22165 -10.22015 -10.21250 -10.21106 -10.20784
 Alpha  occ. eigenvalues --  -10.20435 -10.19491 -10.18873 -10.18831 -10.18637
 Alpha  occ. eigenvalues --  -10.18319 -10.18301 -10.18105 -10.17127 -10.17035
 Alpha  occ. eigenvalues --  -10.16711 -10.15330 -10.15087 -10.14826 -10.14514
 Alpha  occ. eigenvalues --  -10.14489 -10.11084  -1.90142  -1.17706  -1.17336
 Alpha  occ. eigenvalues --   -1.17104  -1.13289  -1.10744  -1.07786  -1.07063
 Alpha  occ. eigenvalues --   -1.05917  -1.05777  -1.05514  -1.04611  -1.03790
 Alpha  occ. eigenvalues --   -1.03766  -1.02182  -1.02139  -1.01587  -1.00679
 Alpha  occ. eigenvalues --   -1.00557  -1.00388  -1.00190  -0.99784  -0.99551
 Alpha  occ. eigenvalues --   -0.98035  -0.96945  -0.96185  -0.95962  -0.94551
 Alpha  occ. eigenvalues --   -0.93304  -0.92990  -0.92049  -0.91781  -0.91615
 Alpha  occ. eigenvalues --   -0.91504  -0.91290  -0.90930  -0.90794  -0.90329
 Alpha  occ. eigenvalues --   -0.90181  -0.90125  -0.89032  -0.88334  -0.84668
 Alpha  occ. eigenvalues --   -0.84350  -0.82521  -0.81861  -0.80007  -0.79774
 Alpha  occ. eigenvalues --   -0.79330  -0.78065  -0.77502  -0.76466  -0.76406
 Alpha  occ. eigenvalues --   -0.75460  -0.74575  -0.74372  -0.74025  -0.73978
 Alpha  occ. eigenvalues --   -0.73632  -0.73569  -0.73467  -0.72224  -0.71151
 Alpha  occ. eigenvalues --   -0.70961  -0.70638  -0.69796  -0.68899  -0.68441
 Alpha  occ. eigenvalues --   -0.67097  -0.66088  -0.65234  -0.64991  -0.64312
 Alpha  occ. eigenvalues --   -0.64140  -0.63907  -0.63895  -0.62557  -0.62508
 Alpha  occ. eigenvalues --   -0.61656  -0.61478  -0.61292  -0.60720  -0.60623
 Alpha  occ. eigenvalues --   -0.60095  -0.59573  -0.59070  -0.59053  -0.58710
 Alpha  occ. eigenvalues --   -0.58469  -0.58418  -0.58095  -0.57821  -0.57506
 Alpha  occ. eigenvalues --   -0.57466  -0.57334  -0.57219  -0.56084  -0.55812
 Alpha  occ. eigenvalues --   -0.55146  -0.54986  -0.54541  -0.54433  -0.54215
 Alpha  occ. eigenvalues --   -0.53930  -0.53164  -0.53057  -0.52790  -0.52217
 Alpha  occ. eigenvalues --   -0.51934  -0.51843  -0.51632  -0.51331  -0.51080
 Alpha  occ. eigenvalues --   -0.50607  -0.50408  -0.50043  -0.49909  -0.49745
 Alpha  occ. eigenvalues --   -0.49701  -0.49440  -0.49273  -0.48945  -0.48637
 Alpha  occ. eigenvalues --   -0.48244  -0.48122  -0.47968  -0.47830  -0.47709
 Alpha  occ. eigenvalues --   -0.47154  -0.46979  -0.46498  -0.46402  -0.46237
 Alpha  occ. eigenvalues --   -0.46117  -0.46010  -0.45984  -0.45795  -0.45576
 Alpha  occ. eigenvalues --   -0.45530  -0.45306  -0.44987  -0.44892  -0.44824
 Alpha  occ. eigenvalues --   -0.44657  -0.44570  -0.44234  -0.44171  -0.43939
 Alpha  occ. eigenvalues --   -0.43740  -0.43586  -0.43524  -0.43303  -0.43165
 Alpha  occ. eigenvalues --   -0.43025  -0.42907  -0.42455  -0.42404  -0.42174
 Alpha  occ. eigenvalues --   -0.42066  -0.41935  -0.41824  -0.41552  -0.41373
 Alpha  occ. eigenvalues --   -0.41230  -0.41116  -0.40959  -0.40872  -0.40723
 Alpha  occ. eigenvalues --   -0.40662  -0.40483  -0.40374  -0.40260  -0.40032
 Alpha  occ. eigenvalues --   -0.39923  -0.39814  -0.39343  -0.39215  -0.39117
 Alpha  occ. eigenvalues --   -0.39047  -0.38928  -0.38765  -0.38650  -0.38621
 Alpha  occ. eigenvalues --   -0.38398  -0.38183  -0.37952  -0.37901  -0.37752
 Alpha  occ. eigenvalues --   -0.37685  -0.37229  -0.37187  -0.36735  -0.36648
 Alpha  occ. eigenvalues --   -0.36571  -0.36503  -0.36041  -0.35905  -0.35859
 Alpha  occ. eigenvalues --   -0.35719  -0.35515  -0.35135  -0.35098  -0.34991
 Alpha  occ. eigenvalues --   -0.34797  -0.34681  -0.34217  -0.33849  -0.33721
 Alpha  occ. eigenvalues --   -0.33192  -0.33020  -0.32926  -0.32597  -0.32359
 Alpha  occ. eigenvalues --   -0.32090  -0.32039  -0.31801  -0.31711  -0.31521
 Alpha  occ. eigenvalues --   -0.30673  -0.30165  -0.29813  -0.29799  -0.29650
 Alpha  occ. eigenvalues --   -0.29113  -0.28904  -0.28793  -0.28531  -0.28183
 Alpha  occ. eigenvalues --   -0.27922  -0.27850  -0.27810  -0.27584  -0.27573
 Alpha  occ. eigenvalues --   -0.27161  -0.27041  -0.26877  -0.26682  -0.26311
 Alpha  occ. eigenvalues --   -0.26171  -0.25503  -0.25474  -0.25385  -0.25300
 Alpha  occ. eigenvalues --   -0.24632  -0.24565  -0.24431  -0.24410  -0.24084
 Alpha  occ. eigenvalues --   -0.23942  -0.23497  -0.22746  -0.22621  -0.22169
 Alpha  occ. eigenvalues --   -0.21994  -0.21428  -0.21337  -0.21133  -0.20942
 Alpha  occ. eigenvalues --   -0.14763  -0.14742  -0.11724
 Alpha virt. eigenvalues --   -0.11243  -0.10960  -0.05048  -0.04643  -0.04114
 Alpha virt. eigenvalues --   -0.03247  -0.02821  -0.01558  -0.01155  -0.01029
 Alpha virt. eigenvalues --   -0.00799  -0.00467  -0.00096   0.00280   0.00354

 Mulliken charges:
               1
     1  C    0.050017
     2  C   -0.009692
     3  O   -0.301726
     4  H    0.057766
     5  H    0.031695
     6  H    0.016211
     7  N   -0.111813
     8  C    0.124862
     9  C    0.060521
    10  O   -0.264690
    11  C    0.102149
    12  C    0.080377
    13  O   -0.384989
    14  O   -0.449164
    15  H    0.121856
    16  H   -0.024809
    17  H    0.024447
    18  H    0.029509
    19  N   -0.139626
    20  C    0.126318
    21  C    0.071236
    22  O   -0.289047
    23  C    0.084348
    24  C   -0.005431
    25  C   -0.032133
    26  C    0.002146
    27  N    0.157455
    28  H    0.108313
    29  H    0.016946
    30  H    0.040454
    31  H    0.015180
    32  H    0.011265
    33  H   -0.001624
    34  H    0.032787
    35  H    0.007997
    36  H    0.035679
    37  H    0.071148
    38  H    0.120429
    39  H    0.118638
    40  H    0.140291
    41  N   -0.155419
    42  C    0.085547
    43  C    0.072314
    44  O   -0.272582
    45  C    0.189378
    46  C    0.065109
    47  O   -0.391488
    48  O   -0.476021
    49  H    0.176250
    50  H    0.042161
    51  H    0.016044
    52  H    0.011461
    53  N   -0.172992
    54  C    0.233141
    55  C   -0.001681
    56  O   -0.283623
    57  H    0.116569
    58  H    0.036567
    59  H    0.033969
    60  N   -0.147095
    61  C    0.094293
    62  C    0.078033
    63  O   -0.314910
    64  C    0.110727
    65  C    0.001324
    66  N   -0.039771
    67  O   -0.281005
    68  H    0.136620
    69  H    0.031722
    70  H   -0.000491
    71  H    0.059749
    72  H    0.106350
    73  H    0.135227
    74  N   -0.181423
    75  C    0.231232
    76  C    0.031415
    77  O   -0.267881
    78  H    0.135033
    79  H    0.031956
    80  H    0.028154
    81  N   -0.110611
    82  C    0.073914
    83  C    0.108216
    84  O   -0.282613
    85  C    0.146837
    86  C   -0.039755
    87  C   -0.028100
    88  C   -0.035496
    89  C    0.005357
    90  C   -0.034210
    91  C    0.177835
    92  O   -0.218974
    93  H    0.127350
    94  H   -0.002882
    95  H   -0.007759
    96  H    0.023391
    97  H   -0.016507
    98  H   -0.009309
    99  H   -0.009052
   100  H   -0.031737
   101  H    0.173574
   102  N   -0.108043
   103  C    0.121021
   104  C    0.071185
   105  O   -0.254770
   106  C   -0.075683
   107  C    0.012114
   108  C    0.081459
   109  C    0.018822
   110  H    0.120485
   111  H   -0.016746
   112  H   -0.009216
   113  H   -0.004148
   114  H   -0.005663
   115  H    0.024656
   116  H    0.000537
   117  H   -0.005732
   118  H    0.008533
   119  H   -0.020595
   120  H    0.039131
   121  N   -0.128803
   122  C    0.119080
   123  C    0.090477
   124  O   -0.273383
   125  C    0.218360
   126  O   -0.330540
   127  H    0.123585
   128  H    0.040897
   129  H    0.013048
   130  H    0.000559
   131  H    0.204582
   132  N   -0.132475
   133  C    0.022783
   134  C    0.069466
   135  O   -0.255172
   136  C    0.119592
   137  H    0.122900
   138  H    0.001066
   139  H    0.037344
   140  H    0.019204
   141  H   -0.022740
   142  N   -0.104525
   143  C    0.054714
   144  C    0.025675
   145  O   -0.273640
   146  C    0.035885
   147  H    0.118093
   148  H   -0.011313
   149  H    0.043558
   150  H    0.014867
   151  H    0.023751
   152  N   -0.084328
   153  C    0.083490
   154  C    0.037152
   155  O   -0.277830
   156  C    0.037981
   157  C    0.069795
   158  C    0.036795
   159  O   -0.353877
   160  O   -0.327734
   161  H    0.098109
   162  H   -0.012001
   163  H   -0.006320
   164  H   -0.017175
   165  H   -0.012590
   166  H   -0.020031
   167  N   -0.156839
   168  C    0.137806
   169  H    0.018699
   170  H    0.044683
   171  H    0.026016
   172  H    0.115645
   173  Ca   1.334236
   174  O   -0.307267
   175  H    0.192309
   176  H    0.200302
 Sum of Mulliken charges =  -0.00000

 Dipole moment (field-independent basis, Debye):
    X=             63.0584    Y=            -12.4092    Z=             -6.2617  Tot=             64.5721
 Quadrupole moment (field-independent basis, Debye-Ang):
   XX=           -316.0387   YY=           -592.4668   ZZ=           -535.1203
   XY=           -421.6597   XZ=           -151.0085   YZ=             41.8214

 ESP charges:
               1
     1  C   -0.412966
     2  C    0.721261
     3  O   -0.581350
     4  H    0.143638
     5  H    0.114118
     6  H    0.090975
     7  N   -0.671408
     8  C    0.142352
     9  C    0.570093
    10  O   -0.540900
    11  C   -0.186365
    12  C    0.746828
    13  O   -0.739973
    14  O   -0.724795
    15  H    0.351575
    16  H    0.031986
    17  H    0.077389
    18  H    0.107089
    19  N   -0.383392
    20  C    0.063949
    21  C    0.374869
    22  O   -0.531406
    23  C   -0.183263
    24  C   -0.205012
    25  C    0.039706
    26  C    0.097492
    27  N   -0.332041
    28  H    0.256101
    29  H    0.095676
    30  H    0.118426
    31  H    0.115049
    32  H    0.086017
    33  H    0.060191
    34  H   -0.016305
    35  H    0.045507
    36  H    0.039138
    37  H    0.051900
    38  H    0.257731
    39  H    0.247722
    40  H    0.289135
    41  N   -0.124844
    42  C    0.009726
    43  C    0.403572
    44  O   -0.503166
    45  C   -0.324876
    46  C    0.856009
    47  O   -0.771873
    48  O   -0.856085
    49  H    0.149616
    50  H    0.131112
    51  H    0.122809
    52  H    0.093590
    53  N   -0.099183
    54  C   -0.373052
    55  C    0.637507
    56  O   -0.586369
    57  H    0.090321
    58  H    0.171484
    59  H    0.150068
    60  N   -0.372990
    61  C    0.086234
    62  C    0.445398
    63  O   -0.527462
    64  C   -0.366132
    65  C    0.623168
    66  N   -0.726083
    67  O   -0.487560
    68  H    0.333458
    69  H    0.117686
    70  H    0.074384
    71  H    0.190070
    72  H    0.330441
    73  H    0.347254
    74  N   -0.214352
    75  C   -0.252619
    76  C    0.665440
    77  O   -0.571391
    78  H    0.119835
    79  H    0.143021
    80  H    0.096282
    81  N   -0.438626
    82  C    0.123359
    83  C    0.603725
    84  O   -0.530933
    85  C   -0.163261
    86  C    0.039341
    87  C   -0.093802
    88  C   -0.130825
    89  C   -0.326910
    90  C   -0.351889
    91  C    0.458453
    92  O   -0.565223
    93  H    0.282284
    94  H    0.023495
    95  H    0.063905
    96  H    0.083651
    97  H    0.113083
    98  H    0.149838
    99  H    0.191139
   100  H    0.150852
   101  H    0.403197
   102  N   -0.618017
   103  C    0.062703
   104  C    0.525648
   105  O   -0.459417
   106  C    0.170974
   107  C    0.130211
   108  C   -0.388152
   109  C   -0.254907
   110  H    0.310698
   111  H    0.096754
   112  H   -0.013923
   113  H   -0.000345
   114  H   -0.008960
   115  H    0.124093
   116  H    0.090539
   117  H    0.087470
   118  H    0.073070
   119  H    0.022419
   120  H    0.077166
   121  N   -0.554850
   122  C    0.138312
   123  C    0.598192
   124  O   -0.529704
   125  C   -0.031989
   126  O   -0.482264
   127  H    0.243921
   128  H    0.082570
   129  H    0.095304
   130  H    0.032500
   131  H    0.397544
   132  N   -0.668597
   133  C    0.693910
   134  C    0.333885
   135  O   -0.507755
   136  C   -0.462128
   137  H    0.303102
   138  H   -0.100244
   139  H    0.131365
   140  H    0.107514
   141  H    0.079956
   142  N   -0.458906
   143  C    0.054548
   144  C    0.713688
   145  O   -0.601316
   146  C   -0.419947
   147  H    0.331187
   148  H    0.169288
   149  H    0.136442
   150  H    0.116529
   151  H    0.124356
   152  N   -0.497872
   153  C   -0.300929
   154  C    0.715563
   155  O   -0.558688
   156  C    0.130578
   157  C   -0.354559
   158  C    0.773452
   159  O   -0.661299
   160  O   -0.635836
   161  H    0.234852
   162  H    0.093955
   163  H   -0.001466
   164  H    0.012096
   165  H    0.090926
   166  H    0.053974
   167  N   -0.423242
   168  C   -0.165989
   169  H    0.096326
   170  H    0.108018
   171  H    0.091180
   172  H    0.329996
   173  Ca   1.602742
   174  O   -0.853534
   175  H    0.431551
   176  H    0.451732
 Sum of ESP charges =   0.00000

 Normal termination of Gaussian 16 at Wed Sep 18 11:29:43 2019.
