 Gaussian 16, Revision A.03,
 Gaussian 16:  ES64L-G16RevA.03 25-Dec-2016

 ----------------------------------------------------------------------
 #b3lyp/svp scf=(tight,noincore) Test #IOP(5/87=12) Density=Current Pop
 =(MK,readradii) iop(6/33=2) iop(6/42=6)
 ----------------------------------------------------------------------

 -----------------
 Ng-295_loop3_19.0
 -----------------
 Symbolic Z-matrix:
 Charge =  0 Multiplicity = 1

                         Standard orientation:
 ---------------------------------------------------------------------
 Center     Atomic      Atomic             Coordinates (Angstroms)
 Number     Number       Type             X           Y           Z
 ---------------------------------------------------------------------
      1          6           0       -9.541817    4.588938    4.212308
      2          6           0       -8.314913    4.410050    3.316369
      3          8           0       -7.754919    5.317500    2.708882
      4          1           0       -9.835494    3.622808    4.623112
      5          1           0       -9.300746    5.271999    5.027342
      6          1           0      -10.364280    4.998198    3.626136
      7          7           0       -7.958455    3.150566    3.103683
      8          6           0       -6.922371    2.790703    2.149990
      9          6           0       -7.428467    2.912278    0.721009
     10          8           0       -8.493124    2.401248    0.368513
     11          6           0       -6.277149    1.444501    2.494705
     12          6           0       -5.119023    1.032012    1.598771
     13          8           0       -5.255012    0.830156    0.369072
     14          8           0       -3.994105    0.837808    2.093790
     15          1           0       -8.618407    2.423650    3.368364
     16          1           0       -6.131099    3.522630    2.323977
     17          1           0       -7.022488    0.657956    2.419748
     18          1           0       -5.945161    1.513303    3.531840
     19          7           0       -6.654102    3.588371   -0.134710
     20          6           0       -7.028343    3.964362   -1.475447
     21          6           0       -7.273485    2.768116   -2.397131
     22          8           0       -7.755942    3.044126   -3.496428
     23          6           0       -5.888714    4.818450   -2.007593
     24          6           0       -4.649930    4.071866   -2.497109
     25          6           0       -3.539063    5.030743   -2.907633
     26          6           0       -3.954630    5.977550   -4.030513
     27          7           0       -2.782004    6.568497   -4.681688
     28          1           0       -5.759627    3.918772    0.185992
     29          1           0       -8.019453    4.433393   -1.448771
     30          1           0       -5.475411    5.591466   -1.368040
     31          1           0       -6.168941    5.302044   -2.946853
     32          1           0       -4.953884    3.448157   -3.337287
     33          1           0       -4.286266    3.493072   -1.646025
     34          1           0       -2.641033    4.441427   -3.070571
     35          1           0       -3.395505    5.675992   -2.032679
     36          1           0       -4.567622    6.783034   -3.627107
     37          1           0       -4.423946    5.348163   -4.793084
     38          1           0       -3.146857    7.022643   -5.507057
     39          1           0       -2.379685    7.283530   -4.094264
     40          1           0       -2.235387    5.883580   -5.172605
     41          7           0       -7.134318    1.510123   -1.971004
     42          6           0       -7.353798    0.286634   -2.708570
     43          6           0       -7.868570   -0.751844   -1.730831
     44          8           0       -8.431531   -1.721374   -2.248794
     45          6           0       -6.129582   -0.224076   -3.463137
     46          6           0       -4.926405   -0.329583   -2.538457
     47          8           0       -4.007216    0.519642   -2.583281
     48          8           0       -4.727465   -1.286676   -1.767097
     49          1           0       -6.621378    1.507665   -1.107589
     50          1           0       -8.058137    0.421642   -3.533300
     51          1           0       -5.816839    0.408564   -4.290275
     52          1           0       -6.412380   -1.227716   -3.783501
     53          7           0       -7.695561   -0.630234   -0.410082
     54          6           0       -8.150524   -1.536064    0.626201
     55          6           0       -7.255687   -2.736155    0.924613
     56          8           0       -7.586537   -3.532126    1.795284
     57          1           0       -7.230789    0.200822   -0.089562
     58          1           0       -9.103504   -1.988363    0.361335
     59          1           0       -8.248323   -0.882253    1.492611
     60          7           0       -6.082328   -2.871017    0.297923
     61          6           0       -5.154337   -3.969570    0.533958
     62          6           0       -4.088352   -3.468763    1.494150
     63          8           0       -3.640701   -2.348006    1.254330
     64          6           0       -4.652740   -4.465740   -0.813490
     65          6           0       -3.867959   -5.769993   -0.834512
     66          7           0       -4.227116   -6.791401   -1.613956
     67          8           0       -2.813845   -5.881704   -0.199559
     68          1           0       -5.939149   -2.249668   -0.479010
     69          1           0       -5.628601   -4.768701    1.098815
     70          1           0       -4.046612   -3.681030   -1.278827
     71          1           0       -5.549573   -4.676018   -1.392001
     72          1           0       -5.104085   -6.754102   -2.107548
     73          1           0       -3.748516   -7.679739   -1.651337
     74          7           0       -3.604344   -4.239235    2.475531
     75          6           0       -2.728847   -3.727718    3.513825
     76          6           0       -1.246774   -3.660232    3.170597
     77          8           0       -0.408829   -3.192030    3.938866
     78          1           0       -3.791846   -5.233682    2.445225
     79          1           0       -2.798387   -4.373314    4.386619
     80          1           0       -3.021793   -2.747629    3.876191
     81          7           0       -0.858532   -4.245025    2.033854
     82          6           0        0.524071   -4.217603    1.604599
     83          6           0        1.160782   -2.865699    1.288445
     84          8           0        0.498146   -1.980124    0.763400
     85          6           0        0.655096   -5.102094    0.364314
     86          6           0        2.038328   -5.178457   -0.233547
     87          6           0        2.283311   -4.486064   -1.427480
     88          6           0        3.027630   -6.067318    0.212893
     89          6           0        3.524769   -4.497571   -2.075282
     90          6           0        4.326516   -6.061056   -0.330571
     91          6           0        4.528971   -5.300491   -1.495454
     92          8           0        5.773860   -5.193571   -2.051259
     93          1           0       -1.538184   -4.733285    1.478989
     94          1           0        1.143647   -4.507449    2.444846
     95          1           0       -0.137908   -4.771886   -0.311635
     96          1           0        0.389412   -6.126598    0.593014
     97          1           0        1.455777   -3.935924   -1.843934
     98          1           0        2.765527   -6.600142    1.114005
     99          1           0        3.779318   -3.904304   -2.936524
    100          1           0        5.064060   -6.666034    0.162005
    101          1           0        6.468296   -5.416850   -1.433194
    102          7           0        2.443841   -2.671966    1.614063
    103          6           0        3.192578   -1.477189    1.276426
    104          6           0        3.220915   -1.168788   -0.221669
    105          8           0        2.262731   -1.155958   -0.997051
    106          6           0        2.740984   -0.252608    2.058261
    107          6           0        3.340253    1.076498    1.606540
    108          6           0        2.820859   -0.456739    3.576797
    109          6           0        3.059102    2.354492    2.402395
    110          1           0        2.864769   -3.333122    2.239676
    111          1           0        4.215813   -1.734782    1.537260
    112          1           0        1.680819   -0.133540    1.882557
    113          1           0        3.080110    1.197586    0.555986
    114          1           0        4.430851    1.021240    1.618531
    115          1           0        2.063122    0.104123    4.125492
    116          1           0        2.708472   -1.503260    3.830298
    117          1           0        3.799109   -0.164273    3.950818
    118          1           0        3.736739    3.141695    2.049665
    119          1           0        2.077109    2.776741    2.218291
    120          1           0        3.100174    2.171621    3.469996
    121          7           0        4.472954   -0.981779   -0.641700
    122          6           0        4.831082   -0.775183   -2.030823
    123          6           0        6.326448   -0.983866   -2.253828
    124          8           0        6.736027   -1.218779   -3.385226
    125          6           0        4.574833    0.701360   -2.301297
    126          8           0        5.131801    1.619155   -1.384978
    127          1           0        5.190569   -0.725155    0.013185
    128          1           0        4.205742   -1.415993   -2.657650
    129          1           0        3.490366    0.803614   -2.345751
    130          1           0        4.976245    1.004383   -3.271578
    131          1           0        4.690195    2.452506   -1.487981
    132          7           0        7.164176   -0.951380   -1.213801
    133          6           0        8.579063   -1.259222   -1.228982
    134          6           0        9.374295   -0.550323   -2.313587
    135          8           0       10.095642   -1.134724   -3.121939
    136          6           0        8.732154   -2.771328   -1.380639
    137          1           0        6.841945   -0.519161   -0.362476
    138          1           0        9.002200   -0.981386   -0.263238
    139          1           0        8.700468   -3.161421   -2.398000
    140          1           0        9.701282   -3.078912   -0.999085
    141          1           0        7.971217   -3.337941   -0.841358
    142          7           0        9.386488    0.782977   -2.398805
    143          6           0        8.737349    1.719406   -1.498461
    144          6           0        9.690771    2.258066   -0.433882
    145          8           0       10.906222    2.229399   -0.621652
    146          6           0        8.289607    2.896152   -2.371557
    147          1           0       10.079700    1.115248   -3.062170
    148          1           0        7.818482    1.334989   -1.067175
    149          1           0        7.656946    3.524643   -1.753706
    150          1           0        9.154102    3.492213   -2.669987
    151          1           0        7.786560    2.474467   -3.237192
    152          7           0        9.273405    2.785510    0.719074
    153          6           0        7.954532    2.784277    1.293768
    154          6           0        7.898159    2.119404    2.664814
    155          8           0        6.967694    1.373248    2.967610
    156          6           0        7.702195    4.293067    1.366434
    157          6           0        6.223262    4.630901    1.582361
    158          6           0        6.173619    6.147648    1.578528
    159          8           0        6.781100    6.771034    2.481720
    160          8           0        5.628780    6.756665    0.632247
    161          1           0       10.036129    3.020719    1.342235
    162          1           0        7.238345    2.285796    0.637116
    163          1           0        7.879620    4.716830    0.383864
    164          1           0        8.397233    4.776800    2.043948
    165          1           0        5.926999    4.341441    2.592134
    166          1           0        5.608820    4.132427    0.837119
    167          7           0        8.941328    2.432577    3.426077
    168          6           0        9.202222    1.829257    4.721275
    169          1           0        8.585617    0.938334    4.837734
    170          1           0       10.254842    1.552990    4.788740
    171          1           0        8.960867    2.542369    5.509960
    172          1           0        9.545923    3.174078    3.101206
    173         20           0       -2.862144   -0.188024   -0.168757
    174          8           0       -0.305980    0.287531   -0.716454
    175          1           0        0.013686    0.182263   -1.612464
    176          1           0        0.286894   -0.247455   -0.186841
 ---------------------------------------------------------------------

 SCF Done:  E(RB3LYP) =  -5333.42548271     A.U. after   48 cycles

 The electronic state is 1-A.
 Alpha  occ. eigenvalues -- -145.44094 -19.18551 -19.16735 -19.15781 -19.14443
 Alpha  occ. eigenvalues --  -19.12712 -19.12441 -19.12125 -19.11206 -19.10945
 Alpha  occ. eigenvalues --  -19.10336 -19.10313 -19.09814 -19.09489 -19.09366
 Alpha  occ. eigenvalues --  -19.09239 -19.08929 -19.08677 -19.08284 -19.08102
 Alpha  occ. eigenvalues --  -19.07150 -19.07121 -18.96857 -18.96604 -15.49911
 Alpha  occ. eigenvalues --  -14.56610 -14.40004 -14.38860 -14.37975 -14.37792
 Alpha  occ. eigenvalues --  -14.37463 -14.37192 -14.36886 -14.36493 -14.35647
 Alpha  occ. eigenvalues --  -14.34876 -14.34851 -14.34762 -14.33840 -14.33205
 Alpha  occ. eigenvalues --  -12.63529 -12.63480 -12.63454 -10.34436 -10.32483
 Alpha  occ. eigenvalues --  -10.32191 -10.30940 -10.30527 -10.29861 -10.29741
 Alpha  occ. eigenvalues --  -10.29552 -10.29035 -10.28956 -10.28289 -10.28013
 Alpha  occ. eigenvalues --  -10.27659 -10.27540 -10.27324 -10.27139 -10.26637
 Alpha  occ. eigenvalues --  -10.26464 -10.26413 -10.26204 -10.25843 -10.25799
 Alpha  occ. eigenvalues --  -10.25458 -10.25435 -10.25250 -10.25143 -10.24956
 Alpha  occ. eigenvalues --  -10.24436 -10.23634 -10.23517 -10.23351 -10.23302
 Alpha  occ. eigenvalues --  -10.22934 -10.22572 -10.22090 -10.21321 -10.21207
 Alpha  occ. eigenvalues --  -10.20978 -10.20881 -10.20649 -10.20410 -10.20186
 Alpha  occ. eigenvalues --  -10.20169 -10.19983 -10.19242 -10.18907 -10.17732
 Alpha  occ. eigenvalues --  -10.17709 -10.17523 -10.17333 -10.16476 -10.16332
 Alpha  occ. eigenvalues --  -10.15102 -10.11899  -1.86523  -1.14108  -1.13731
 Alpha  occ. eigenvalues --   -1.13632  -1.12855  -1.07195  -1.06121  -1.05516
 Alpha  occ. eigenvalues --   -1.05513  -1.05307  -1.05041  -1.04584  -1.04315
 Alpha  occ. eigenvalues --   -1.04074  -1.03935  -1.03770  -1.03523  -1.03125
 Alpha  occ. eigenvalues --   -1.02548  -1.02270  -1.02076  -1.01181  -1.01169
 Alpha  occ. eigenvalues --   -1.00351  -0.96151  -0.95485  -0.94727  -0.94685
 Alpha  occ. eigenvalues --   -0.94097  -0.93397  -0.93356  -0.93147  -0.93022
 Alpha  occ. eigenvalues --   -0.92799  -0.92702  -0.92453  -0.91978  -0.91215
 Alpha  occ. eigenvalues --   -0.90748  -0.90414  -0.89742  -0.88904  -0.86345
 Alpha  occ. eigenvalues --   -0.82811  -0.82551  -0.81174  -0.80976  -0.80358
 Alpha  occ. eigenvalues --   -0.80165  -0.79438  -0.78574  -0.76940  -0.76861
 Alpha  occ. eigenvalues --   -0.76474  -0.76402  -0.75686  -0.75451  -0.74913
 Alpha  occ. eigenvalues --   -0.74324  -0.73869  -0.73782  -0.73015  -0.71598
 Alpha  occ. eigenvalues --   -0.71491  -0.70794  -0.70113  -0.68320  -0.67803
 Alpha  occ. eigenvalues --   -0.67624  -0.67009  -0.66591  -0.66129  -0.65251
 Alpha  occ. eigenvalues --   -0.64680  -0.64375  -0.63838  -0.63609  -0.63384
 Alpha  occ. eigenvalues --   -0.62869  -0.62682  -0.62430  -0.61798  -0.61407
 Alpha  occ. eigenvalues --   -0.61017  -0.60780  -0.59971  -0.59839  -0.59799
 Alpha  occ. eigenvalues --   -0.59439  -0.58963  -0.58476  -0.58243  -0.58120
 Alpha  occ. eigenvalues --   -0.57861  -0.57435  -0.57000  -0.56744  -0.56714
 Alpha  occ. eigenvalues --   -0.56401  -0.56196  -0.55968  -0.55833  -0.55136
 Alpha  occ. eigenvalues --   -0.54862  -0.54490  -0.53410  -0.53109  -0.52721
 Alpha  occ. eigenvalues --   -0.52262  -0.52158  -0.51887  -0.51646  -0.51466
 Alpha  occ. eigenvalues --   -0.51120  -0.51099  -0.50944  -0.50674  -0.50468
 Alpha  occ. eigenvalues --   -0.50246  -0.49850  -0.49513  -0.49350  -0.49126
 Alpha  occ. eigenvalues --   -0.48842  -0.48665  -0.48491  -0.48081  -0.47975
 Alpha  occ. eigenvalues --   -0.47684  -0.47586  -0.47149  -0.47014  -0.46855
 Alpha  occ. eigenvalues --   -0.46625  -0.46492  -0.46336  -0.46224  -0.46128
 Alpha  occ. eigenvalues --   -0.45931  -0.45707  -0.45602  -0.45335  -0.45148
 Alpha  occ. eigenvalues --   -0.45072  -0.44879  -0.44781  -0.44630  -0.44524
 Alpha  occ. eigenvalues --   -0.44410  -0.44381  -0.44249  -0.43957  -0.43917
 Alpha  occ. eigenvalues --   -0.43705  -0.43507  -0.43274  -0.43215  -0.42902
 Alpha  occ. eigenvalues --   -0.42581  -0.42528  -0.42481  -0.42457  -0.42377
 Alpha  occ. eigenvalues --   -0.41984  -0.41879  -0.41747  -0.41561  -0.41432
 Alpha  occ. eigenvalues --   -0.41273  -0.40970  -0.40900  -0.40806  -0.40681
 Alpha  occ. eigenvalues --   -0.40500  -0.40382  -0.40242  -0.40076  -0.40028
 Alpha  occ. eigenvalues --   -0.39744  -0.39737  -0.39636  -0.39576  -0.39135
 Alpha  occ. eigenvalues --   -0.39099  -0.38942  -0.38563  -0.38534  -0.38448
 Alpha  occ. eigenvalues --   -0.38182  -0.38160  -0.37993  -0.37893  -0.37811
 Alpha  occ. eigenvalues --   -0.37667  -0.37478  -0.37420  -0.37346  -0.37337
 Alpha  occ. eigenvalues --   -0.36931  -0.36873  -0.36794  -0.36613  -0.36308
 Alpha  occ. eigenvalues --   -0.36163  -0.36105  -0.35934  -0.35451  -0.35305
 Alpha  occ. eigenvalues --   -0.35250  -0.35216  -0.35034  -0.34926  -0.34336
 Alpha  occ. eigenvalues --   -0.33880  -0.33634  -0.33081  -0.32138  -0.31915
 Alpha  occ. eigenvalues --   -0.31585  -0.31248  -0.30861  -0.30545  -0.30012
 Alpha  occ. eigenvalues --   -0.29704  -0.29686  -0.29671  -0.29131  -0.28718
 Alpha  occ. eigenvalues --   -0.28476  -0.28351  -0.28026  -0.27912  -0.27615
 Alpha  occ. eigenvalues --   -0.27605  -0.27250  -0.27127  -0.27022  -0.26875
 Alpha  occ. eigenvalues --   -0.26802  -0.26609  -0.26078  -0.25979  -0.25938
 Alpha  occ. eigenvalues --   -0.25846  -0.25621  -0.25533  -0.25524  -0.25266
 Alpha  occ. eigenvalues --   -0.25126  -0.24742  -0.24071  -0.23840  -0.23573
 Alpha  occ. eigenvalues --   -0.23490  -0.23166  -0.23143  -0.22911  -0.22126
 Alpha  occ. eigenvalues --   -0.14272  -0.14023  -0.11289
 Alpha virt. eigenvalues --   -0.10315  -0.04743  -0.03984  -0.03541  -0.03317
 Alpha virt. eigenvalues --   -0.03069  -0.01543  -0.01518  -0.01295  -0.01146
 Alpha virt. eigenvalues --   -0.00466  -0.00346  -0.00017   0.00352   0.00855

 Mulliken charges:
               1
     1  C    0.059011
     2  C    0.021398
     3  O   -0.294789
     4  H   -0.002430
     5  H    0.041769
     6  H    0.051438
     7  N   -0.123346
     8  C    0.085353
     9  C    0.065730
    10  O   -0.281734
    11  C    0.138098
    12  C    0.088749
    13  O   -0.441269
    14  O   -0.395076
    15  H    0.123735
    16  H    0.000219
    17  H    0.000950
    18  H    0.019720
    19  N   -0.130471
    20  C    0.204235
    21  C   -0.004960
    22  O   -0.306156
    23  C   -0.038188
    24  C    0.005734
    25  C   -0.008805
    26  C   -0.014397
    27  N    0.161789
    28  H    0.119895
    29  H    0.044800
    30  H    0.002176
    31  H    0.009592
    32  H    0.053288
    33  H    0.009969
    34  H    0.034318
    35  H    0.013978
    36  H    0.079833
    37  H    0.064085
    38  H    0.122866
    39  H    0.146505
    40  H    0.131800
    41  N   -0.121468
    42  C    0.105841
    43  C    0.066515
    44  O   -0.295874
    45  C    0.160702
    46  C    0.078927
    47  O   -0.436605
    48  O   -0.423209
    49  H    0.170155
    50  H    0.030948
    51  H    0.002998
    52  H    0.019730
    53  N   -0.171096
    54  C    0.220767
    55  C    0.012915
    56  O   -0.298098
    57  H    0.132303
    58  H    0.040710
    59  H    0.036833
    60  N   -0.131967
    61  C    0.111094
    62  C    0.141168
    63  O   -0.362140
    64  C    0.128850
    65  C   -0.005413
    66  N   -0.029881
    67  O   -0.300739
    68  H    0.154064
    69  H   -0.008173
    70  H    0.051034
    71  H    0.011681
    72  H    0.122934
    73  H    0.135423
    74  N   -0.142420
    75  C    0.212827
    76  C    0.018918
    77  O   -0.285537
    78  H    0.142471
    79  H    0.039480
    80  H    0.056867
    81  N   -0.118625
    82  C    0.164242
    83  C    0.100872
    84  O   -0.311948
    85  C    0.122874
    86  C   -0.079223
    87  C    0.021192
    88  C   -0.008538
    89  C    0.004394
    90  C   -0.033790
    91  C    0.155197
    92  O   -0.207144
    93  H    0.128440
    94  H   -0.024559
    95  H    0.011274
    96  H    0.011818
    97  H   -0.026644
    98  H   -0.034684
    99  H   -0.010768
   100  H   -0.030963
   101  H    0.178957
   102  N   -0.121216
   103  C    0.136479
   104  C    0.115397
   105  O   -0.299947
   106  C   -0.092711
   107  C   -0.008205
   108  C    0.069202
   109  C    0.051479
   110  H    0.130757
   111  H   -0.020319
   112  H   -0.002790
   113  H   -0.019311
   114  H    0.005620
   115  H    0.023185
   116  H   -0.021592
   117  H    0.017060
   118  H    0.030954
   119  H   -0.017214
   120  H    0.014571
   121  N   -0.137256
   122  C    0.085784
   123  C    0.091184
   124  O   -0.249405
   125  C    0.219877
   126  O   -0.313438
   127  H    0.122018
   128  H    0.036143
   129  H   -0.004442
   130  H    0.010052
   131  H    0.191987
   132  N   -0.149854
   133  C    0.025395
   134  C    0.078908
   135  O   -0.263937
   136  C    0.095276
   137  H    0.128543
   138  H    0.025353
   139  H    0.045350
   140  H    0.009204
   141  H   -0.038186
   142  N   -0.087640
   143  C    0.016242
   144  C    0.043654
   145  O   -0.283242
   146  C    0.061382
   147  H    0.132307
   148  H   -0.011731
   149  H    0.023282
   150  H    0.018596
   151  H    0.024630
   152  N   -0.076445
   153  C    0.049364
   154  C    0.107242
   155  O   -0.270752
   156  C    0.006924
   157  C    0.092417
   158  C    0.020071
   159  O   -0.375669
   160  O   -0.362340
   161  H    0.103684
   162  H   -0.000184
   163  H    0.004102
   164  H   -0.008437
   165  H   -0.007406
   166  H   -0.050881
   167  N   -0.168094
   168  C    0.126626
   169  H    0.039040
   170  H    0.021769
   171  H    0.037388
   172  H    0.123994
   173  Ca   1.340327
   174  O   -0.356647
   175  H    0.195527
   176  H    0.205623
 Sum of Mulliken charges =  -0.00000

 Dipole moment (field-independent basis, Debye):
    X=            -18.2912    Y=             -6.0678    Z=             -9.7370  Tot=             21.5916
 Quadrupole moment (field-independent basis, Debye-Ang):
   XX=           -794.0095   YY=           -516.2621   ZZ=           -514.7655
   XY=           -145.8361   XZ=             45.8035   YZ=           -141.5601

 ESP charges:
               1
     1  C   -0.494162
     2  C    0.768677
     3  O   -0.607043
     4  H    0.111728
     5  H    0.139750
     6  H    0.153512
     7  N   -0.629389
     8  C    0.159743
     9  C    0.673495
    10  O   -0.568551
    11  C   -0.262250
    12  C    0.737285
    13  O   -0.761197
    14  O   -0.707174
    15  H    0.321205
    16  H    0.058873
    17  H    0.091525
    18  H    0.100170
    19  N   -0.426574
    20  C   -0.138663
    21  C    0.738166
    22  O   -0.604256
    23  C    0.001104
    24  C    0.109504
    25  C   -0.153966
    26  C    0.110977
    27  N   -0.497267
    28  H    0.240489
    29  H    0.138785
    30  H    0.046983
    31  H   -0.049238
    32  H    0.030987
    33  H    0.016129
    34  H    0.063960
    35  H    0.045433
    36  H    0.092269
    37  H    0.083501
    38  H    0.279906
    39  H    0.343000
    40  H    0.338191
    41  N   -0.567667
    42  C    0.262610
    43  C    0.334411
    44  O   -0.540226
    45  C   -0.355984
    46  C    0.908094
    47  O   -0.814670
    48  O   -0.799901
    49  H    0.203669
    50  H    0.084259
    51  H    0.103818
    52  H    0.099229
    53  N    0.059712
    54  C   -0.462662
    55  C    0.646543
    56  O   -0.583585
    57  H    0.080547
    58  H    0.183814
    59  H    0.165667
    60  N   -0.280829
    61  C   -0.005971
    62  C    0.621290
    63  O   -0.591583
    64  C   -0.294055
    65  C    0.748649
    66  N   -0.817837
    67  O   -0.615232
    68  H    0.231700
    69  H    0.041876
    70  H    0.119870
    71  H    0.112567
    72  H    0.357675
    73  H    0.398858
    74  N   -0.432162
    75  C   -0.138483
    76  C    0.563416
    77  O   -0.563034
    78  H    0.318263
    79  H    0.117249
    80  H    0.137583
    81  N   -0.302625
    82  C   -0.188197
    83  C    0.729156
    84  O   -0.630083
    85  C   -0.049917
    86  C   -0.141296
    87  C   -0.068071
    88  C    0.021261
    89  C   -0.244518
    90  C   -0.443653
    91  C    0.448567
    92  O   -0.560057
    93  H    0.225102
    94  H    0.106123
    95  H    0.099810
    96  H    0.088631
    97  H    0.109603
    98  H    0.085604
    99  H    0.161077
   100  H    0.183786
   101  H    0.413373
   102  N   -0.531495
   103  C    0.082662
   104  C    0.613908
   105  O   -0.508725
   106  C    0.090784
   107  C   -0.092283
   108  C   -0.316972
   109  C   -0.242455
   110  H    0.303461
   111  H    0.078757
   112  H    0.091426
   113  H    0.031698
   114  H    0.065012
   115  H    0.100352
   116  H    0.075599
   117  H    0.080835
   118  H    0.105064
   119  H    0.040346
   120  H    0.084464
   121  N   -0.533805
   122  C   -0.207072
   123  C    0.680025
   124  O   -0.528224
   125  C    0.084656
   126  O   -0.527229
   127  H    0.204279
   128  H    0.176566
   129  H    0.053729
   130  H    0.040846
   131  H    0.402618
   132  N   -0.391842
   133  C    0.091686
   134  C    0.577476
   135  O   -0.535739
   136  C   -0.236038
   137  H    0.291404
   138  H    0.062380
   139  H    0.107332
   140  H    0.065967
   141  H    0.029330
   142  N   -0.652551
   143  C    0.557093
   144  C    0.402234
   145  O   -0.554339
   146  C   -0.466104
   147  H    0.343726
   148  H   -0.038445
   149  H    0.112525
   150  H    0.130286
   151  H    0.124116
   152  N   -0.383264
   153  C   -0.567129
   154  C    0.763256
   155  O   -0.564236
   156  C    0.310868
   157  C   -0.390172
   158  C    0.713846
   159  O   -0.662247
   160  O   -0.668069
   161  H    0.270604
   162  H    0.179498
   163  H    0.031645
   164  H   -0.038333
   165  H    0.069239
   166  H    0.072615
   167  N   -0.430419
   168  C   -0.122291
   169  H    0.094600
   170  H    0.073724
   171  H    0.086544
   172  H    0.356538
   173  Ca   1.605266
   174  O   -0.825238
   175  H    0.425629
   176  H    0.401424
 Sum of ESP charges =  -0.00000

 Normal termination of Gaussian 16 at Tue Sep 17 23:59:38 2019.
