 Gaussian 16, Revision A.03,
 Gaussian 16:  ES64L-G16RevA.03 25-Dec-2016

 ----------------------------------------------------------------------
 #b3lyp/svp scf=(tight,noincore) Test #IOP(5/87=12) Density=Current Pop
 =(MK,readradii) iop(6/33=2) iop(6/42=6)
 ----------------------------------------------------------------------

 -----------------
 Ng-293_loop3_50.0
 -----------------
 Symbolic Z-matrix:
 Charge =  0 Multiplicity = 1

                         Standard orientation:
 ---------------------------------------------------------------------
 Center     Atomic      Atomic             Coordinates (Angstroms)
 Number     Number       Type             X           Y           Z
 ---------------------------------------------------------------------
      1          6           0       -8.834669   -2.759248    7.241559
      2          6           0       -9.366848   -2.470072    5.847370
      3          8           0      -10.546249   -2.178965    5.673960
      4          1           0       -7.809757   -3.122981    7.170184
      5          1           0       -8.854206   -1.845507    7.835861
      6          1           0       -9.456404   -3.517198    7.718355
      7          7           0       -8.539378   -2.771412    4.851233
      8          6           0       -8.971492   -2.736320    3.462332
      9          6           0       -7.859332   -2.309936    2.507033
     10          8           0       -6.708607   -2.169595    2.925047
     11          6           0       -9.485154   -4.124338    3.107989
     12          6           0      -10.028429   -4.392666    1.705686
     13          8           0      -10.798824   -3.535404    1.215285
     14          8           0       -9.700038   -5.445578    1.121447
     15          1           0       -7.583634   -2.955929    5.093320
     16          1           0       -9.762333   -2.013397    3.257999
     17          1           0      -10.290658   -4.433180    3.775806
     18          1           0       -8.567993   -4.681153    3.286794
     19          7           0       -8.147212   -1.994674    1.241831
     20          6           0       -7.224132   -1.482286    0.243492
     21          6           0       -6.054300   -2.357940   -0.163109
     22          8           0       -6.035954   -3.519602    0.234765
     23          6           0       -6.718420   -0.103981    0.659823
     24          6           0       -7.848846    0.834076    1.087708
     25          6           0       -8.756488    1.033043   -0.126787
     26          6           0       -9.822930    2.016044    0.342159
     27          7           0      -10.691790    2.478446   -0.748651
     28          1           0       -9.112364   -2.007784    0.948214
     29          1           0       -7.847977   -1.350929   -0.645137
     30          1           0       -6.249164    0.333986   -0.224476
     31          1           0       -5.972898   -0.183313    1.443151
     32          1           0       -7.497046    1.795937    1.464219
     33          1           0       -8.461727    0.380986    1.864102
     34          1           0       -9.227096    0.084726   -0.384129
     35          1           0       -8.356312    1.559695   -0.983464
     36          1           0       -9.320913    2.813995    0.892935
     37          1           0      -10.526149    1.486957    0.991811
     38          1           0      -11.569448    2.815728   -0.366347
     39          1           0      -10.220820    3.227948   -1.238687
     40          1           0      -10.943332    1.667782   -1.298333
     41          7           0       -5.088376   -1.888627   -0.959436
     42          6           0       -4.271798   -2.701069   -1.837011
     43          6           0       -2.858865   -2.964154   -1.332424
     44          8           0       -2.297655   -2.049259   -0.726694
     45          6           0       -4.085787   -2.162930   -3.251721
     46          6           0       -4.134398   -0.649424   -3.417667
     47          8           0       -3.372507    0.178172   -2.880539
     48          8           0       -5.060375   -0.209884   -4.128984
     49          1           0       -5.053053   -0.927796   -1.262515
     50          1           0       -4.740584   -3.678923   -1.940651
     51          1           0       -4.826882   -2.607559   -3.916539
     52          1           0       -3.128058   -2.466934   -3.663713
     53          7           0       -2.229281   -4.110655   -1.579731
     54          6           0       -0.803548   -4.310744   -1.354013
     55          6           0        0.070979   -4.041966   -2.567751
     56          8           0       -0.218490   -4.475721   -3.673041
     57          1           0       -2.760017   -4.787416   -2.099070
     58          1           0       -0.618899   -5.366878   -1.150579
     59          1           0       -0.433934   -3.796200   -0.474223
     60          7           0        1.236107   -3.448491   -2.283383
     61          6           0        2.146255   -2.997991   -3.325343
     62          6           0        3.600303   -3.149607   -2.894811
     63          8           0        4.360586   -2.198004   -2.741765
     64          6           0        1.766895   -1.551452   -3.589373
     65          6           0        0.313801   -1.429735   -4.037372
     66          7           0       -0.537042   -0.891376   -3.161966
     67          8           0       -0.090083   -1.704216   -5.158192
     68          1           0        1.349894   -3.192330   -1.318793
     69          1           0        1.975891   -3.554986   -4.247532
     70          1           0        2.337990   -0.930751   -4.277108
     71          1           0        1.880966   -1.046109   -2.627647
     72          1           0       -0.109465   -0.712209   -2.265988
     73          1           0       -1.473507   -0.637091   -3.442272
     74          7           0        3.969064   -4.421691   -2.746770
     75          6           0        5.345679   -4.820180   -2.539079
     76          6           0        5.860651   -4.289791   -1.209045
     77          8           0        5.291733   -4.536135   -0.142956
     78          1           0        3.281305   -5.131084   -2.978395
     79          1           0        5.906528   -4.553012   -3.435165
     80          1           0        5.376349   -5.903897   -2.411340
     81          7           0        6.984936   -3.588032   -1.283991
     82          6           0        7.574785   -2.889903   -0.156829
     83          6           0        6.734940   -1.793208    0.484825
     84          8           0        7.291420   -0.962134    1.199419
     85          6           0        8.062859   -3.976357    0.790590
     86          6           0        9.399051   -3.756021    1.448193
     87          6           0        9.402085   -3.322166    2.778103
     88          6           0       10.643726   -4.075351    0.883468
     89          6           0       10.616105   -3.216401    3.476293
     90          6           0       11.857746   -3.969585    1.581659
     91          6           0       11.865542   -3.452187    2.883326
     92          8           0       12.994251   -3.448293    3.648180
     93          1           0        7.448496   -3.514522   -2.174501
     94          1           0        8.421866   -2.299567   -0.491280
     95          1           0        8.182725   -4.904448    0.221749
     96          1           0        7.310341   -4.129178    1.560630
     97          1           0        8.492619   -3.179002    3.342086
     98          1           0       10.620729   -4.503226   -0.102835
     99          1           0       10.625738   -2.913513    4.515508
    100          1           0       12.756744   -4.327712    1.098805
    101          1           0       13.708019   -3.840290    3.133036
    102          7           0        5.498485   -1.506881    0.064591
    103          6           0        4.608516   -0.374799    0.253657
    104          6           0        5.076358    0.962125   -0.280251
    105          8           0        4.344375    1.756699   -0.878794
    106          6           0        4.008424   -0.317450    1.656939
    107          6           0        3.531951   -1.695541    2.134893
    108          6           0        2.833996    0.647178    1.773604
    109          6           0        2.302986   -2.238937    1.417839
    110          1           0        5.051085   -2.302523   -0.349761
    111          1           0        3.763519   -0.523243   -0.420023
    112          1           0        4.789568    0.066046    2.314088
    113          1           0        3.384180   -1.673635    3.222819
    114          1           0        4.320767   -2.435329    2.058848
    115          1           0        3.175231    1.676014    1.691418
    116          1           0        2.188507    0.472702    0.914941
    117          1           0        2.231330    0.547898    2.677727
    118          1           0        2.434990   -2.388578    0.353047
    119          1           0        2.213654   -3.218135    1.898248
    120          1           0        1.435749   -1.608644    1.631219
    121          7           0        6.300548    1.392549    0.034541
    122          6           0        6.928178    2.654602   -0.293790
    123          6           0        6.209009    3.911271    0.172234
    124          8           0        5.928889    4.762845   -0.659483
    125          6           0        8.393680    2.687772    0.118767
    126          8           0        8.467027    2.427544    1.507040
    127          1           0        6.864810    0.740629    0.562943
    128          1           0        6.905406    2.631731   -1.377929
    129          1           0        8.777151    3.689591   -0.075161
    130          1           0        8.938113    1.844957   -0.320956
    131          1           0        9.329277    2.628891    1.862123
    132          7           0        5.826007    3.885518    1.454828
    133          6           0        5.018598    4.849460    2.176635
    134          6           0        3.790280    5.395514    1.449683
    135          8           0        3.450695    6.561166    1.611353
    136          6           0        5.895565    5.860048    2.899159
    137          1           0        6.212540    3.068846    1.912035
    138          1           0        4.634063    4.325813    3.051922
    139          1           0        5.334444    6.604750    3.460107
    140          1           0        6.531027    5.261316    3.557952
    141          1           0        6.550905    6.410019    2.211146
    142          7           0        3.193222    4.563305    0.597421
    143          6           0        2.080704    4.983286   -0.228000
    144          6           0        0.806024    5.001466    0.598657
    145          8           0        0.546287    4.175462    1.471613
    146          6           0        1.985431    4.019086   -1.410853
    147          1           0        3.657390    3.670238    0.491213
    148          1           0        2.305200    5.983120   -0.610404
    149          1           0        1.703349    3.059406   -0.997279
    150          1           0        1.289815    4.375506   -2.173404
    151          1           0        2.915301    3.962471   -1.984469
    152          7           0       -0.123520    5.917263    0.297055
    153          6           0       -1.490618    6.153669    0.687895
    154          6           0       -1.657828    6.088555    2.198491
    155          8           0       -2.724590    5.609665    2.570625
    156          6           0       -2.433199    5.251850   -0.109890
    157          6           0       -2.395874    5.519912   -1.608573
    158          6           0       -3.539964    4.860021   -2.362032
    159          8           0       -4.622839    5.498860   -2.404048
    160          8           0       -3.438914    3.643879   -2.610603
    161          1           0        0.174412    6.430844   -0.519934
    162          1           0       -1.743736    7.175229    0.402507
    163          1           0       -3.467553    5.465164    0.155459
    164          1           0       -2.198452    4.208672    0.108452
    165          1           0       -1.485812    5.050155   -1.991346
    166          1           0       -2.469016    6.584520   -1.831868
    167          7           0       -0.684856    6.482156    3.020564
    168          6           0       -0.807724    6.221363    4.444885
    169          1           0       -0.242869    5.323944    4.699688
    170          1           0       -0.413716    7.069477    5.005800
    171          1           0       -1.857061    6.073176    4.698454
    172          1           0        0.182645    6.692963    2.558284
    173         20           0       -4.256414    2.212012   -4.749845
    174          8           0       -3.838870    3.837386   -6.867914
    175          1           0       -4.218752    4.707511   -7.038418
    176          1           0       -3.192054    3.724013   -7.554482
 ---------------------------------------------------------------------

 SCF Done:  E(RB3LYP) =  -5333.32140097     A.U. after   34 cycles

 The electronic state is 1-A.
 Alpha  occ. eigenvalues -- -145.49315 -19.25292 -19.16904 -19.14108 -19.12907
 Alpha  occ. eigenvalues --  -19.12504 -19.10624 -19.10078 -19.09623 -19.09300
 Alpha  occ. eigenvalues --  -19.08951 -19.08625 -19.07836 -19.07186 -19.07175
 Alpha  occ. eigenvalues --  -19.07169 -19.06664 -19.06412 -19.05886 -19.05719
 Alpha  occ. eigenvalues --  -19.04098 -19.03506 -18.97589 -18.97222 -15.55229
 Alpha  occ. eigenvalues --  -14.57626 -14.38616 -14.38412 -14.37032 -14.35816
 Alpha  occ. eigenvalues --  -14.35159 -14.35045 -14.34163 -14.33937 -14.33635
 Alpha  occ. eigenvalues --  -14.32988 -14.32516 -14.32501 -14.32027 -14.30705
 Alpha  occ. eigenvalues --  -12.68861 -12.68779 -12.68744 -10.33044 -10.31270
 Alpha  occ. eigenvalues --  -10.30914 -10.29816 -10.28731 -10.28264 -10.28134
 Alpha  occ. eigenvalues --  -10.27328 -10.26422 -10.26380 -10.26377 -10.26230
 Alpha  occ. eigenvalues --  -10.26200 -10.26178 -10.25931 -10.25721 -10.25341
 Alpha  occ. eigenvalues --  -10.25148 -10.24964 -10.24928 -10.24446 -10.23674
 Alpha  occ. eigenvalues --  -10.23608 -10.23457 -10.23386 -10.22786 -10.22776
 Alpha  occ. eigenvalues --  -10.22667 -10.22636 -10.22044 -10.21992 -10.21363
 Alpha  occ. eigenvalues --  -10.19992 -10.19799 -10.19687 -10.19504 -10.19458
 Alpha  occ. eigenvalues --  -10.19332 -10.19110 -10.19104 -10.19012 -10.18790
 Alpha  occ. eigenvalues --  -10.18693 -10.18152 -10.17994 -10.17757 -10.17112
 Alpha  occ. eigenvalues --  -10.17010 -10.16795 -10.16528 -10.15531 -10.15306
 Alpha  occ. eigenvalues --  -10.15059 -10.10736  -1.91764  -1.19499  -1.18754
 Alpha  occ. eigenvalues --   -1.18645  -1.12919  -1.11053  -1.06269  -1.05550
 Alpha  occ. eigenvalues --   -1.05221  -1.04792  -1.04224  -1.03534  -1.03110
 Alpha  occ. eigenvalues --   -1.02134  -1.01607  -1.01007  -1.00965  -1.00443
 Alpha  occ. eigenvalues --   -1.00247  -1.00065  -0.99211  -0.99082  -0.98757
 Alpha  occ. eigenvalues --   -0.97276  -0.95468  -0.95376  -0.93831  -0.93481
 Alpha  occ. eigenvalues --   -0.92640  -0.92337  -0.91596  -0.90901  -0.90866
 Alpha  occ. eigenvalues --   -0.90525  -0.90295  -0.89928  -0.89482  -0.89114
 Alpha  occ. eigenvalues --   -0.88649  -0.87672  -0.87490  -0.87198  -0.85374
 Alpha  occ. eigenvalues --   -0.81918  -0.81793  -0.80848  -0.80017  -0.79779
 Alpha  occ. eigenvalues --   -0.78448  -0.77926  -0.77283  -0.76525  -0.75802
 Alpha  occ. eigenvalues --   -0.74617  -0.74578  -0.74338  -0.74201  -0.73558
 Alpha  occ. eigenvalues --   -0.73342  -0.73173  -0.72772  -0.71501  -0.70770
 Alpha  occ. eigenvalues --   -0.70359  -0.68362  -0.68112  -0.67439  -0.67195
 Alpha  occ. eigenvalues --   -0.66869  -0.65786  -0.65661  -0.64732  -0.64206
 Alpha  occ. eigenvalues --   -0.63659  -0.63335  -0.62664  -0.62398  -0.62239
 Alpha  occ. eigenvalues --   -0.61448  -0.61072  -0.60563  -0.60392  -0.59613
 Alpha  occ. eigenvalues --   -0.59329  -0.59137  -0.59066  -0.58331  -0.57964
 Alpha  occ. eigenvalues --   -0.57707  -0.57100  -0.56692  -0.56343  -0.56089
 Alpha  occ. eigenvalues --   -0.55806  -0.55760  -0.55538  -0.55469  -0.55194
 Alpha  occ. eigenvalues --   -0.54761  -0.54625  -0.54231  -0.53769  -0.53273
 Alpha  occ. eigenvalues --   -0.52754  -0.52617  -0.52460  -0.52432  -0.52260
 Alpha  occ. eigenvalues --   -0.52123  -0.51464  -0.51144  -0.50593  -0.50278
 Alpha  occ. eigenvalues --   -0.49987  -0.49518  -0.49288  -0.49118  -0.48892
 Alpha  occ. eigenvalues --   -0.48340  -0.48070  -0.47989  -0.47881  -0.47550
 Alpha  occ. eigenvalues --   -0.47496  -0.47263  -0.47032  -0.46941  -0.46460
 Alpha  occ. eigenvalues --   -0.46334  -0.46160  -0.46050  -0.45369  -0.45233
 Alpha  occ. eigenvalues --   -0.45112  -0.44815  -0.44557  -0.44479  -0.44450
 Alpha  occ. eigenvalues --   -0.44424  -0.44339  -0.43999  -0.43908  -0.43523
 Alpha  occ. eigenvalues --   -0.43213  -0.43079  -0.43046  -0.42851  -0.42645
 Alpha  occ. eigenvalues --   -0.42616  -0.42460  -0.42354  -0.42308  -0.42080
 Alpha  occ. eigenvalues --   -0.41970  -0.41894  -0.41750  -0.41734  -0.41604
 Alpha  occ. eigenvalues --   -0.41488  -0.41167  -0.40954  -0.40828  -0.40587
 Alpha  occ. eigenvalues --   -0.40547  -0.40468  -0.40330  -0.40044  -0.39801
 Alpha  occ. eigenvalues --   -0.39785  -0.39524  -0.39379  -0.39289  -0.38999
 Alpha  occ. eigenvalues --   -0.38880  -0.38757  -0.38573  -0.38297  -0.38264
 Alpha  occ. eigenvalues --   -0.38167  -0.38021  -0.37674  -0.37515  -0.37314
 Alpha  occ. eigenvalues --   -0.37274  -0.37235  -0.37159  -0.37103  -0.37094
 Alpha  occ. eigenvalues --   -0.36959  -0.36745  -0.36624  -0.36508  -0.36376
 Alpha  occ. eigenvalues --   -0.36334  -0.36317  -0.36141  -0.36083  -0.35654
 Alpha  occ. eigenvalues --   -0.35550  -0.35475  -0.35265  -0.35110  -0.34657
 Alpha  occ. eigenvalues --   -0.34589  -0.34221  -0.34168  -0.34144  -0.33627
 Alpha  occ. eigenvalues --   -0.33583  -0.33496  -0.33118  -0.33000  -0.32828
 Alpha  occ. eigenvalues --   -0.32197  -0.32106  -0.31992  -0.31972  -0.30569
 Alpha  occ. eigenvalues --   -0.30531  -0.30445  -0.29623  -0.28968  -0.28743
 Alpha  occ. eigenvalues --   -0.28177  -0.28030  -0.27619  -0.27455  -0.27192
 Alpha  occ. eigenvalues --   -0.27132  -0.27041  -0.26760  -0.26699  -0.26207
 Alpha  occ. eigenvalues --   -0.25977  -0.25770  -0.24894  -0.24849  -0.24628
 Alpha  occ. eigenvalues --   -0.24559  -0.24503  -0.24126  -0.24079  -0.23552
 Alpha  occ. eigenvalues --   -0.23345  -0.23319  -0.23266  -0.23161  -0.22997
 Alpha  occ. eigenvalues --   -0.22771  -0.22455  -0.22297  -0.22228  -0.22154
 Alpha  occ. eigenvalues --   -0.21505  -0.21496  -0.21141  -0.20052  -0.19453
 Alpha  occ. eigenvalues --   -0.14915  -0.14274  -0.12266
 Alpha virt. eigenvalues --   -0.11326  -0.09896  -0.04051  -0.03525  -0.03235
 Alpha virt. eigenvalues --   -0.02589  -0.02174  -0.01619  -0.01219  -0.00292
 Alpha virt. eigenvalues --   -0.00227   0.00283   0.01167   0.01207   0.01350

 Mulliken charges:
               1
     1  C    0.066479
     2  C    0.006455
     3  O   -0.302733
     4  H   -0.014167
     5  H    0.020813
     6  H    0.038617
     7  N   -0.112449
     8  C    0.121739
     9  C    0.070968
    10  O   -0.291609
    11  C    0.084526
    12  C    0.047651
    13  O   -0.414813
    14  O   -0.325191
    15  H    0.116732
    16  H   -0.017294
    17  H    0.016454
    18  H   -0.027248
    19  N   -0.115552
    20  C    0.060585
    21  C    0.113804
    22  O   -0.222592
    23  C    0.068722
    24  C    0.034451
    25  C   -0.059432
    26  C   -0.023233
    27  N    0.088980
    28  H    0.104600
    29  H   -0.000799
    30  H   -0.011045
    31  H    0.048641
    32  H    0.022963
    33  H    0.027154
    34  H    0.046859
    35  H    0.000470
    36  H    0.085068
    37  H    0.071416
    38  H    0.192379
    39  H    0.199152
    40  H    0.196720
    41  N   -0.106775
    42  C    0.097429
    43  C    0.052436
    44  O   -0.288089
    45  C    0.145063
    46  C    0.012658
    47  O   -0.358274
    48  O   -0.448353
    49  H    0.134943
    50  H   -0.000271
    51  H    0.004947
    52  H    0.030399
    53  N   -0.106254
    54  C    0.232807
    55  C    0.026952
    56  O   -0.261130
    57  H    0.120071
    58  H    0.024346
    59  H    0.015641
    60  N   -0.176255
    61  C    0.071441
    62  C    0.067667
    63  O   -0.270272
    64  C    0.138288
    65  C   -0.056637
    66  N   -0.027590
    67  O   -0.275449
    68  H    0.126961
    69  H    0.050083
    70  H    0.030505
    71  H   -0.018457
    72  H    0.117016
    73  H    0.120695
    74  N   -0.118433
    75  C    0.237351
    76  C    0.017545
    77  O   -0.287700
    78  H    0.134769
    79  H    0.012760
    80  H    0.028667
    81  N   -0.102078
    82  C    0.095382
    83  C    0.084836
    84  O   -0.309176
    85  C    0.165772
    86  C   -0.044333
    87  C    0.027663
    88  C    0.002316
    89  C   -0.038850
    90  C   -0.060239
    91  C    0.180125
    92  O   -0.192197
    93  H    0.120626
    94  H    0.026867
    95  H   -0.001400
    96  H    0.019114
    97  H   -0.023433
    98  H   -0.053037
    99  H   -0.021508
   100  H   -0.041467
   101  H    0.173622
   102  N   -0.116575
   103  C    0.167964
   104  C    0.044309
   105  O   -0.291249
   106  C   -0.092962
   107  C    0.026572
   108  C    0.076487
   109  C   -0.013751
   110  H    0.152745
   111  H    0.004102
   112  H   -0.010188
   113  H    0.000614
   114  H   -0.011298
   115  H   -0.008113
   116  H    0.008028
   117  H    0.022303
   118  H   -0.011700
   119  H    0.020948
   120  H    0.043996
   121  N   -0.129455
   122  C    0.102640
   123  C    0.033580
   124  O   -0.253349
   125  C    0.233864
   126  O   -0.324788
   127  H    0.130863
   128  H    0.008473
   129  H    0.017405
   130  H    0.002804
   131  H    0.167439
   132  N   -0.141360
   133  C    0.070621
   134  C    0.069724
   135  O   -0.282413
   136  C    0.071267
   137  H    0.126344
   138  H    0.019882
   139  H    0.024723
   140  H   -0.011062
   141  H    0.015386
   142  N   -0.127165
   143  C    0.077563
   144  C    0.045721
   145  O   -0.279657
   146  C    0.069833
   147  H    0.166178
   148  H   -0.001381
   149  H    0.027235
   150  H   -0.005319
   151  H    0.045250
   152  N   -0.130320
   153  C    0.126156
   154  C    0.042919
   155  O   -0.283046
   156  C    0.062628
   157  C    0.081966
   158  C    0.052008
   159  O   -0.384151
   160  O   -0.442295
   161  H    0.105129
   162  H    0.003275
   163  H    0.004937
   164  H    0.025334
   165  H   -0.036533
   166  H   -0.030436
   167  N   -0.130264
   168  C    0.135508
   169  H    0.027055
   170  H    0.008072
   171  H    0.040865
   172  H    0.121065
   173  Ca   1.264476
   174  O   -0.316335
   175  H    0.204077
   176  H    0.190492
 Sum of Mulliken charges =  -0.00000

 Dipole moment (field-independent basis, Debye):
    X=              5.8752    Y=             16.6248    Z=            -23.4796  Tot=             29.3631
 Quadrupole moment (field-independent basis, Debye-Ang):
   XX=           -419.9587   YY=           -620.3162   ZZ=           -481.3983
   XY=           -309.8414   XZ=            143.1457   YZ=            -28.7157

 ESP charges:
               1
     1  C   -0.385961
     2  C    0.701216
     3  O   -0.585665
     4  H    0.082722
     5  H    0.088490
     6  H    0.127032
     7  N   -0.714505
     8  C    0.350264
     9  C    0.649439
    10  O   -0.557997
    11  C   -0.417824
    12  C    0.735936
    13  O   -0.709780
    14  O   -0.638193
    15  H    0.348542
    16  H   -0.014221
    17  H    0.156255
    18  H    0.078944
    19  N   -0.582931
    20  C    0.167445
    21  C    0.673128
    22  O   -0.508582
    23  C   -0.310482
    24  C    0.149623
    25  C   -0.037313
    26  C    0.183788
    27  N   -0.556748
    28  H    0.301891
    29  H    0.012826
    30  H    0.047269
    31  H    0.136096
    32  H    0.029713
    33  H   -0.051549
    34  H    0.058731
    35  H    0.003151
    36  H    0.039551
    37  H    0.048994
    38  H    0.369126
    39  H    0.384491
    40  H    0.366022
    41  N   -0.605517
    42  C    0.119188
    43  C    0.632010
    44  O   -0.539104
    45  C   -0.122923
    46  C    0.750835
    47  O   -0.649898
    48  O   -0.823609
    49  H    0.323470
    50  H    0.035788
    51  H    0.061869
    52  H    0.022231
    53  N   -0.564641
    54  C    0.166471
    55  C    0.601787
    56  O   -0.511327
    57  H    0.299748
    58  H    0.041751
    59  H    0.024787
    60  N   -0.820767
    61  C    0.484604
    62  C    0.462187
    63  O   -0.479292
    64  C   -0.582633
    65  C    0.831539
    66  N   -0.833568
    67  O   -0.599875
    68  H    0.314208
    69  H    0.007561
    70  H    0.147538
    71  H    0.135636
    72  H    0.373709
    73  H    0.360406
    74  N   -0.422664
    75  C   -0.211103
    76  C    0.633005
    77  O   -0.545017
    78  H    0.326334
    79  H    0.112110
    80  H    0.142288
    81  N   -0.688156
    82  C    0.361814
    83  C    0.538895
    84  O   -0.566177
    85  C   -0.128304
    86  C    0.006485
    87  C   -0.192954
    88  C   -0.098873
    89  C   -0.186550
    90  C   -0.338540
    91  C    0.364111
    92  O   -0.539983
    93  H    0.346628
    94  H    0.021727
    95  H    0.072902
    96  H    0.081724
    97  H    0.149453
    98  H    0.104422
    99  H    0.138840
   100  H    0.146802
   101  H    0.405834
   102  N   -0.612064
   103  C   -0.183651
   104  C    0.650434
   105  O   -0.591108
   106  C    0.005991
   107  C    0.234465
   108  C   -0.083865
   109  C   -0.313043
   110  H    0.382173
   111  H    0.120803
   112  H    0.025174
   113  H   -0.027980
   114  H   -0.016945
   115  H   -0.071362
   116  H    0.044787
   117  H    0.060625
   118  H    0.111974
   119  H    0.064258
   120  H    0.082725
   121  N   -0.250738
   122  C   -0.282213
   123  C    0.633959
   124  O   -0.543403
   125  C   -0.038745
   126  O   -0.598679
   127  H    0.327013
   128  H    0.147891
   129  H    0.106074
   130  H    0.101690
   131  H    0.428502
   132  N   -0.323859
   133  C    0.232931
   134  C    0.529824
   135  O   -0.541504
   136  C   -0.313092
   137  H    0.233632
   138  H    0.037347
   139  H    0.095350
   140  H    0.058220
   141  H    0.080426
   142  N   -0.677896
   143  C    0.404956
   144  C    0.414445
   145  O   -0.452657
   146  C   -0.304524
   147  H    0.365149
   148  H    0.012131
   149  H    0.095838
   150  H    0.052141
   151  H    0.122986
   152  N   -0.420734
   153  C   -0.263753
   154  C    0.516679
   155  O   -0.533617
   156  C    0.386902
   157  C    0.098764
   158  C    0.477399
   159  O   -0.639492
   160  O   -0.719193
   161  H    0.223806
   162  H    0.120188
   163  H   -0.045767
   164  H   -0.010338
   165  H   -0.081086
   166  H   -0.049008
   167  N   -0.370622
   168  C    0.047249
   169  H    0.046211
   170  H    0.017581
   171  H    0.058529
   172  H    0.274905
   173  Ca   1.488308
   174  O   -0.854466
   175  H    0.429553
   176  H    0.447257
 Sum of ESP charges =   0.00000

 Normal termination of Gaussian 16 at Tue Sep 17 10:20:55 2019.
