 Gaussian 16, Revision A.03,
 Gaussian 16:  ES64L-G16RevA.03 25-Dec-2016

 ----------------------------------------------------------------------
 #b3lyp/svp scf=(tight,noincore) Test #IOP(5/87=12) Density=Current Pop
 =(MK,readradii) iop(6/33=2) iop(6/42=6)
 ----------------------------------------------------------------------

 -----------------
 Ng-293_loop3_62.0
 -----------------
 Symbolic Z-matrix:
 Charge =  0 Multiplicity = 1

                         Standard orientation:
 ---------------------------------------------------------------------
 Center     Atomic      Atomic             Coordinates (Angstroms)
 Number     Number       Type             X           Y           Z
 ---------------------------------------------------------------------
      1          6           0        9.509443    0.103350   -7.314000
      2          6           0        9.934970   -0.055485   -5.853555
      3          8           0       10.993069    0.407261   -5.440769
      4          1           0       10.360177   -0.101443   -7.964417
      5          1           0        8.704926   -0.597972   -7.537473
      6          1           0        9.161615    1.122889   -7.482394
      7          7           0        9.104674   -0.750863   -5.079501
      8          6           0        9.309575   -0.961496   -3.663115
      9          6           0        8.048380   -0.853733   -2.810369
     10          8           0        6.955000   -0.923497   -3.363227
     11          6           0        9.966290   -2.324436   -3.524482
     12          6           0       10.634739   -2.624264   -2.190961
     13          8           0       11.482231   -1.798602   -1.772106
     14          8           0       10.353145   -3.711008   -1.632218
     15          1           0        8.180245   -0.966707   -5.435088
     16          1           0        9.891378   -0.106234   -3.326319
     17          1           0       10.723662   -2.429422   -4.297505
     18          1           0        9.221509   -3.101945   -3.719882
     19          7           0        8.252626   -0.527854   -1.533464
     20          6           0        7.206254   -0.430727   -0.531929
     21          6           0        6.495773   -1.741746   -0.242365
     22          8           0        6.250375   -2.572129   -1.119544
     23          6           0        6.192521    0.685094   -0.787055
     24          6           0        6.758646    2.034224   -1.197486
     25          6           0        7.597418    2.617966   -0.060161
     26          6           0        8.324784    3.929075   -0.345871
     27          7           0        8.896546    4.576320    0.844113
     28          1           0        9.174947   -0.187567   -1.327241
     29          1           0        7.741147   -0.215897    0.388689
     30          1           0        5.610553    0.836373    0.124497
     31          1           0        5.601623    0.360879   -1.641353
     32          1           0        5.874312    2.647565   -1.385012
     33          1           0        7.420049    2.037806   -2.071518
     34          1           0        8.366107    1.930795    0.298466
     35          1           0        6.988686    2.669842    0.841257
     36          1           0        7.674010    4.619889   -0.883894
     37          1           0        9.117136    3.629973   -1.034069
     38          1           0        9.551103    3.990680    1.337147
     39          1           0        9.371233    5.423051    0.560706
     40          1           0        8.164940    4.923128    1.446671
     41          7           0        6.059664   -1.923812    0.997982
     42          6           0        5.347851   -3.070356    1.523016
     43          6           0        3.937967   -3.230335    0.983819
     44          8           0        3.438549   -4.349783    1.096598
     45          6           0        5.291076   -2.945158    3.040119
     46          6           0        4.802970   -1.608313    3.590390
     47          8           0        5.459349   -0.544530    3.569616
     48          8           0        3.629467   -1.560327    4.008467
     49          1           0        6.438151   -1.343747    1.739043
     50          1           0        5.847579   -3.964114    1.144906
     51          1           0        6.289251   -3.077658    3.469991
     52          1           0        4.643281   -3.720719    3.457572
     53          7           0        3.290706   -2.145760    0.550866
     54          6           0        2.081307   -2.204643   -0.246372
     55          6           0        0.862383   -2.842019    0.412775
     56          8           0        0.013142   -3.377645   -0.290643
     57          1           0        3.776053   -1.257613    0.583007
     58          1           0        2.300254   -2.744166   -1.166957
     59          1           0        1.784867   -1.190694   -0.528208
     60          7           0        0.743474   -2.910065    1.739624
     61          6           0       -0.198013   -3.737942    2.459084
     62          6           0       -1.681310   -3.626081    2.131342
     63          8           0       -2.298221   -2.567995    2.292508
     64          6           0        0.067111   -3.519553    3.938819
     65          6           0        1.110364   -4.530473    4.399431
     66          7           0        2.307998   -4.027743    4.692921
     67          8           0        0.880430   -5.737560    4.423338
     68          1           0        1.435964   -2.370655    2.247555
     69          1           0        0.034802   -4.780471    2.241986
     70          1           0       -0.760212   -3.725430    4.610497
     71          1           0        0.404551   -2.497414    4.122847
     72          1           0        2.487125   -3.038400    4.689169
     73          1           0        3.030270   -4.689334    4.942962
     74          7           0       -2.283480   -4.785474    1.890926
     75          6           0       -3.724710   -4.950724    1.930253
     76          6           0       -4.523524   -4.484800    0.722896
     77          8           0       -4.135452   -4.678194   -0.427886
     78          1           0       -1.724330   -5.564981    1.587083
     79          1           0       -4.207529   -4.437750    2.762144
     80          1           0       -3.973317   -5.979390    2.187435
     81          7           0       -5.705794   -3.916984    0.959589
     82          6           0       -6.591473   -3.402943   -0.075899
     83          6           0       -6.151039   -2.128838   -0.790094
     84          8           0       -6.837416   -1.700277   -1.710812
     85          6           0       -6.967320   -4.619339   -0.917337
     86          6           0       -8.263421   -4.575847   -1.700363
     87          6           0       -8.244575   -4.174969   -3.037727
     88          6           0       -9.490823   -4.729046   -1.041414
     89          6           0       -9.470221   -3.973430   -3.692078
     90          6           0      -10.727713   -4.519422   -1.646692
     91          6           0      -10.693993   -4.206284   -3.021212
     92          8           0      -11.810053   -3.867976   -3.717816
     93          1           0       -5.956795   -3.790042    1.926534
     94          1           0       -7.473440   -3.159149    0.513253
     95          1           0       -7.103297   -5.508746   -0.300681
     96          1           0       -6.158132   -4.779571   -1.630669
     97          1           0       -7.312065   -3.977717   -3.547351
     98          1           0       -9.487720   -5.050354   -0.009643
     99          1           0       -9.548538   -3.519990   -4.656888
    100          1           0      -11.685931   -4.594037   -1.157049
    101          1           0      -12.580715   -3.932456   -3.142036
    102          7           0       -5.075407   -1.503417   -0.302278
    103          6           0       -4.534935   -0.235716   -0.754078
    104          6           0       -5.366351    0.952361   -0.304832
    105          8           0       -4.933479    1.841938    0.424191
    106          6           0       -4.148408   -0.093024   -2.217340
    107          6           0       -3.602481   -1.376633   -2.840568
    108          6           0       -3.203245    1.095783   -2.312768
    109          6           0       -2.373561   -1.888704   -2.089477
    110          1           0       -4.626136   -1.891767    0.514692
    111          1           0       -3.595547   -0.156669   -0.201355
    112          1           0       -5.047373    0.131820   -2.798638
    113          1           0       -3.283837   -1.146961   -3.852801
    114          1           0       -4.342691   -2.172149   -2.822065
    115          1           0       -2.905716    1.136298   -3.357773
    116          1           0       -3.706436    2.058168   -2.154609
    117          1           0       -2.386004    1.014763   -1.584378
    118          1           0       -2.650315   -2.166798   -1.078007
    119          1           0       -2.014853   -2.723069   -2.707348
    120          1           0       -1.557400   -1.177080   -1.919848
    121          7           0       -6.666117    0.931340   -0.603271
    122          6           0       -7.563578    1.856462    0.063673
    123          6           0       -7.152319    3.300026   -0.163458
    124          8           0       -7.329075    4.193428    0.667740
    125          6           0       -8.972708    1.516222   -0.396748
    126          8           0       -9.205483    1.609476   -1.792033
    127          1           0       -7.012304    0.167888   -1.170189
    128          1           0       -7.465911    1.509547    1.096878
    129          1           0       -9.637077    2.127544    0.216358
    130          1           0       -9.152203    0.459214   -0.182231
    131          1           0       -9.886396    0.985478   -2.063297
    132          7           0       -6.628205    3.606957   -1.351228
    133          6           0       -5.959603    4.835826   -1.740781
    134          6           0       -5.012192    5.559977   -0.797320
    135          8           0       -4.721053    6.735447   -0.958901
    136          6           0       -7.049012    5.681668   -2.384473
    137          1           0       -6.644576    2.809400   -1.961257
    138          1           0       -5.272141    4.411769   -2.485409
    139          1           0       -6.610422    6.255747   -3.203846
    140          1           0       -7.794334    4.999897   -2.787320
    141          1           0       -7.510709    6.285870   -1.595376
    142          7           0       -4.589093    4.837706    0.245950
    143          6           0       -3.616829    5.295872    1.216510
    144          6           0       -2.189621    5.210774    0.699659
    145          8           0       -1.885688    4.380108   -0.145337
    146          6           0       -3.679468    4.512743    2.521226
    147          1           0       -4.865914    3.866093    0.314058
    148          1           0       -3.804381    6.335696    1.468878
    149          1           0       -3.282491    3.491949    2.466543
    150          1           0       -3.277954    5.013543    3.396775
    151          1           0       -4.752589    4.401698    2.684878
    152          7           0       -1.295012    6.002018    1.302077
    153          6           0        0.133838    5.969728    1.062189
    154          6           0        0.558168    6.190332   -0.386906
    155          8           0        1.701374    5.910323   -0.718682
    156          6           0        0.769946    4.746249    1.702944
    157          6           0        0.521883    4.617358    3.207887
    158          6           0        0.846190    3.217550    3.688055
    159          8           0        1.989080    2.731098    3.596031
    160          8           0       -0.071991    2.492417    4.147322
    161          1           0       -1.642583    6.602618    2.032332
    162          1           0        0.492418    6.767506    1.703727
    163          1           0        1.841048    4.867392    1.573846
    164          1           0        0.445886    3.833678    1.198267
    165          1           0       -0.529065    4.884868    3.369274
    166          1           0        1.098789    5.414755    3.671284
    167          7           0       -0.293698    6.696347   -1.284944
    168          6           0        0.055272    6.766326   -2.685738
    169          1           0        1.102581    7.051240   -2.784505
    170          1           0       -0.101394    5.791602   -3.149155
    171          1           0       -0.570268    7.509048   -3.179865
    172          1           0       -1.234970    6.953639   -1.007081
    173         20           0        3.672484    1.012382    4.434046
    174          8           0        2.856010    2.117983    6.609986
    175          1           0        3.118969    2.751970    7.285125
    176          1           0        1.920450    1.983528    6.768259
 ---------------------------------------------------------------------

 SCF Done:  E(RB3LYP) =  -5333.37913593     A.U. after   36 cycles

 The electronic state is 1-A.
 Alpha  occ. eigenvalues -- -145.49841 -19.24878 -19.15975 -19.15790 -19.15163
 Alpha  occ. eigenvalues --  -19.13991 -19.11200 -19.10036 -19.10025 -19.09734
 Alpha  occ. eigenvalues --  -19.09567 -19.09536 -19.08606 -19.08575 -19.08533
 Alpha  occ. eigenvalues --  -19.08491 -19.08394 -19.08095 -19.07634 -19.07549
 Alpha  occ. eigenvalues --  -19.05063 -19.04784 -18.98096 -18.98028 -15.55851
 Alpha  occ. eigenvalues --  -14.58570 -14.37142 -14.36968 -14.36787 -14.36415
 Alpha  occ. eigenvalues --  -14.36310 -14.35449 -14.35233 -14.35023 -14.34596
 Alpha  occ. eigenvalues --  -14.34497 -14.34378 -14.33559 -14.32127 -14.31318
 Alpha  occ. eigenvalues --  -12.69465 -12.69446 -12.69315 -10.35098 -10.34027
 Alpha  occ. eigenvalues --  -10.29779 -10.28820 -10.28813 -10.28813 -10.28211
 Alpha  occ. eigenvalues --  -10.27943 -10.27842 -10.27800 -10.27545 -10.27508
 Alpha  occ. eigenvalues --  -10.26808 -10.26788 -10.26484 -10.26354 -10.26060
 Alpha  occ. eigenvalues --  -10.25641 -10.25173 -10.24812 -10.24652 -10.24581
 Alpha  occ. eigenvalues --  -10.24440 -10.24388 -10.24371 -10.23699 -10.23678
 Alpha  occ. eigenvalues --  -10.23448 -10.23372 -10.22762 -10.22535 -10.22440
 Alpha  occ. eigenvalues --  -10.22059 -10.21688 -10.21156 -10.20323 -10.18863
 Alpha  occ. eigenvalues --  -10.18840 -10.18775 -10.18547 -10.18218 -10.18063
 Alpha  occ. eigenvalues --  -10.17762 -10.17699 -10.17649 -10.17599 -10.17217
 Alpha  occ. eigenvalues --  -10.17096 -10.16511 -10.16312 -10.16303 -10.15818
 Alpha  occ. eigenvalues --  -10.14142 -10.11386  -1.92584  -1.20290  -1.20165
 Alpha  occ. eigenvalues --   -1.19392  -1.13931  -1.10820  -1.10489  -1.04835
 Alpha  occ. eigenvalues --   -1.04619  -1.03716  -1.03554  -1.03187  -1.02775
 Alpha  occ. eigenvalues --   -1.02509  -1.02290  -1.01813  -1.01579  -1.01570
 Alpha  occ. eigenvalues --   -1.01434  -1.01376  -1.01010  -1.00905  -1.00037
 Alpha  occ. eigenvalues --   -0.99713  -0.98251  -0.94099  -0.94018  -0.92923
 Alpha  occ. eigenvalues --   -0.92834  -0.92516  -0.92453  -0.92252  -0.92065
 Alpha  occ. eigenvalues --   -0.91801  -0.91532  -0.90643  -0.90245  -0.90180
 Alpha  occ. eigenvalues --   -0.89603  -0.89187  -0.89064  -0.88158  -0.84284
 Alpha  occ. eigenvalues --   -0.82997  -0.82399  -0.81110  -0.80913  -0.79568
 Alpha  occ. eigenvalues --   -0.79412  -0.78734  -0.77690  -0.77045  -0.75977
 Alpha  occ. eigenvalues --   -0.75024  -0.74388  -0.74291  -0.74179  -0.73798
 Alpha  occ. eigenvalues --   -0.73548  -0.72947  -0.72618  -0.72306  -0.71580
 Alpha  occ. eigenvalues --   -0.70213  -0.69249  -0.69187  -0.68857  -0.68147
 Alpha  occ. eigenvalues --   -0.67394  -0.65732  -0.65258  -0.64499  -0.64303
 Alpha  occ. eigenvalues --   -0.63662  -0.63088  -0.62859  -0.62371  -0.62222
 Alpha  occ. eigenvalues --   -0.62060  -0.61553  -0.61112  -0.60634  -0.60411
 Alpha  occ. eigenvalues --   -0.60005  -0.59640  -0.58935  -0.58800  -0.58715
 Alpha  occ. eigenvalues --   -0.58448  -0.58302  -0.58078  -0.57753  -0.56984
 Alpha  occ. eigenvalues --   -0.56746  -0.56455  -0.55705  -0.55641  -0.55465
 Alpha  occ. eigenvalues --   -0.54899  -0.54752  -0.54644  -0.54319  -0.54035
 Alpha  occ. eigenvalues --   -0.53764  -0.53473  -0.53313  -0.52965  -0.52455
 Alpha  occ. eigenvalues --   -0.52377  -0.52163  -0.52027  -0.51523  -0.51181
 Alpha  occ. eigenvalues --   -0.51046  -0.50829  -0.50271  -0.49991  -0.49715
 Alpha  occ. eigenvalues --   -0.49565  -0.49314  -0.48959  -0.48707  -0.48401
 Alpha  occ. eigenvalues --   -0.48342  -0.47934  -0.47850  -0.47180  -0.46950
 Alpha  occ. eigenvalues --   -0.46438  -0.46336  -0.46244  -0.46199  -0.46044
 Alpha  occ. eigenvalues --   -0.45776  -0.45605  -0.45342  -0.45156  -0.45116
 Alpha  occ. eigenvalues --   -0.45060  -0.44624  -0.44480  -0.44365  -0.44259
 Alpha  occ. eigenvalues --   -0.44112  -0.43859  -0.43611  -0.43282  -0.43090
 Alpha  occ. eigenvalues --   -0.42963  -0.42841  -0.42834  -0.42530  -0.42518
 Alpha  occ. eigenvalues --   -0.42288  -0.42124  -0.42071  -0.42007  -0.41914
 Alpha  occ. eigenvalues --   -0.41699  -0.41525  -0.41465  -0.41167  -0.41021
 Alpha  occ. eigenvalues --   -0.40769  -0.40694  -0.40545  -0.40505  -0.40492
 Alpha  occ. eigenvalues --   -0.40114  -0.40074  -0.39917  -0.39845  -0.39643
 Alpha  occ. eigenvalues --   -0.39605  -0.39446  -0.39248  -0.39239  -0.38785
 Alpha  occ. eigenvalues --   -0.38718  -0.38436  -0.38347  -0.38291  -0.38213
 Alpha  occ. eigenvalues --   -0.38136  -0.38073  -0.37998  -0.37868  -0.37815
 Alpha  occ. eigenvalues --   -0.37778  -0.37496  -0.37349  -0.37060  -0.37019
 Alpha  occ. eigenvalues --   -0.36863  -0.36507  -0.36106  -0.35898  -0.35775
 Alpha  occ. eigenvalues --   -0.35369  -0.35307  -0.35290  -0.35212  -0.34936
 Alpha  occ. eigenvalues --   -0.34793  -0.34753  -0.34637  -0.34632  -0.34181
 Alpha  occ. eigenvalues --   -0.33953  -0.33688  -0.33615  -0.33544  -0.33175
 Alpha  occ. eigenvalues --   -0.33154  -0.32946  -0.32476  -0.32377  -0.32009
 Alpha  occ. eigenvalues --   -0.31823  -0.31206  -0.31004  -0.29886  -0.28826
 Alpha  occ. eigenvalues --   -0.28791  -0.28558  -0.28420  -0.28245  -0.28124
 Alpha  occ. eigenvalues --   -0.27799  -0.27496  -0.26965  -0.26858  -0.26764
 Alpha  occ. eigenvalues --   -0.26607  -0.26526  -0.26176  -0.25804  -0.25285
 Alpha  occ. eigenvalues --   -0.25230  -0.25011  -0.24995  -0.24895  -0.24613
 Alpha  occ. eigenvalues --   -0.24513  -0.24491  -0.24208  -0.24067  -0.24062
 Alpha  occ. eigenvalues --   -0.23963  -0.23780  -0.23420  -0.22981  -0.22804
 Alpha  occ. eigenvalues --   -0.22528  -0.22174  -0.21320  -0.21022  -0.20536
 Alpha  occ. eigenvalues --   -0.15380  -0.14592  -0.12743
 Alpha virt. eigenvalues --   -0.11556  -0.10931  -0.05213  -0.04703  -0.04635
 Alpha virt. eigenvalues --   -0.03047  -0.01985  -0.01416  -0.01245  -0.00680
 Alpha virt. eigenvalues --   -0.00258   0.00337   0.00528   0.00808   0.00930

 Mulliken charges:
               1
     1  C    0.061595
     2  C    0.004574
     3  O   -0.294694
     4  H    0.032845
     5  H   -0.003048
     6  H    0.022685
     7  N   -0.129915
     8  C    0.088208
     9  C    0.083727
    10  O   -0.274860
    11  C    0.139237
    12  C    0.021607
    13  O   -0.386114
    14  O   -0.335969
    15  H    0.113235
    16  H   -0.024931
    17  H    0.006344
    18  H   -0.021818
    19  N   -0.123336
    20  C    0.081524
    21  C    0.078975
    22  O   -0.224474
    23  C    0.073394
    24  C    0.074420
    25  C   -0.086592
    26  C    0.041730
    27  N    0.123989
    28  H    0.123866
    29  H   -0.027968
    30  H   -0.030711
    31  H    0.045413
    32  H    0.031123
    33  H    0.034488
    34  H    0.011966
    35  H   -0.021059
    36  H    0.073565
    37  H    0.086209
    38  H    0.159293
    39  H    0.157760
    40  H    0.142696
    41  N   -0.153217
    42  C    0.104484
    43  C    0.064053
    44  O   -0.255406
    45  C    0.120549
    46  C    0.104310
    47  O   -0.464100
    48  O   -0.437684
    49  H    0.119989
    50  H    0.055064
    51  H    0.035736
    52  H    0.019390
    53  N   -0.155906
    54  C    0.204011
    55  C    0.028857
    56  O   -0.274107
    57  H    0.118275
    58  H    0.056055
    59  H    0.034288
    60  N   -0.096609
    61  C    0.123714
    62  C    0.122242
    63  O   -0.302395
    64  C    0.077496
    65  C   -0.021072
    66  N   -0.040193
    67  O   -0.270274
    68  H    0.102690
    69  H    0.014811
    70  H    0.027696
    71  H   -0.007014
    72  H    0.107726
    73  H    0.130070
    74  N   -0.110550
    75  C    0.210977
    76  C    0.041454
    77  O   -0.259342
    78  H    0.142867
    79  H   -0.020749
    80  H    0.033250
    81  N   -0.168549
    82  C    0.143115
    83  C    0.105047
    84  O   -0.294372
    85  C    0.127911
    86  C   -0.016746
    87  C    0.039227
    88  C   -0.018383
    89  C   -0.018600
    90  C   -0.038098
    91  C    0.132945
    92  O   -0.195743
    93  H    0.117299
    94  H   -0.004555
    95  H   -0.006148
    96  H    0.031054
    97  H   -0.021840
    98  H   -0.046476
    99  H   -0.027090
   100  H   -0.049188
   101  H    0.168835
   102  N   -0.102225
   103  C    0.149698
   104  C    0.055333
   105  O   -0.276306
   106  C   -0.123125
   107  C    0.064189
   108  C    0.084332
   109  C    0.000022
   110  H    0.137737
   111  H    0.008008
   112  H   -0.017200
   113  H   -0.014169
   114  H    0.010149
   115  H   -0.004662
   116  H    0.007821
   117  H    0.030614
   118  H    0.011474
   119  H    0.020882
   120  H   -0.010394
   121  N   -0.163827
   122  C    0.117763
   123  C    0.045915
   124  O   -0.279551
   125  C    0.220244
   126  O   -0.321810
   127  H    0.132618
   128  H    0.015034
   129  H    0.013582
   130  H   -0.006065
   131  H    0.180830
   132  N   -0.131707
   133  C    0.054868
   134  C    0.076667
   135  O   -0.282560
   136  C    0.095980
   137  H    0.115452
   138  H    0.015732
   139  H    0.010674
   140  H    0.001154
   141  H    0.035495
   142  N   -0.109163
   143  C    0.083038
   144  C    0.051096
   145  O   -0.265239
   146  C    0.048568
   147  H    0.152226
   148  H   -0.015489
   149  H    0.043239
   150  H    0.007051
   151  H    0.031427
   152  N   -0.150113
   153  C    0.130727
   154  C    0.086009
   155  O   -0.297500
   156  C    0.007524
   157  C    0.100724
   158  C    0.098435
   159  O   -0.516258
   160  O   -0.350230
   161  H    0.115682
   162  H   -0.020907
   163  H   -0.012400
   164  H    0.024947
   165  H   -0.025464
   166  H   -0.043170
   167  N   -0.136005
   168  C    0.137337
   169  H    0.024072
   170  H    0.030562
   171  H    0.013956
   172  H    0.129105
   173  Ca   1.344381
   174  O   -0.331274
   175  H    0.201195
   176  H    0.213183
 Sum of Mulliken charges =  -0.00000

 Dipole moment (field-independent basis, Debye):
    X=             -0.4517    Y=             24.7540    Z=             25.2109  Tot=             35.3349
 Quadrupole moment (field-independent basis, Debye-Ang):
   XX=           -635.9159   YY=           -575.0352   ZZ=           -489.4918
   XY=            310.5051   XZ=            156.4510   YZ=             13.6388

 ESP charges:
               1
     1  C   -0.471072
     2  C    0.739944
     3  O   -0.585538
     4  H    0.136387
     5  H    0.108744
     6  H    0.111323
     7  N   -0.658786
     8  C    0.262377
     9  C    0.603339
    10  O   -0.542274
    11  C   -0.252938
    12  C    0.699537
    13  O   -0.686112
    14  O   -0.638849
    15  H    0.312938
    16  H   -0.012230
    17  H    0.109229
    18  H    0.048238
    19  N   -0.500870
    20  C    0.083022
    21  C    0.412450
    22  O   -0.429671
    23  C   -0.118093
    24  C   -0.014218
    25  C    0.029446
    26  C    0.056878
    27  N   -0.348414
    28  H    0.273455
    29  H    0.041844
    30  H    0.024598
    31  H    0.100076
    32  H    0.043106
    33  H    0.026174
    34  H    0.040451
    35  H   -0.032620
    36  H    0.065589
    37  H    0.085478
    38  H    0.297567
    39  H    0.300152
    40  H    0.284931
    41  N   -0.235248
    42  C   -0.094729
    43  C    0.423861
    44  O   -0.463003
    45  C   -0.191728
    46  C    0.784478
    47  O   -0.805920
    48  O   -0.779480
    49  H    0.211255
    50  H    0.141935
    51  H    0.086261
    52  H    0.094681
    53  N   -0.077247
    54  C   -0.351641
    55  C    0.726335
    56  O   -0.598127
    57  H    0.132236
    58  H    0.164441
    59  H    0.144806
    60  N   -0.583284
    61  C    0.290539
    62  C    0.640698
    63  O   -0.547421
    64  C   -0.650443
    65  C    0.793116
    66  N   -0.823829
    67  O   -0.588529
    68  H    0.268105
    69  H    0.069672
    70  H    0.184822
    71  H    0.193079
    72  H    0.368929
    73  H    0.365529
    74  N   -0.661395
    75  C    0.253094
    76  C    0.522320
    77  O   -0.516058
    78  H    0.356587
    79  H   -0.004615
    80  H    0.036689
    81  N   -0.832982
    82  C    0.596368
    83  C    0.166095
    84  O   -0.438800
    85  C   -0.195414
    86  C   -0.015732
    87  C   -0.144481
    88  C   -0.112691
    89  C   -0.228755
    90  C   -0.326336
    91  C    0.364635
    92  O   -0.549168
    93  H    0.367307
    94  H   -0.018719
    95  H    0.082270
    96  H    0.124432
    97  H    0.139620
    98  H    0.113492
    99  H    0.156966
   100  H    0.144574
   101  H    0.403414
   102  N   -0.271737
   103  C   -0.180105
   104  C    0.456226
   105  O   -0.488928
   106  C    0.377822
   107  C   -0.229249
   108  C   -0.331169
   109  C   -0.111133
   110  H    0.277043
   111  H    0.128600
   112  H   -0.071875
   113  H    0.050853
   114  H    0.100924
   115  H    0.087952
   116  H    0.037847
   117  H    0.099884
   118  H    0.074178
   119  H    0.068726
   120  H    0.011309
   121  N   -0.117869
   122  C   -0.348734
   123  C    0.720836
   124  O   -0.588081
   125  C    0.159326
   126  O   -0.638196
   127  H    0.216046
   128  H    0.146194
   129  H    0.053045
   130  H    0.028207
   131  H    0.437432
   132  N   -0.260016
   133  C    0.288051
   134  C    0.385573
   135  O   -0.524329
   136  C   -0.396793
   137  H    0.181964
   138  H    0.024667
   139  H    0.087692
   140  H    0.088967
   141  H    0.123617
   142  N   -0.311720
   143  C    0.393256
   144  C    0.449027
   145  O   -0.473744
   146  C   -0.282174
   147  H    0.077521
   148  H   -0.038200
   149  H    0.109414
   150  H    0.055025
   151  H    0.080306
   152  N   -0.674296
   153  C   -0.060366
   154  C    0.355703
   155  O   -0.504555
   156  C    0.543544
   157  C   -0.247210
   158  C    0.751603
   159  O   -0.900477
   160  O   -0.653569
   161  H    0.360585
   162  H    0.088178
   163  H   -0.151150
   164  H   -0.040686
   165  H    0.018529
   166  H    0.018040
   167  N   -0.185580
   168  C   -0.160957
   169  H    0.084158
   170  H    0.099563
   171  H    0.078161
   172  H    0.239311
   173  Ca   1.632363
   174  O   -0.897600
   175  H    0.460874
   176  H    0.449906
 Sum of ESP charges =   0.00000

 Normal termination of Gaussian 16 at Tue Sep 17 12:59:30 2019.
