 Gaussian 16, Revision A.03,
 Gaussian 16:  ES64L-G16RevA.03 25-Dec-2016

 ----------------------------------------------------------------------
 #b3lyp/svp scf=(tight,noincore) Test #IOP(5/87=12) Density=Current Pop
 =(MK,readradii) iop(6/33=2) iop(6/42=6)
 ----------------------------------------------------------------------

 -----------------
 Ng-295_loop3_18.0
 -----------------
 Symbolic Z-matrix:
 Charge =  0 Multiplicity = 1

                         Standard orientation:
 ---------------------------------------------------------------------
 Center     Atomic      Atomic             Coordinates (Angstroms)
 Number     Number       Type             X           Y           Z
 ---------------------------------------------------------------------
      1          6           0        8.529114   -3.604528    5.132507
      2          6           0        7.125930   -3.331378    4.623918
      3          8           0        6.167512   -4.020154    4.987268
      4          1           0        8.511435   -4.466378    5.799728
      5          1           0        9.188133   -3.811826    4.289472
      6          1           0        8.895462   -2.733297    5.675093
      7          7           0        6.943223   -2.352798    3.733357
      8          6           0        5.869775   -2.182142    2.779268
      9          6           0        6.083865   -3.176510    1.648651
     10          8           0        7.196705   -3.243564    1.123207
     11          6           0        5.627349   -0.763930    2.279165
     12          6           0        4.523568   -0.701512    1.236394
     13          8           0        3.353641   -0.336605    1.514807
     14          8           0        4.826156   -0.874669    0.039583
     15          1           0        7.685968   -1.698326    3.526239
     16          1           0        4.955967   -2.528554    3.271056
     17          1           0        6.531737   -0.414251    1.786612
     18          1           0        5.392628   -0.111196    3.120024
     19          7           0        5.019041   -3.867626    1.221322
     20          6           0        5.047130   -4.909394    0.217814
     21          6           0        5.661510   -4.521754   -1.116080
     22          8           0        6.188172   -5.349618   -1.855451
     23          6           0        3.644768   -5.476286    0.032842
     24          6           0        3.638733   -6.642126   -0.949645
     25          6           0        2.497546   -7.604468   -0.680407
     26          6           0        1.047215   -7.132321   -0.804578
     27          7           0        0.749643   -6.656569   -2.166382
     28          1           0        4.191506   -3.853079    1.800093
     29          1           0        5.649352   -5.766000    0.516068
     30          1           0        3.013181   -4.705498   -0.400960
     31          1           0        3.278575   -5.780729    1.019055
     32          1           0        4.606670   -7.123710   -0.807955
     33          1           0        3.773884   -6.376000   -1.999508
     34          1           0        2.665880   -8.050968    0.306508
     35          1           0        2.626809   -8.386771   -1.429669
     36          1           0        0.850765   -6.439245   -0.001239
     37          1           0        0.403827   -8.006714   -0.668611
     38          1           0        0.954736   -7.359504   -2.856902
     39          1           0       -0.230211   -6.458558   -2.326624
     40          1           0        1.233644   -5.788614   -2.327928
     41          7           0        5.549913   -3.245551   -1.480843
     42          6           0        6.029616   -2.674366   -2.725445
     43          6           0        7.019444   -1.530500   -2.578102
     44          8           0        7.784704   -1.253806   -3.498927
     45          6           0        4.816595   -2.431617   -3.613788
     46          6           0        3.795253   -1.540040   -2.916042
     47          8           0        4.003222   -0.319517   -2.748191
     48          8           0        2.743225   -2.142734   -2.600930
     49          1           0        5.157993   -2.595957   -0.809035
     50          1           0        6.656329   -3.406955   -3.244332
     51          1           0        4.407600   -3.345510   -4.048785
     52          1           0        5.131380   -1.849073   -4.478688
     53          7           0        7.207610   -0.927192   -1.404342
     54          6           0        8.089435    0.183368   -1.115134
     55          6           0        7.471237    1.559519   -1.350803
     56          8           0        8.122839    2.575059   -1.116080
     57          1           0        6.545295   -1.166641   -0.676948
     58          1           0        9.046408    0.098679   -1.626632
     59          1           0        8.363537    0.149979   -0.058558
     60          7           0        6.217152    1.699289   -1.781425
     61          6           0        5.361700    2.865016   -1.693779
     62          6           0        4.470386    2.693435   -0.471356
     63          8           0        3.612308    1.813084   -0.462169
     64          6           0        4.626050    3.195640   -2.986840
     65          6           0        3.615807    4.308131   -2.789168
     66          7           0        4.132953    5.534898   -2.872257
     67          8           0        2.416985    4.109830   -2.599424
     68          1           0        5.810479    0.861893   -2.179777
     69          1           0        6.021599    3.713097   -1.492055
     70          1           0        4.163548    2.310591   -3.424081
     71          1           0        5.390475    3.523111   -3.680682
     72          1           0        5.058269    5.801566   -3.192848
     73          1           0        3.422942    6.242155   -2.742754
     74          7           0        4.645238    3.605285    0.484863
     75          6           0        4.251899    3.531553    1.875348
     76          6           0        2.757511    3.377157    2.101324
     77          8           0        2.379710    3.072681    3.230244
     78          1           0        5.193513    4.432560    0.273178
     79          1           0        4.669831    4.330747    2.494639
     80          1           0        4.690039    2.635530    2.326321
     81          7           0        1.906083    3.626980    1.104349
     82          6           0        0.465989    3.776067    1.173640
     83          6           0       -0.297191    2.475982    0.966917
     84          8           0        0.282138    1.607406    0.320114
     85          6           0        0.048369    4.889736    0.223359
     86          6           0        0.469329    6.286994    0.614591
     87          6           0        1.632439    6.937512    0.181692
     88          6           0       -0.477668    6.930223    1.427643
     89          6           0        1.918313    8.154998    0.814862
     90          6           0       -0.216135    8.183896    1.992272
     91          6           0        1.015595    8.788477    1.694580
     92          8           0        1.313711    9.996109    2.265677
     93          1           0        2.360051    3.842687    0.226862
     94          1           0        0.095962    4.101983    2.154079
     95          1           0       -1.037535    4.904766    0.195297
     96          1           0        0.473719    4.631912   -0.755367
     97          1           0        2.420632    6.397974   -0.324718
     98          1           0       -1.401813    6.444642    1.713943
     99          1           0        2.821701    8.670844    0.521274
    100          1           0       -1.022790    8.698978    2.490867
    101          1           0        0.644903   10.478658    2.757959
    102          7           0       -1.543415    2.455574    1.454163
    103          6           0       -2.526368    1.404704    1.357854
    104          6           0       -2.933959    1.088846   -0.069137
    105          8           0       -2.112417    1.130317   -0.988240
    106          6           0       -2.329486    0.198023    2.276144
    107          6           0       -2.515287    0.530470    3.760684
    108          6           0       -0.971730   -0.480153    2.137670
    109          6           0       -2.467519   -0.548757    4.837153
    110          1           0       -1.680880    3.222023    2.106052
    111          1           0       -3.438127    1.891097    1.721060
    112          1           0       -3.092224   -0.544881    2.090605
    113          1           0       -3.488632    0.977759    3.931075
    114          1           0       -1.904805    1.381035    4.058594
    115          1           0       -0.259713    0.210508    2.593761
    116          1           0       -0.949409   -1.418368    2.692155
    117          1           0       -0.693397   -0.743718    1.114751
    118          1           0       -2.575735   -0.164647    5.848711
    119          1           0       -3.293120   -1.254274    4.670334
    120          1           0       -1.576830   -1.169061    4.814863
    121          7           0       -4.207527    0.718859   -0.214858
    122          6           0       -4.798482    0.395832   -1.506108
    123          6           0       -6.093981    1.058361   -1.939280
    124          8           0       -6.335782    1.056241   -3.153004
    125          6           0       -4.902121   -1.122401   -1.615787
    126          8           0       -5.722218   -1.556197   -0.560012
    127          1           0       -4.747539    0.614974    0.631129
    128          1           0       -4.159854    0.730154   -2.320897
    129          1           0       -4.009259   -1.745332   -1.545404
    130          1           0       -5.346489   -1.288681   -2.604973
    131          1           0       -5.923265   -2.483931   -0.739146
    132          7           0       -6.892193    1.604474   -1.020248
    133          6           0       -8.112638    2.339779   -1.282626
    134          6           0       -9.012104    1.812032   -2.394401
    135          8           0       -9.187675    2.584906   -3.336283
    136          6           0       -7.715734    3.806182   -1.345310
    137          1           0       -6.456302    1.665224   -0.115865
    138          1           0       -8.723330    2.289082   -0.384915
    139          1           0       -8.610071    4.427131   -1.406003
    140          1           0       -7.184747    4.108566   -0.449254
    141          1           0       -7.119025    4.100807   -2.205562
    142          7           0       -9.434463    0.543359   -2.480897
    143          6           0       -9.151304   -0.622171   -1.664894
    144          6           0      -10.350601   -1.069700   -0.834772
    145          8           0      -11.490925   -0.905174   -1.253332
    146          6           0       -8.755109   -1.727394   -2.635672
    147          1           0       -9.998487    0.407037   -3.306727
    148          1           0       -8.281369   -0.447303   -1.042614
    149          1           0       -8.882697   -2.732686   -2.220930
    150          1           0       -9.474999   -1.881353   -3.447556
    151          1           0       -7.769444   -1.590438   -3.076815
    152          7           0      -10.204946   -1.725291    0.322633
    153          6           0       -9.000660   -2.094674    1.039258
    154          6           0       -9.089031   -1.701257    2.499502
    155          8           0       -8.187385   -1.032414    3.010954
    156          6           0       -8.737390   -3.588668    0.959428
    157          6           0       -7.294493   -4.013358    1.246977
    158          6           0       -6.702994   -4.759267    0.059522
    159          8           0       -6.071858   -4.119674   -0.797151
    160          8           0       -6.933594   -5.989089   -0.000156
    161          1           0      -11.106112   -2.043974    0.646577
    162          1           0       -8.175313   -1.529625    0.609697
    163          1           0       -8.905373   -3.887272   -0.076679
    164          1           0       -9.360567   -4.227583    1.590411
    165          1           0       -7.272824   -4.627808    2.146245
    166          1           0       -6.627283   -3.160641    1.378523
    167          7           0      -10.221563   -1.965272    3.160613
    168          6           0      -10.511471   -1.507875    4.500069
    169          1           0      -10.076281   -2.199028    5.221613
    170          1           0      -10.085651   -0.515207    4.646207
    171          1           0      -11.591207   -1.465192    4.644757
    172          1           0      -10.876276   -2.606297    2.733721
    173         20           0        2.125129   -0.189295   -0.765922
    174          8           0        1.561866    1.705257   -2.600291
    175          1           0        0.739922    1.525271   -3.051193
    176          1           0        1.726465    2.632866   -2.756972
 ---------------------------------------------------------------------

 SCF Done:  E(RB3LYP) =  -5333.48227814     A.U. after   26 cycles

 The electronic state is 1-A.
 Alpha  occ. eigenvalues -- -145.42305 -19.17691 -19.15697 -19.14344 -19.13268
 Alpha  occ. eigenvalues --  -19.13198 -19.11568 -19.10647 -19.10171 -19.10044
 Alpha  occ. eigenvalues --  -19.09927 -19.09824 -19.09620 -19.09131 -19.09019
 Alpha  occ. eigenvalues --  -19.08573 -19.08150 -19.07307 -19.07246 -19.07017
 Alpha  occ. eigenvalues --  -19.06345 -19.05951 -18.98696 -18.96092 -15.48041
 Alpha  occ. eigenvalues --  -14.58520 -14.40685 -14.40469 -14.39474 -14.38774
 Alpha  occ. eigenvalues --  -14.37032 -14.36836 -14.36151 -14.35367 -14.35320
 Alpha  occ. eigenvalues --  -14.34697 -14.34300 -14.33155 -14.32905 -14.32275
 Alpha  occ. eigenvalues --  -12.61650 -12.61623 -12.61597 -10.35431 -10.34098
 Alpha  occ. eigenvalues --  -10.32756 -10.31579 -10.30018 -10.29754 -10.29702
 Alpha  occ. eigenvalues --  -10.29189 -10.29103 -10.28969 -10.28320 -10.28259
 Alpha  occ. eigenvalues --  -10.27710 -10.27381 -10.27314 -10.26703 -10.26547
 Alpha  occ. eigenvalues --  -10.26281 -10.26197 -10.26092 -10.25940 -10.25838
 Alpha  occ. eigenvalues --  -10.25821 -10.25484 -10.25234 -10.24913 -10.24784
 Alpha  occ. eigenvalues --  -10.22958 -10.22726 -10.22583 -10.22546 -10.22077
 Alpha  occ. eigenvalues --  -10.22031 -10.21545 -10.21531 -10.21492 -10.21380
 Alpha  occ. eigenvalues --  -10.21364 -10.21347 -10.21213 -10.21201 -10.21187
 Alpha  occ. eigenvalues --  -10.20457 -10.20410 -10.19798 -10.19622 -10.19384
 Alpha  occ. eigenvalues --  -10.18733 -10.17885 -10.17043 -10.16751 -10.15613
 Alpha  occ. eigenvalues --  -10.14839 -10.10924  -1.84714  -1.13800  -1.12221
 Alpha  occ. eigenvalues --   -1.12010  -1.11827  -1.08397  -1.07092  -1.05978
 Alpha  occ. eigenvalues --   -1.05920  -1.05241  -1.04641  -1.03501  -1.03249
 Alpha  occ. eigenvalues --   -1.03172  -1.02915  -1.02618  -1.02311  -1.01330
 Alpha  occ. eigenvalues --   -1.00783  -1.00593  -0.99948  -0.99941  -0.99002
 Alpha  occ. eigenvalues --   -0.96886  -0.96551  -0.96238  -0.95613  -0.95502
 Alpha  occ. eigenvalues --   -0.94270  -0.93652  -0.93515  -0.93094  -0.92799
 Alpha  occ. eigenvalues --   -0.92445  -0.92302  -0.91992  -0.91688  -0.90623
 Alpha  occ. eigenvalues --   -0.89672  -0.89628  -0.89196  -0.88878  -0.87366
 Alpha  occ. eigenvalues --   -0.84287  -0.83962  -0.82454  -0.81804  -0.81033
 Alpha  occ. eigenvalues --   -0.80477  -0.78421  -0.78092  -0.77350  -0.76945
 Alpha  occ. eigenvalues --   -0.76825  -0.76407  -0.75789  -0.74757  -0.74101
 Alpha  occ. eigenvalues --   -0.73903  -0.73867  -0.73717  -0.73350  -0.72146
 Alpha  occ. eigenvalues --   -0.71996  -0.70463  -0.70432  -0.69975  -0.68051
 Alpha  occ. eigenvalues --   -0.67825  -0.67059  -0.65996  -0.65633  -0.65285
 Alpha  occ. eigenvalues --   -0.65122  -0.64915  -0.64248  -0.63991  -0.63195
 Alpha  occ. eigenvalues --   -0.63146  -0.63082  -0.61562  -0.61496  -0.61263
 Alpha  occ. eigenvalues --   -0.60607  -0.60312  -0.60168  -0.59919  -0.59460
 Alpha  occ. eigenvalues --   -0.59051  -0.58637  -0.58561  -0.57803  -0.57789
 Alpha  occ. eigenvalues --   -0.57537  -0.57307  -0.57056  -0.56790  -0.56654
 Alpha  occ. eigenvalues --   -0.56520  -0.56197  -0.55317  -0.55116  -0.54790
 Alpha  occ. eigenvalues --   -0.54102  -0.53969  -0.53488  -0.52804  -0.52505
 Alpha  occ. eigenvalues --   -0.52432  -0.52413  -0.52150  -0.51636  -0.51484
 Alpha  occ. eigenvalues --   -0.51285  -0.51047  -0.50736  -0.50619  -0.50391
 Alpha  occ. eigenvalues --   -0.50095  -0.49750  -0.49530  -0.49340  -0.49101
 Alpha  occ. eigenvalues --   -0.49013  -0.48298  -0.48116  -0.47894  -0.47660
 Alpha  occ. eigenvalues --   -0.47508  -0.47362  -0.47183  -0.46890  -0.46489
 Alpha  occ. eigenvalues --   -0.46411  -0.46244  -0.46153  -0.46042  -0.45903
 Alpha  occ. eigenvalues --   -0.45693  -0.45598  -0.45288  -0.45222  -0.45154
 Alpha  occ. eigenvalues --   -0.45117  -0.44875  -0.44782  -0.44692  -0.44533
 Alpha  occ. eigenvalues --   -0.44241  -0.44003  -0.43806  -0.43593  -0.43449
 Alpha  occ. eigenvalues --   -0.43270  -0.43021  -0.42999  -0.42865  -0.42705
 Alpha  occ. eigenvalues --   -0.42497  -0.42375  -0.42277  -0.42071  -0.41862
 Alpha  occ. eigenvalues --   -0.41595  -0.41514  -0.41320  -0.41146  -0.41092
 Alpha  occ. eigenvalues --   -0.40980  -0.40886  -0.40676  -0.40514  -0.40120
 Alpha  occ. eigenvalues --   -0.40030  -0.39918  -0.39764  -0.39668  -0.39637
 Alpha  occ. eigenvalues --   -0.39596  -0.39460  -0.39323  -0.39223  -0.39037
 Alpha  occ. eigenvalues --   -0.38902  -0.38737  -0.38639  -0.38596  -0.38369
 Alpha  occ. eigenvalues --   -0.38126  -0.37905  -0.37843  -0.37804  -0.37639
 Alpha  occ. eigenvalues --   -0.37427  -0.37018  -0.36936  -0.36757  -0.36364
 Alpha  occ. eigenvalues --   -0.36285  -0.36203  -0.36185  -0.35934  -0.35899
 Alpha  occ. eigenvalues --   -0.35876  -0.35496  -0.35122  -0.34894  -0.34758
 Alpha  occ. eigenvalues --   -0.34710  -0.34556  -0.34167  -0.34070  -0.33347
 Alpha  occ. eigenvalues --   -0.33302  -0.33288  -0.32761  -0.32108  -0.31984
 Alpha  occ. eigenvalues --   -0.31529  -0.31334  -0.31164  -0.30572  -0.30317
 Alpha  occ. eigenvalues --   -0.29907  -0.29794  -0.29050  -0.28778  -0.28450
 Alpha  occ. eigenvalues --   -0.28423  -0.27923  -0.27648  -0.27625  -0.27453
 Alpha  occ. eigenvalues --   -0.27154  -0.27095  -0.26811  -0.26374  -0.26189
 Alpha  occ. eigenvalues --   -0.26046  -0.25875  -0.25698  -0.25585  -0.25437
 Alpha  occ. eigenvalues --   -0.25324  -0.25096  -0.25070  -0.24803  -0.24756
 Alpha  occ. eigenvalues --   -0.24367  -0.24336  -0.23564  -0.23324  -0.23208
 Alpha  occ. eigenvalues --   -0.22958  -0.22732  -0.22074  -0.21707  -0.21213
 Alpha  occ. eigenvalues --   -0.15633  -0.15293  -0.12504
 Alpha virt. eigenvalues --   -0.10113  -0.05239  -0.04414  -0.03979  -0.03857
 Alpha virt. eigenvalues --   -0.03083  -0.03008  -0.02843  -0.01838  -0.01345
 Alpha virt. eigenvalues --   -0.01090  -0.00818  -0.00066   0.00493   0.00672

 Mulliken charges:
               1
     1  C    0.048493
     2  C    0.023366
     3  O   -0.290930
     4  H    0.033466
     5  H    0.041845
     6  H    0.027635
     7  N   -0.107048
     8  C    0.075930
     9  C    0.047862
    10  O   -0.270788
    11  C    0.165022
    12  C    0.088593
    13  O   -0.421314
    14  O   -0.405323
    15  H    0.109995
    16  H   -0.006340
    17  H    0.000168
    18  H    0.028153
    19  N   -0.111011
    20  C    0.121167
    21  C    0.049335
    22  O   -0.285640
    23  C    0.003894
    24  C   -0.029840
    25  C   -0.020513
    26  C    0.044573
    27  N    0.071127
    28  H    0.125369
    29  H    0.021487
    30  H   -0.010109
    31  H    0.015386
    32  H    0.036682
    33  H    0.023740
    34  H    0.059210
    35  H    0.014708
    36  H    0.089236
    37  H    0.074518
    38  H    0.189930
    39  H    0.200955
    40  H    0.205405
    41  N   -0.149421
    42  C    0.099972
    43  C    0.055282
    44  O   -0.289192
    45  C    0.165435
    46  C    0.086678
    47  O   -0.376539
    48  O   -0.460118
    49  H    0.157167
    50  H    0.034025
    51  H   -0.027034
    52  H    0.005810
    53  N   -0.160901
    54  C    0.227499
    55  C    0.002756
    56  O   -0.303135
    57  H    0.127537
    58  H    0.042613
    59  H    0.027328
    60  N   -0.139265
    61  C    0.117887
    62  C    0.133027
    63  O   -0.328420
    64  C    0.124303
    65  C    0.032506
    66  N   -0.052603
    67  O   -0.292344
    68  H    0.159586
    69  H   -0.028774
    70  H    0.049528
    71  H    0.017624
    72  H    0.146996
    73  H    0.139691
    74  N   -0.161584
    75  C    0.181210
    76  C    0.032469
    77  O   -0.284227
    78  H    0.140130
    79  H    0.053201
    80  H    0.045390
    81  N   -0.096929
    82  C    0.100399
    83  C    0.176827
    84  O   -0.334549
    85  C    0.100121
    86  C   -0.015922
    87  C    0.018033
    88  C   -0.015609
    89  C   -0.032583
    90  C   -0.041216
    91  C    0.199315
    92  O   -0.217748
    93  H    0.130669
    94  H   -0.013695
    95  H   -0.008634
    96  H    0.015254
    97  H   -0.048597
    98  H   -0.033115
    99  H   -0.023390
   100  H   -0.029182
   101  H    0.183092
   102  N   -0.136920
   103  C    0.128726
   104  C    0.076350
   105  O   -0.277391
   106  C   -0.029247
   107  C   -0.018064
   108  C    0.080882
   109  C    0.033600
   110  H    0.135503
   111  H   -0.023610
   112  H    0.003384
   113  H   -0.016843
   114  H   -0.018804
   115  H    0.038992
   116  H    0.004974
   117  H   -0.033163
   118  H    0.015365
   119  H    0.020957
   120  H    0.006688
   121  N   -0.138734
   122  C    0.130627
   123  C    0.067687
   124  O   -0.278703
   125  C    0.252139
   126  O   -0.367385
   127  H    0.137889
   128  H    0.024334
   129  H   -0.027343
   130  H   -0.001077
   131  H    0.169580
   132  N   -0.121211
   133  C    0.064326
   134  C    0.063407
   135  O   -0.267085
   136  C    0.083750
   137  H    0.099574
   138  H    0.006303
   139  H    0.008916
   140  H   -0.028529
   141  H    0.028014
   142  N   -0.075167
   143  C    0.037775
   144  C    0.047010
   145  O   -0.281794
   146  C    0.053719
   147  H    0.127964
   148  H    0.023754
   149  H    0.017488
   150  H   -0.006807
   151  H    0.044618
   152  N   -0.096124
   153  C    0.087928
   154  C    0.068276
   155  O   -0.284075
   156  C    0.051490
   157  C    0.061937
   158  C    0.044138
   159  O   -0.411034
   160  O   -0.398051
   161  H    0.100839
   162  H    0.015770
   163  H    0.012279
   164  H   -0.018116
   165  H   -0.039762
   166  H   -0.025273
   167  N   -0.161212
   168  C    0.138207
   169  H    0.022908
   170  H    0.033566
   171  H    0.013378
   172  H    0.110848
   173  Ca   1.322789
   174  O   -0.311430
   175  H    0.167363
   176  H    0.163916
 Sum of Mulliken charges =  -0.00000

 Dipole moment (field-independent basis, Debye):
    X=             15.6391    Y=              1.8106    Z=              5.2052  Tot=             16.5817
 Quadrupole moment (field-independent basis, Debye-Ang):
   XX=           -812.3438   YY=           -402.6828   ZZ=           -578.1325
   XY=            -27.7453   XZ=            -57.2730   YZ=             48.3253

 ESP charges:
               1
     1  C   -0.440653
     2  C    0.760802
     3  O   -0.587328
     4  H    0.127383
     5  H    0.125294
     6  H    0.113434
     7  N   -0.666247
     8  C    0.236191
     9  C    0.644349
    10  O   -0.550411
    11  C   -0.288667
    12  C    0.772024
    13  O   -0.789949
    14  O   -0.666391
    15  H    0.315228
    16  H    0.034578
    17  H    0.085880
    18  H    0.112654
    19  N   -0.592739
    20  C    0.229061
    21  C    0.432933
    22  O   -0.547417
    23  C   -0.220149
    24  C    0.184090
    25  C   -0.257303
    26  C    0.135677
    27  N   -0.402770
    28  H    0.272896
    29  H    0.049512
    30  H    0.027341
    31  H    0.103450
    32  H    0.009745
    33  H    0.000758
    34  H    0.104658
    35  H    0.059795
    36  H    0.062501
    37  H    0.072327
    38  H    0.352830
    39  H    0.346621
    40  H    0.334802
    41  N   -0.184414
    42  C   -0.048180
    43  C    0.504026
    44  O   -0.559546
    45  C   -0.264540
    46  C    0.802490
    47  O   -0.688113
    48  O   -0.784006
    49  H    0.073009
    50  H    0.136241
    51  H    0.089397
    52  H    0.074113
    53  N   -0.182808
    54  C   -0.268257
    55  C    0.555165
    56  O   -0.578506
    57  H    0.161610
    58  H    0.163930
    59  H    0.121577
    60  N   -0.281638
    61  C    0.119075
    62  C    0.362779
    63  O   -0.306924
    64  C   -0.349652
    65  C    0.738404
    66  N   -0.851896
    67  O   -0.569679
    68  H    0.231037
    69  H    0.030193
    70  H    0.135992
    71  H    0.118483
    72  H    0.416410
    73  H    0.383171
    74  N   -0.324253
    75  C   -0.129085
    76  C    0.577934
    77  O   -0.547311
    78  H    0.277033
    79  H    0.123993
    80  H    0.099424
    81  N   -0.488759
    82  C    0.344534
    83  C    0.433035
    84  O   -0.483629
    85  C   -0.167397
    86  C    0.097218
    87  C   -0.214945
    88  C   -0.129243
    89  C   -0.217295
    90  C   -0.307461
    91  C    0.400530
    92  O   -0.588750
    93  H    0.179061
    94  H   -0.035982
    95  H    0.031380
    96  H    0.077127
    97  H    0.132736
    98  H    0.129417
    99  H    0.144464
   100  H    0.152446
   101  H    0.434727
   102  N   -0.407597
   103  C   -0.309345
   104  C    0.795506
   105  O   -0.558059
   106  C    0.260204
   107  C    0.050820
   108  C   -0.401973
   109  C   -0.237937
   110  H    0.316650
   111  H    0.098959
   112  H    0.027033
   113  H    0.000095
   114  H    0.002601
   115  H    0.124845
   116  H    0.098981
   117  H    0.087739
   118  H    0.083571
   119  H    0.061285
   120  H    0.052952
   121  N   -0.563976
   122  C   -0.124062
   123  C    0.607736
   124  O   -0.487697
   125  C    0.117730
   126  O   -0.551063
   127  H    0.284957
   128  H    0.103320
   129  H    0.052760
   130  H    0.011450
   131  H    0.438415
   132  N   -0.490311
   133  C    0.264148
   134  C    0.497178
   135  O   -0.518583
   136  C   -0.305846
   137  H    0.300520
   138  H    0.026601
   139  H    0.073837
   140  H    0.061519
   141  H    0.102799
   142  N   -0.646469
   143  C    0.381282
   144  C    0.530217
   145  O   -0.567580
   146  C   -0.214713
   147  H    0.345098
   148  H    0.000249
   149  H    0.080939
   150  H    0.057204
   151  H    0.077822
   152  N   -0.536119
   153  C   -0.203886
   154  C    0.683325
   155  O   -0.561039
   156  C   -0.009443
   157  C   -0.170811
   158  C    0.721980
   159  O   -0.745731
   160  O   -0.703265
   161  H    0.294665
   162  H    0.091389
   163  H    0.070345
   164  H    0.024037
   165  H    0.032543
   166  H   -0.013277
   167  N   -0.370923
   168  C   -0.205875
   169  H    0.093715
   170  H    0.113511
   171  H    0.099137
   172  H    0.295470
   173  Ca   1.566629
   174  O   -0.932848
   175  H    0.422431
   176  H    0.455545
 Sum of ESP charges =  -0.00000

 Normal termination of Gaussian 16 at Tue Sep 17 23:50:13 2019.
