 Gaussian 16, Revision A.03,
 Gaussian 16:  ES64L-G16RevA.03 25-Dec-2016

 ----------------------------------------------------------------------
 #b3lyp/svp scf=(tight,noincore) Test #IOP(5/87=12) Density=Current Pop
 =(MK,readradii) iop(6/33=2) iop(6/42=6)
 ----------------------------------------------------------------------

 -----------------
 Ng-295_loop3_34.0
 -----------------
 Symbolic Z-matrix:
 Charge =  0 Multiplicity = 1

                         Standard orientation:
 ---------------------------------------------------------------------
 Center     Atomic      Atomic             Coordinates (Angstroms)
 Number     Number       Type             X           Y           Z
 ---------------------------------------------------------------------
      1          6           0       12.134057   -2.755917    4.287707
      2          6           0       11.135780   -2.795816    3.145187
      3          8           0       11.123326   -3.692305    2.296275
      4          1           0       11.655105   -3.108947    5.200830
      5          1           0       12.982658   -3.397902    4.052127
      6          1           0       12.480363   -1.732709    4.432541
      7          7           0       10.253318   -1.808373    2.972800
      8          6           0        9.099212   -1.750504    2.096848
      9          6           0        9.589053   -1.299281    0.735910
     10          8           0       10.439681   -0.421175    0.617752
     11          6           0        7.979048   -0.841472    2.602804
     12          6           0        6.680651   -1.028079    1.830830
     13          8           0        5.762917   -1.665874    2.391082
     14          8           0        6.619566   -0.575887    0.665544
     15          1           0       10.433283   -0.974787    3.515798
     16          1           0        8.670223   -2.746526    1.996796
     17          1           0        8.386879    0.151605    2.427095
     18          1           0        7.890770   -1.234454    3.621171
     19          7           0        9.079947   -1.914801   -0.336819
     20          6           0        9.445107   -1.614852   -1.706158
     21          6           0        9.179781   -0.225705   -2.284841
     22          8           0        9.751698    0.182729   -3.295876
     23          6           0        8.592863   -2.575178   -2.535648
     24          6           0        9.032655   -4.027478   -2.421156
     25          6           0       10.384998   -4.419353   -3.020075
     26          6           0       10.680007   -5.914981   -2.892924
     27          7           0       12.050565   -6.138073   -3.385164
     28          1           0        8.385588   -2.648075   -0.384504
     29          1           0       10.501277   -1.833739   -1.845776
     30          1           0        8.554513   -2.211188   -3.569012
     31          1           0        7.541334   -2.543837   -2.266011
     32          1           0        8.266215   -4.542110   -3.003069
     33          1           0        9.146880   -4.275736   -1.372004
     34          1           0       11.155821   -3.770265   -2.615086
     35          1           0       10.237859   -4.243179   -4.092042
     36          1           0        9.960133   -6.547091   -3.407529
     37          1           0       10.676577   -6.211387   -1.837494
     38          1           0       12.669267   -5.449858   -2.998296
     39          1           0       12.392921   -7.027756   -3.075559
     40          1           0       12.128775   -6.024320   -4.392162
     41          7           0        8.212846    0.481700   -1.696016
     42          6           0        7.637887    1.738919   -2.112458
     43          6           0        7.371405    2.730209   -0.985324
     44          8           0        7.295546    3.912124   -1.322849
     45          6           0        6.333263    1.472266   -2.850462
     46          6           0        5.389716    0.559078   -2.066620
     47          8           0        5.267187   -0.669842   -2.223598
     48          8           0        4.779927    1.100956   -1.119400
     49          1           0        7.791711    0.006684   -0.902540
     50          1           0        8.243494    2.174309   -2.906609
     51          1           0        6.534634    1.145237   -3.878520
     52          1           0        5.817908    2.383795   -3.128534
     53          7           0        7.219202    2.293096    0.264702
     54          6           0        6.961140    3.141576    1.410121
     55          6           0        5.529688    3.648968    1.460134
     56          8           0        5.351468    4.402892    2.420933
     57          1           0        7.339054    1.298764    0.428224
     58          1           0        7.588930    4.032405    1.275200
     59          1           0        7.268356    2.643012    2.340525
     60          7           0        4.585684    3.378003    0.566135
     61          6           0        3.384765    4.150866    0.330177
     62          6           0        2.314497    3.874752    1.379122
     63          8           0        1.989470    2.758592    1.780427
     64          6           0        2.964732    3.850156   -1.103052
     65          6           0        1.834544    4.768706   -1.524409
     66          7           0        0.656128    4.255403   -1.884345
     67          8           0        1.955328    5.984167   -1.646745
     68          1           0        4.788594    2.601978   -0.053634
     69          1           0        3.660821    5.214005    0.324840
     70          1           0        2.593537    2.819451   -1.150597
     71          1           0        3.815029    3.938880   -1.786078
     72          1           0        0.516866    3.262262   -1.789076
     73          1           0       -0.016773    4.909639   -2.261811
     74          7           0        1.644120    4.925159    1.841443
     75          6           0        0.759315    4.975673    2.993427
     76          6           0       -0.697791    4.626953    2.734708
     77          8           0       -1.325852    4.265430    3.722352
     78          1           0        1.976914    5.842723    1.591793
     79          1           0        0.830106    5.943106    3.472659
     80          1           0        0.982817    4.286242    3.806096
     81          7           0       -1.217844    4.664825    1.498095
     82          6           0       -2.634786    4.492887    1.245286
     83          6           0       -3.068554    3.238203    0.505414
     84          8           0       -2.334662    2.655734   -0.290973
     85          6           0       -3.107016    5.635897    0.348945
     86          6           0       -4.565331    5.687903   -0.060828
     87          6           0       -5.055836    5.089859   -1.224378
     88          6           0       -5.459137    6.439884    0.711205
     89          6           0       -6.348564    5.338554   -1.705527
     90          6           0       -6.764803    6.678564    0.245298
     91          6           0       -7.216115    6.198715   -0.997587
     92          8           0       -8.458621    6.544683   -1.464045
     93          1           0       -0.551968    4.759240    0.747566
     94          1           0       -3.130991    4.523417    2.215362
     95          1           0       -2.517149    5.596211   -0.560770
     96          1           0       -2.818999    6.549209    0.852340
     97          1           0       -4.400480    4.543162   -1.880222
     98          1           0       -5.076731    6.923035    1.595982
     99          1           0       -6.624567    4.922902   -2.659023
    100          1           0       -7.388265    7.443048    0.684228
    101          1           0       -9.014552    6.851461   -0.737115
    102          7           0       -4.176790    2.663705    0.991486
    103          6           0       -4.735073    1.362353    0.666364
    104          6           0       -5.300027    1.239403   -0.733710
    105          8           0       -4.753888    1.799394   -1.686727
    106          6           0       -3.870718    0.156285    1.020892
    107          6           0       -3.216253   -0.654181   -0.097688
    108          6           0       -4.691710   -0.877592    1.790093
    109          6           0       -2.135316   -1.611416    0.394223
    110          1           0       -4.829806    3.295553    1.436275
    111          1           0       -5.549562    1.384165    1.386803
    112          1           0       -3.064959    0.448740    1.687017
    113          1           0       -2.612693   -0.028640   -0.762077
    114          1           0       -3.997724   -1.194198   -0.630309
    115          1           0       -4.078264   -1.628655    2.269977
    116          1           0       -5.202542   -0.306275    2.571660
    117          1           0       -5.335399   -1.409197    1.084713
    118          1           0       -2.602756   -2.360057    1.040780
    119          1           0       -1.572182   -2.019018   -0.445325
    120          1           0       -1.458453   -0.989018    0.984033
    121          7           0       -6.365270    0.468205   -0.950533
    122          6           0       -6.862287    0.043908   -2.241635
    123          6           0       -8.314015   -0.384268   -2.292129
    124          8           0       -8.831838   -0.722469   -3.360623
    125          6           0       -6.066217   -1.189311   -2.658341
    126          8           0       -6.104647   -2.222440   -1.696796
    127          1           0       -6.705802   -0.095423   -0.186228
    128          1           0       -6.727018    0.852541   -2.966698
    129          1           0       -5.058438   -0.928641   -2.989751
    130          1           0       -6.570944   -1.601274   -3.521438
    131          1           0       -5.549099   -2.958078   -1.944792
    132          7           0       -9.011395   -0.419936   -1.155780
    133          6           0      -10.361191   -0.898273   -0.923089
    134          6           0      -10.878861   -1.918447   -1.914686
    135          8           0      -11.782792   -1.586020   -2.686567
    136          6           0      -11.142561    0.408602   -0.812911
    137          1           0       -8.658199    0.171947   -0.414614
    138          1           0      -10.483120   -1.471430   -0.005743
    139          1           0      -10.861819    0.978650    0.075474
    140          1           0      -10.875835    0.974013   -1.704296
    141          1           0      -12.224133    0.268999   -0.792624
    142          7           0      -10.412209   -3.172846   -1.929477
    143          6           0       -9.309883   -3.766825   -1.213539
    144          6           0       -9.774729   -4.683216   -0.084537
    145          8           0      -10.861430   -5.253749   -0.168044
    146          6           0       -8.412025   -4.506435   -2.197068
    147          1           0      -10.904602   -3.834870   -2.519963
    148          1           0       -8.723409   -3.008670   -0.703100
    149          1           0       -8.811309   -5.471626   -2.507517
    150          1           0       -8.254339   -3.788808   -3.008823
    151          1           0       -7.510186   -4.683877   -1.613800
    152          7           0       -8.966914   -4.972696    0.935774
    153          6           0       -7.752296   -4.311780    1.338136
    154          6           0       -8.034793   -3.523745    2.613360
    155          8           0       -7.249902   -2.719475    3.086325
    156          6           0       -6.745668   -5.424822    1.631798
    157          6           0       -5.285962   -4.972242    1.541080
    158          6           0       -4.249357   -6.086817    1.524583
    159          8           0       -3.770943   -6.517651    2.598875
    160          8           0       -3.829626   -6.562256    0.440017
    161          1           0       -9.265160   -5.685773    1.585289
    162          1           0       -7.388622   -3.679995    0.526724
    163          1           0       -6.815412   -6.129036    0.801547
    164          1           0       -6.965679   -5.970061    2.549845
    165          1           0       -4.945753   -4.356439    2.365668
    166          1           0       -5.109885   -4.289781    0.708707
    167          7           0       -9.196125   -3.686844    3.252506
    168          6           0       -9.447575   -3.250336    4.611783
    169          1           0       -8.501914   -3.000459    5.093130
    170          1           0      -10.092163   -2.371071    4.598431
    171          1           0       -9.936143   -4.050856    5.166955
    172          1           0       -9.721102   -4.469222    2.896441
    173         20           0        4.180648   -1.251146    0.146216
    174          8           0        5.439305   -3.529708   -0.335069
    175          1           0        5.162452   -4.104862   -1.046370
    176          1           0        6.149428   -4.011678    0.101887
 ---------------------------------------------------------------------

 SCF Done:  E(RB3LYP) =  -5333.33414121     A.U. after   51 cycles

 The electronic state is 1-A.
 Alpha  occ. eigenvalues -- -145.47782 -19.24322 -19.15742 -19.13943 -19.13374
 Alpha  occ. eigenvalues --  -19.12566 -19.12306 -19.11162 -19.10333 -19.10207
 Alpha  occ. eigenvalues --  -19.10072 -19.08986 -19.08691 -19.08212 -19.08162
 Alpha  occ. eigenvalues --  -19.08049 -19.08026 -19.07681 -19.07426 -19.07287
 Alpha  occ. eigenvalues --  -19.06644 -19.06052 -18.98978 -18.98910 -15.53678
 Alpha  occ. eigenvalues --  -14.59024 -14.38914 -14.37668 -14.35526 -14.35396
 Alpha  occ. eigenvalues --  -14.35345 -14.35330 -14.34506 -14.34418 -14.34313
 Alpha  occ. eigenvalues --  -14.34312 -14.34170 -14.33857 -14.32859 -14.32814
 Alpha  occ. eigenvalues --  -12.67267 -12.67243 -12.67213 -10.36991 -10.31668
 Alpha  occ. eigenvalues --  -10.30827 -10.30788 -10.29678 -10.29272 -10.28976
 Alpha  occ. eigenvalues --  -10.28033 -10.27747 -10.27501 -10.27322 -10.27201
 Alpha  occ. eigenvalues --  -10.27092 -10.26799 -10.26667 -10.26593 -10.26538
 Alpha  occ. eigenvalues --  -10.26524 -10.26116 -10.26075 -10.25991 -10.24518
 Alpha  occ. eigenvalues --  -10.24312 -10.23374 -10.23336 -10.23307 -10.22756
 Alpha  occ. eigenvalues --  -10.22744 -10.22556 -10.22309 -10.22241 -10.22158
 Alpha  occ. eigenvalues --  -10.22146 -10.22076 -10.22050 -10.22027 -10.20966
 Alpha  occ. eigenvalues --  -10.19805 -10.19031 -10.18846 -10.18585 -10.18520
 Alpha  occ. eigenvalues --  -10.18399 -10.17997 -10.17981 -10.17955 -10.17486
 Alpha  occ. eigenvalues --  -10.17078 -10.16945 -10.16458 -10.15646 -10.15143
 Alpha  occ. eigenvalues --  -10.15118 -10.12417  -1.90367  -1.17794  -1.17658
 Alpha  occ. eigenvalues --   -1.17352  -1.14833  -1.10050  -1.07594  -1.05780
 Alpha  occ. eigenvalues --   -1.05479  -1.04227  -1.03979  -1.02948  -1.02812
 Alpha  occ. eigenvalues --   -1.02379  -1.01768  -1.01701  -1.01561  -1.01421
 Alpha  occ. eigenvalues --   -1.01215  -1.01063  -1.00809  -1.00357  -0.99719
 Alpha  occ. eigenvalues --   -0.99000  -0.97795  -0.96135  -0.94522  -0.93972
 Alpha  occ. eigenvalues --   -0.93079  -0.92666  -0.92645  -0.92209  -0.91603
 Alpha  occ. eigenvalues --   -0.91168  -0.90972  -0.90947  -0.90843  -0.90617
 Alpha  occ. eigenvalues --   -0.90127  -0.89678  -0.89438  -0.88757  -0.84730
 Alpha  occ. eigenvalues --   -0.84279  -0.82501  -0.82005  -0.80583  -0.79387
 Alpha  occ. eigenvalues --   -0.78497  -0.77986  -0.77674  -0.77658  -0.76773
 Alpha  occ. eigenvalues --   -0.75823  -0.75560  -0.74985  -0.74818  -0.73770
 Alpha  occ. eigenvalues --   -0.73452  -0.73272  -0.72847  -0.72306  -0.71173
 Alpha  occ. eigenvalues --   -0.71129  -0.70862  -0.69272  -0.68476  -0.67134
 Alpha  occ. eigenvalues --   -0.66813  -0.66286  -0.65820  -0.65317  -0.64837
 Alpha  occ. eigenvalues --   -0.64692  -0.64413  -0.63889  -0.63270  -0.63193
 Alpha  occ. eigenvalues --   -0.61475  -0.61184  -0.61118  -0.60804  -0.60039
 Alpha  occ. eigenvalues --   -0.59711  -0.59663  -0.59143  -0.58914  -0.58510
 Alpha  occ. eigenvalues --   -0.58340  -0.58141  -0.57916  -0.57518  -0.57208
 Alpha  occ. eigenvalues --   -0.57139  -0.56419  -0.56391  -0.56342  -0.56122
 Alpha  occ. eigenvalues --   -0.54857  -0.54447  -0.54245  -0.54108  -0.53896
 Alpha  occ. eigenvalues --   -0.53793  -0.53454  -0.53244  -0.53153  -0.53130
 Alpha  occ. eigenvalues --   -0.52289  -0.52227  -0.52142  -0.51790  -0.50978
 Alpha  occ. eigenvalues --   -0.50891  -0.50307  -0.50293  -0.49773  -0.49500
 Alpha  occ. eigenvalues --   -0.49367  -0.48862  -0.48731  -0.48577  -0.48531
 Alpha  occ. eigenvalues --   -0.48114  -0.47891  -0.47679  -0.47488  -0.47454
 Alpha  occ. eigenvalues --   -0.47366  -0.47162  -0.46761  -0.46746  -0.45936
 Alpha  occ. eigenvalues --   -0.45917  -0.45888  -0.45592  -0.45532  -0.45311
 Alpha  occ. eigenvalues --   -0.45082  -0.44965  -0.44729  -0.44667  -0.44614
 Alpha  occ. eigenvalues --   -0.44444  -0.44312  -0.44142  -0.43617  -0.43543
 Alpha  occ. eigenvalues --   -0.43424  -0.43391  -0.43334  -0.43168  -0.42848
 Alpha  occ. eigenvalues --   -0.42719  -0.42601  -0.42400  -0.42305  -0.42012
 Alpha  occ. eigenvalues --   -0.41934  -0.41841  -0.41588  -0.41532  -0.41371
 Alpha  occ. eigenvalues --   -0.40977  -0.40894  -0.40806  -0.40566  -0.40446
 Alpha  occ. eigenvalues --   -0.40404  -0.40362  -0.40200  -0.40070  -0.39928
 Alpha  occ. eigenvalues --   -0.39803  -0.39760  -0.39618  -0.39496  -0.39133
 Alpha  occ. eigenvalues --   -0.39029  -0.38667  -0.38623  -0.38610  -0.38347
 Alpha  occ. eigenvalues --   -0.38295  -0.38218  -0.38087  -0.37976  -0.37753
 Alpha  occ. eigenvalues --   -0.37436  -0.37352  -0.37263  -0.37103  -0.36887
 Alpha  occ. eigenvalues --   -0.36439  -0.36399  -0.36313  -0.36036  -0.35940
 Alpha  occ. eigenvalues --   -0.35804  -0.35515  -0.35466  -0.35117  -0.35084
 Alpha  occ. eigenvalues --   -0.34976  -0.34927  -0.34637  -0.34338  -0.34132
 Alpha  occ. eigenvalues --   -0.33929  -0.33652  -0.33641  -0.33459  -0.33215
 Alpha  occ. eigenvalues --   -0.33151  -0.32011  -0.31995  -0.31622  -0.31437
 Alpha  occ. eigenvalues --   -0.31321  -0.31218  -0.29898  -0.29039  -0.29011
 Alpha  occ. eigenvalues --   -0.28834  -0.28727  -0.28631  -0.28408  -0.28053
 Alpha  occ. eigenvalues --   -0.27710  -0.27668  -0.27101  -0.26979  -0.26919
 Alpha  occ. eigenvalues --   -0.26861  -0.26436  -0.26190  -0.26046  -0.26008
 Alpha  occ. eigenvalues --   -0.25830  -0.25671  -0.25557  -0.25247  -0.25100
 Alpha  occ. eigenvalues --   -0.24873  -0.24429  -0.24190  -0.24061  -0.23795
 Alpha  occ. eigenvalues --   -0.23741  -0.23527  -0.23149  -0.22922  -0.22476
 Alpha  occ. eigenvalues --   -0.22396  -0.22129  -0.21999  -0.21985  -0.21619
 Alpha  occ. eigenvalues --   -0.16132  -0.15700  -0.12414
 Alpha virt. eigenvalues --   -0.11732  -0.11208  -0.05930  -0.05668  -0.05287
 Alpha virt. eigenvalues --   -0.03348  -0.01491  -0.01040  -0.00931   0.00119
 Alpha virt. eigenvalues --    0.00359   0.00524   0.00618   0.01130   0.01448

 Mulliken charges:
               1
     1  C    0.062950
     2  C    0.014126
     3  O   -0.322483
     4  H    0.047455
     5  H    0.032650
     6  H    0.027401
     7  N   -0.101930
     8  C    0.054327
     9  C    0.095493
    10  O   -0.264774
    11  C    0.167378
    12  C    0.078901
    13  O   -0.381875
    14  O   -0.444891
    15  H    0.116299
    16  H   -0.021706
    17  H    0.016080
    18  H    0.021702
    19  N   -0.108931
    20  C    0.067425
    21  C    0.082361
    22  O   -0.285031
    23  C    0.006424
    24  C    0.025799
    25  C   -0.068837
    26  C    0.050117
    27  N    0.133696
    28  H    0.099153
    29  H    0.003919
    30  H    0.029926
    31  H    0.009513
    32  H    0.013460
    33  H   -0.001076
    34  H    0.044597
    35  H    0.028451
    36  H    0.071835
    37  H    0.067414
    38  H    0.150337
    39  H    0.141166
    40  H    0.148992
    41  N   -0.153162
    42  C    0.113149
    43  C    0.067326
    44  O   -0.279658
    45  C    0.115515
    46  C    0.115930
    47  O   -0.419177
    48  O   -0.422714
    49  H    0.168801
    50  H    0.025199
    51  H   -0.005117
    52  H    0.013850
    53  N   -0.168498
    54  C    0.203797
    55  C    0.025537
    56  O   -0.319290
    57  H    0.120069
    58  H    0.044917
    59  H    0.031584
    60  N   -0.113996
    61  C    0.074827
    62  C    0.090361
    63  O   -0.281553
    64  C    0.111605
    65  C   -0.047436
    66  N   -0.035019
    67  O   -0.273560
    68  H    0.151835
    69  H    0.020640
    70  H   -0.016206
    71  H    0.057494
    72  H    0.124273
    73  H    0.138153
    74  N   -0.134495
    75  C    0.197094
    76  C    0.023910
    77  O   -0.286533
    78  H    0.126678
    79  H    0.031182
    80  H    0.040314
    81  N   -0.121364
    82  C    0.141254
    83  C    0.102399
    84  O   -0.270842
    85  C    0.138996
    86  C   -0.083410
    87  C    0.023343
    88  C   -0.006464
    89  C   -0.044309
    90  C   -0.039969
    91  C    0.173050
    92  O   -0.206393
    93  H    0.118471
    94  H    0.004526
    95  H   -0.010935
    96  H   -0.009922
    97  H   -0.003814
    98  H   -0.030018
    99  H   -0.021604
   100  H   -0.038624
   101  H    0.178810
   102  N   -0.141408
   103  C    0.203076
   104  C    0.052341
   105  O   -0.270729
   106  C   -0.115356
   107  C    0.026737
   108  C    0.034795
   109  C    0.027041
   110  H    0.123841
   111  H   -0.032307
   112  H   -0.003541
   113  H    0.004208
   114  H   -0.015431
   115  H    0.021616
   116  H    0.004010
   117  H    0.022413
   118  H    0.033389
   119  H   -0.008853
   120  H   -0.007754
   121  N   -0.130681
   122  C    0.115014
   123  C    0.066953
   124  O   -0.268292
   125  C    0.222185
   126  O   -0.321666
   127  H    0.122264
   128  H    0.045280
   129  H    0.017227
   130  H    0.007853
   131  H    0.196844
   132  N   -0.144826
   133  C    0.055724
   134  C    0.061134
   135  O   -0.260019
   136  C    0.069205
   137  H    0.114697
   138  H    0.017117
   139  H   -0.005387
   140  H    0.027191
   141  H    0.021945
   142  N   -0.088744
   143  C   -0.007955
   144  C    0.048479
   145  O   -0.273266
   146  C    0.072740
   147  H    0.128890
   148  H    0.020698
   149  H    0.021260
   150  H    0.045924
   151  H    0.009154
   152  N   -0.111849
   153  C    0.047450
   154  C    0.047509
   155  O   -0.262595
   156  C    0.059277
   157  C    0.067383
   158  C    0.031050
   159  O   -0.335035
   160  O   -0.347940
   161  H    0.117624
   162  H    0.035284
   163  H    0.011125
   164  H    0.000598
   165  H   -0.003401
   166  H   -0.046659
   167  N   -0.138817
   168  C    0.126779
   169  H    0.045968
   170  H    0.023092
   171  H    0.016145
   172  H    0.095552
   173  Ca   1.287214
   174  O   -0.287352
   175  H    0.185161
   176  H    0.192793
 Sum of Mulliken charges =  -0.00000

 Dipole moment (field-independent basis, Debye):
    X=             44.3250    Y=            -17.2153    Z=             -8.4250  Tot=             48.2913
 Quadrupole moment (field-independent basis, Debye-Ang):
   XX=           -288.0385   YY=           -545.3573   ZZ=           -558.1623
   XY=           -408.8271   XZ=           -163.3924   YZ=            115.4170

 ESP charges:
               1
     1  C   -0.453458
     2  C    0.796340
     3  O   -0.635150
     4  H    0.126873
     5  H    0.132972
     6  H    0.122745
     7  N   -0.716911
     8  C    0.409157
     9  C    0.445692
    10  O   -0.501065
    11  C   -0.413971
    12  C    0.763605
    13  O   -0.699978
    14  O   -0.586639
    15  H    0.322628
    16  H   -0.003894
    17  H    0.116165
    18  H    0.124589
    19  N   -0.103226
    20  C   -0.421146
    21  C    0.569889
    22  O   -0.558379
    23  C    0.102123
    24  C   -0.204220
    25  C    0.075764
    26  C    0.144995
    27  N   -0.290426
    28  H    0.155260
    29  H    0.191725
    30  H    0.069174
    31  H    0.039155
    32  H    0.062979
    33  H    0.025798
    34  H    0.009263
    35  H    0.003993
    36  H    0.048598
    37  H    0.051950
    38  H    0.275191
    39  H    0.269682
    40  H    0.257816
    41  N   -0.154503
    42  C   -0.113024
    43  C    0.435287
    44  O   -0.516433
    45  C   -0.112474
    46  C    0.617484
    47  O   -0.690378
    48  O   -0.658592
    49  H    0.006599
    50  H    0.155269
    51  H    0.062432
    52  H    0.080047
    53  N   -0.156523
    54  C   -0.263813
    55  C    0.658236
    56  O   -0.592860
    57  H    0.163023
    58  H    0.145886
    59  H    0.118125
    60  N   -0.440436
    61  C    0.119902
    62  C    0.457216
    63  O   -0.522939
    64  C   -0.312095
    65  C    0.633012
    66  N   -0.759120
    67  O   -0.570217
    68  H    0.210289
    69  H    0.067018
    70  H    0.082040
    71  H    0.172448
    72  H    0.354418
    73  H    0.383553
    74  N   -0.207186
    75  C   -0.242146
    76  C    0.614708
    77  O   -0.560757
    78  H    0.222875
    79  H    0.119254
    80  H    0.146224
    81  N   -0.455608
    82  C    0.294252
    83  C    0.510191
    84  O   -0.512034
    85  C   -0.263786
    86  C    0.072488
    87  C   -0.105320
    88  C   -0.097276
    89  C   -0.280827
    90  C   -0.398598
    91  C    0.416354
    92  O   -0.543134
    93  H    0.198805
    94  H    0.007708
    95  H    0.081931
    96  H    0.072573
    97  H    0.136559
    98  H    0.124896
    99  H    0.169186
   100  H    0.159111
   101  H    0.399378
   102  N   -0.585695
   103  C    0.001295
   104  C    0.545932
   105  O   -0.499610
   106  C    0.246090
   107  C    0.344814
   108  C   -0.447717
   109  C   -0.349145
   110  H    0.304742
   111  H    0.090425
   112  H    0.015418
   113  H   -0.051736
   114  H   -0.114013
   115  H    0.137356
   116  H    0.087707
   117  H    0.079902
   118  H    0.076623
   119  H    0.070250
   120  H    0.041689
   121  N   -0.479964
   122  C   -0.092672
   123  C    0.466769
   124  O   -0.493200
   125  C    0.103898
   126  O   -0.438895
   127  H    0.235146
   128  H    0.156768
   129  H    0.045836
   130  H    0.018844
   131  H    0.367806
   132  N   -0.250039
   133  C    0.302042
   134  C    0.600950
   135  O   -0.545777
   136  C   -0.321218
   137  H    0.192009
   138  H   -0.046381
   139  H    0.077710
   140  H    0.076752
   141  H    0.086036
   142  N   -0.750339
   143  C    0.849124
   144  C    0.289505
   145  O   -0.536771
   146  C   -0.494517
   147  H    0.339256
   148  H   -0.231041
   149  H    0.126866
   150  H    0.133959
   151  H    0.104663
   152  N   -0.371550
   153  C   -0.263703
   154  C    0.643777
   155  O   -0.540978
   156  C    0.040949
   157  C   -0.217085
   158  C    0.706817
   159  O   -0.624695
   160  O   -0.639536
   161  H    0.288246
   162  H    0.159423
   163  H    0.036822
   164  H    0.043019
   165  H    0.056173
   166  H    0.041375
   167  N   -0.383242
   168  C   -0.113028
   169  H    0.097463
   170  H    0.069915
   171  H    0.078589
   172  H    0.270275
   173  Ca   1.447250
   174  O   -0.811911
   175  H    0.426160
   176  H    0.407672
 Sum of ESP charges =   0.00000

 Normal termination of Gaussian 16 at Wed Sep 18 11:25:03 2019.
