 Gaussian 16, Revision A.03,
 Gaussian 16:  ES64L-G16RevA.03 25-Dec-2016

 ----------------------------------------------------------------------
 #b3lyp/svp scf=(tight,noincore) Test #IOP(5/87=12) Density=Current Pop
 =(MK,readradii) iop(6/33=2) iop(6/42=6)
 ----------------------------------------------------------------------

 ----------------
 Ng-295_loop3_0.0
 ----------------
 Symbolic Z-matrix:
 Charge =  0 Multiplicity = 1

                         Standard orientation:
 ---------------------------------------------------------------------
 Center     Atomic      Atomic             Coordinates (Angstroms)
 Number     Number       Type             X           Y           Z
 ---------------------------------------------------------------------
      1          6           0       -6.081240    4.072299    5.957954
      2          6           0       -5.136810    3.567730    4.868889
      3          8           0       -3.949183    3.382731    5.119723
      4          1           0       -5.520785    4.671693    6.674352
      5          1           0       -6.863309    4.682679    5.507248
      6          1           0       -6.532917    3.223153    6.470296
      7          7           0       -5.543524    3.272266    3.638448
      8          6           0       -4.709971    2.872910    2.520457
      9          6           0       -5.158016    3.637151    1.275390
     10          8           0       -6.341129    3.629245    0.948617
     11          6           0       -4.696635    1.373022    2.220190
     12          6           0       -3.777744    0.969985    1.079752
     13          8           0       -2.833707    0.171224    1.293702
     14          8           0       -3.922570    1.339809   -0.110608
     15          1           0       -6.517146    3.252299    3.370564
     16          1           0       -3.714489    3.271667    2.720226
     17          1           0       -5.671385    1.046434    1.864659
     18          1           0       -4.404296    0.842413    3.124564
     19          7           0       -4.168131    4.155884    0.543240
     20          6           0       -4.399018    5.072406   -0.551648
     21          6           0       -4.982446    4.447568   -1.811842
     22          8           0       -5.378475    5.194506   -2.700404
     23          6           0       -3.151994    5.947326   -0.707681
     24          6           0       -3.365590    7.394247   -1.128865
     25          6           0       -2.088665    8.208778   -0.951944
     26          6           0       -2.341487    9.690379   -1.238373
     27          7           0       -1.148214   10.464337   -1.617830
     28          1           0       -3.242159    3.868214    0.849709
     29          1           0       -5.234371    5.662609   -0.184572
     30          1           0       -2.540123    5.475517   -1.484926
     31          1           0       -2.581633    6.063952    0.216432
     32          1           0       -4.094712    7.773953   -0.416963
     33          1           0       -3.775014    7.493157   -2.131357
     34          1           0       -1.298590    7.874993   -1.626753
     35          1           0       -1.629150    8.158911    0.036924
     36          1           0       -2.987315   10.095091   -0.467846
     37          1           0       -2.845228    9.740919   -2.203925
     38          1           0       -1.399178   11.430305   -1.705716
     39          1           0       -0.519433   10.341815   -0.833340
     40          1           0       -0.724057   10.100251   -2.462597
     41          7           0       -5.037351    3.126599   -1.946484
     42          6           0       -5.766920    2.372929   -2.952621
     43          6           0       -6.837888    1.460904   -2.392944
     44          8           0       -7.553525    0.778229   -3.121654
     45          6           0       -4.898680    1.671342   -3.996093
     46          6           0       -3.971409    0.618532   -3.407739
     47          8           0       -4.388444   -0.174561   -2.533219
     48          8           0       -2.744402    0.704576   -3.621861
     49          1           0       -4.556604    2.669884   -1.184386
     50          1           0       -6.271060    3.166913   -3.511489
     51          1           0       -4.319680    2.416695   -4.527702
     52          1           0       -5.597195    1.171436   -4.671867
     53          7           0       -6.915929    1.342264   -1.066432
     54          6           0       -7.957368    0.607288   -0.370074
     55          6           0       -7.587162   -0.850100   -0.144757
     56          8           0       -8.371743   -1.501098    0.543164
     57          1           0       -6.339015    1.969460   -0.526344
     58          1           0       -8.950387    0.776477   -0.791724
     59          1           0       -7.985216    1.107588    0.609173
     60          7           0       -6.477222   -1.361913   -0.688063
     61          6           0       -6.090240   -2.757645   -0.582817
     62          6           0       -4.837451   -2.708379    0.273801
     63          8           0       -3.832569   -2.174472   -0.194446
     64          6           0       -5.960964   -3.355353   -1.980183
     65          6           0       -5.718481   -4.852389   -1.948812
     66          7           0       -5.490328   -5.518960   -3.083726
     67          8           0       -5.778298   -5.542480   -0.931513
     68          1           0       -5.942817   -0.744532   -1.279123
     69          1           0       -6.826250   -3.349470   -0.031788
     70          1           0       -5.164142   -2.823407   -2.508490
     71          1           0       -6.889163   -3.133621   -2.524868
     72          1           0       -5.632334   -5.018551   -3.955119
     73          1           0       -5.187252   -6.472104   -3.000297
     74          7           0       -4.959050   -3.105189    1.547165
     75          6           0       -4.129043   -2.589138    2.617716
     76          6           0       -2.688189   -3.100628    2.646334
     77          8           0       -1.999344   -3.200472    3.659903
     78          1           0       -5.905960   -3.297319    1.836727
     79          1           0       -4.629614   -2.810998    3.553187
     80          1           0       -4.109737   -1.510248    2.447349
     81          7           0       -2.081607   -3.538803    1.544989
     82          6           0       -0.683307   -3.840872    1.319575
     83          6           0        0.108254   -2.580534    1.030472
     84          8           0       -0.381723   -1.753321    0.261616
     85          6           0       -0.472218   -4.867542    0.205578
     86          6           0       -1.112470   -6.217792    0.389700
     87          6           0       -2.272731   -6.525705   -0.331122
     88          6           0       -0.438234   -7.189332    1.147668
     89          6           0       -2.797709   -7.819415   -0.341718
     90          6           0       -1.062913   -8.441060    1.281284
     91          6           0       -2.290942   -8.690520    0.631812
     92          8           0       -2.802330   -9.947504    0.796049
     93          1           0       -2.708957   -3.430302    0.759330
     94          1           0       -0.215968   -4.239685    2.226130
     95          1           0        0.595621   -5.063631    0.100845
     96          1           0       -0.888510   -4.400084   -0.691910
     97          1           0       -2.733124   -5.785617   -0.959857
     98          1           0        0.503463   -7.012147    1.629240
     99          1           0       -3.791291   -7.986578   -0.750438
    100          1           0       -0.518592   -9.250122    1.728089
    101          1           0       -2.285106  -10.399434    1.459931
    102          7           0        1.312510   -2.382985    1.589169
    103          6           0        2.347570   -1.418631    1.298699
    104          6           0        2.730647   -1.293016   -0.165668
    105          8           0        2.147654   -1.792849   -1.128417
    106          6           0        2.041753   -0.104878    2.018858
    107          6           0        2.089021   -0.283827    3.537621
    108          6           0        0.834385    0.601091    1.398157
    109          6           0        1.793953    1.015381    4.274299
    110          1           0        1.648746   -3.201539    2.066154
    111          1           0        3.207487   -1.903199    1.747183
    112          1           0        2.841421    0.565184    1.719277
    113          1           0        3.048783   -0.617732    3.926676
    114          1           0        1.343235   -1.007663    3.863756
    115          1           0        0.956803    0.632465    0.317032
    116          1           0       -0.128333    0.113903    1.529002
    117          1           0        0.738573    1.623691    1.761625
    118          1           0        2.547126    1.778804    4.081124
    119          1           0        0.796986    1.347746    4.029166
    120          1           0        1.615911    0.745827    5.321123
    121          7           0        3.880708   -0.676113   -0.425265
    122          6           0        4.446286   -0.367693   -1.720294
    123          6           0        5.692000   -1.165958   -2.083570
    124          8           0        5.977935   -1.158687   -3.274153
    125          6           0        4.659424    1.136495   -1.878384
    126          8           0        5.471048    1.683973   -0.865055
    127          1           0        4.416716   -0.396677    0.386098
    128          1           0        3.735784   -0.631326   -2.507113
    129          1           0        3.690393    1.633443   -1.839384
    130          1           0        5.194542    1.403252   -2.796801
    131          1           0        5.632773    2.624789   -1.001473
    132          7           0        6.403573   -1.690310   -1.083261
    133          6           0        7.583853   -2.526450   -1.243599
    134          6           0        8.336552   -2.390398   -2.551855
    135          8           0        8.294359   -3.279330   -3.403982
    136          6           0        7.153861   -3.903177   -0.741374
    137          1           0        6.033607   -1.526950   -0.159931
    138          1           0        8.266291   -2.185821   -0.473632
    139          1           0        6.213230   -4.136183   -1.236470
    140          1           0        7.944961   -4.587084   -1.065307
    141          1           0        7.091300   -4.014031    0.339782
    142          7           0        8.940705   -1.256135   -2.926885
    143          6           0        9.037418    0.024814   -2.261441
    144          6           0       10.211776    0.064125   -1.295967
    145          8           0       11.290543   -0.286183   -1.761529
    146          6           0        8.982490    1.179576   -3.261043
    147          1           0        9.522690   -1.320176   -3.755433
    148          1           0        8.134272    0.213011   -1.689681
    149          1           0        9.894785    1.243605   -3.852751
    150          1           0        8.136114    1.085425   -3.937345
    151          1           0        8.942080    2.138273   -2.747752
    152          7           0       10.093214    0.379221   -0.003080
    153          6           0        8.896539    0.723874    0.727935
    154          6           0        8.877435    0.321291    2.195880
    155          8           0        7.813206    0.101309    2.761233
    156          6           0        8.561469    2.203960    0.530009
    157          6           0        9.502088    3.142896    1.283491
    158          6           0        9.170108    4.617786    1.151622
    159          8           0        8.466561    5.164027    2.035897
    160          8           0        9.785744    5.307566    0.305101
    161          1           0       10.989868    0.556432    0.423075
    162          1           0        8.013299    0.209524    0.341243
    163          1           0        7.532170    2.357443    0.850611
    164          1           0        8.516719    2.381209   -0.537876
    165          1           0       10.508318    2.926726    0.916650
    166          1           0        9.384187    3.005461    2.359089
    167          7           0       10.026495    0.231976    2.876897
    168          6           0       10.085935   -0.149229    4.270184
    169          1           0       10.643131    0.602782    4.828885
    170          1           0        9.075050   -0.223038    4.670447
    171          1           0       10.585990   -1.113685    4.362585
    172          1           0       10.885505    0.501270    2.409797
    173         20           0       -2.218685   -0.385704   -1.194988
    174          8           0       -1.285347    2.076243   -0.923882
    175          1           0       -0.908096    2.654508   -1.580306
    176          1           0       -1.272876    2.580419   -0.112741
 ---------------------------------------------------------------------

 SCF Done:  E(RB3LYP) =  -5333.41864234     A.U. after   82 cycles

 The electronic state is 1-A.
 Alpha  occ. eigenvalues -- -145.41092 -19.20636 -19.16243 -19.14494 -19.14218
 Alpha  occ. eigenvalues --  -19.13875 -19.13287 -19.11054 -19.10502 -19.10388
 Alpha  occ. eigenvalues --  -19.09828 -19.09658 -19.09288 -19.09057 -19.08716
 Alpha  occ. eigenvalues --  -19.08534 -19.08225 -19.08074 -19.08026 -19.07886
 Alpha  occ. eigenvalues --  -19.07213 -19.06786 -18.97733 -18.97715 -15.46857
 Alpha  occ. eigenvalues --  -14.57285 -14.39761 -14.38764 -14.38727 -14.37367
 Alpha  occ. eigenvalues --  -14.37036 -14.36571 -14.35967 -14.35103 -14.35021
 Alpha  occ. eigenvalues --  -14.34856 -14.34640 -14.34421 -14.33886 -14.32852
 Alpha  occ. eigenvalues --  -12.60461 -12.60451 -12.60398 -10.35136 -10.31971
 Alpha  occ. eigenvalues --  -10.31680 -10.31507 -10.30352 -10.29646 -10.29556
 Alpha  occ. eigenvalues --  -10.29531 -10.29159 -10.28974 -10.28571 -10.28331
 Alpha  occ. eigenvalues --  -10.27763 -10.27534 -10.27018 -10.27015 -10.26985
 Alpha  occ. eigenvalues --  -10.26915 -10.26339 -10.26307 -10.26044 -10.26028
 Alpha  occ. eigenvalues --  -10.25606 -10.25509 -10.25274 -10.24886 -10.24775
 Alpha  occ. eigenvalues --  -10.24677 -10.24151 -10.23604 -10.23081 -10.22646
 Alpha  occ. eigenvalues --  -10.21739 -10.21691 -10.21216 -10.21200 -10.21098
 Alpha  occ. eigenvalues --  -10.21001 -10.20988 -10.20926 -10.20178 -10.19744
 Alpha  occ. eigenvalues --  -10.19699 -10.19518 -10.19090 -10.18992 -10.18624
 Alpha  occ. eigenvalues --  -10.18079 -10.18049 -10.17763 -10.17251 -10.17101
 Alpha  occ. eigenvalues --  -10.15535 -10.12253  -1.83644  -1.13175  -1.11274
 Alpha  occ. eigenvalues --   -1.11154  -1.10804  -1.07262  -1.07000  -1.06696
 Alpha  occ. eigenvalues --   -1.06205  -1.05267  -1.04837  -1.04585  -1.03920
 Alpha  occ. eigenvalues --   -1.03567  -1.03534  -1.03117  -1.02945  -1.02571
 Alpha  occ. eigenvalues --   -1.02154  -1.01987  -1.01627  -1.01071  -1.00953
 Alpha  occ. eigenvalues --   -0.99866  -0.97036  -0.95785  -0.95716  -0.94172
 Alpha  occ. eigenvalues --   -0.93656  -0.93253  -0.92770  -0.92676  -0.92422
 Alpha  occ. eigenvalues --   -0.92205  -0.91944  -0.91571  -0.91567  -0.90432
 Alpha  occ. eigenvalues --   -0.90193  -0.90060  -0.90010  -0.89372  -0.85669
 Alpha  occ. eigenvalues --   -0.84397  -0.83574  -0.81709  -0.80879  -0.80375
 Alpha  occ. eigenvalues --   -0.79476  -0.79080  -0.78544  -0.77077  -0.76861
 Alpha  occ. eigenvalues --   -0.76390  -0.75899  -0.75369  -0.75192  -0.74926
 Alpha  occ. eigenvalues --   -0.74589  -0.73860  -0.73447  -0.72878  -0.72569
 Alpha  occ. eigenvalues --   -0.71974  -0.70852  -0.70646  -0.68776  -0.68574
 Alpha  occ. eigenvalues --   -0.67096  -0.67034  -0.66896  -0.66543  -0.65683
 Alpha  occ. eigenvalues --   -0.65608  -0.64680  -0.64599  -0.63283  -0.63202
 Alpha  occ. eigenvalues --   -0.62829  -0.62100  -0.61786  -0.60846  -0.60664
 Alpha  occ. eigenvalues --   -0.60580  -0.59996  -0.59601  -0.59400  -0.59360
 Alpha  occ. eigenvalues --   -0.59331  -0.58917  -0.58675  -0.58349  -0.58078
 Alpha  occ. eigenvalues --   -0.57668  -0.57606  -0.57184  -0.56996  -0.56624
 Alpha  occ. eigenvalues --   -0.56247  -0.56171  -0.55439  -0.55392  -0.55195
 Alpha  occ. eigenvalues --   -0.54691  -0.53600  -0.53541  -0.53265  -0.53035
 Alpha  occ. eigenvalues --   -0.52741  -0.52301  -0.52118  -0.51533  -0.51470
 Alpha  occ. eigenvalues --   -0.51083  -0.50817  -0.50692  -0.50448  -0.50138
 Alpha  occ. eigenvalues --   -0.50006  -0.49864  -0.49678  -0.49205  -0.49146
 Alpha  occ. eigenvalues --   -0.48902  -0.48350  -0.48325  -0.47948  -0.47692
 Alpha  occ. eigenvalues --   -0.47573  -0.47453  -0.47299  -0.47134  -0.46913
 Alpha  occ. eigenvalues --   -0.46792  -0.46710  -0.46520  -0.46290  -0.46205
 Alpha  occ. eigenvalues --   -0.46148  -0.46038  -0.45925  -0.45871  -0.45620
 Alpha  occ. eigenvalues --   -0.45241  -0.45072  -0.44951  -0.44876  -0.44500
 Alpha  occ. eigenvalues --   -0.44338  -0.44158  -0.43888  -0.43880  -0.43655
 Alpha  occ. eigenvalues --   -0.43431  -0.43308  -0.43032  -0.42737  -0.42619
 Alpha  occ. eigenvalues --   -0.42557  -0.42455  -0.42409  -0.42183  -0.42124
 Alpha  occ. eigenvalues --   -0.41847  -0.41817  -0.41712  -0.41576  -0.41410
 Alpha  occ. eigenvalues --   -0.41214  -0.40940  -0.40892  -0.40817  -0.40670
 Alpha  occ. eigenvalues --   -0.40478  -0.40385  -0.40152  -0.40066  -0.40005
 Alpha  occ. eigenvalues --   -0.39811  -0.39591  -0.39518  -0.39297  -0.39184
 Alpha  occ. eigenvalues --   -0.39132  -0.38969  -0.38944  -0.38619  -0.38533
 Alpha  occ. eigenvalues --   -0.38419  -0.38219  -0.38156  -0.38069  -0.37923
 Alpha  occ. eigenvalues --   -0.37717  -0.37607  -0.37572  -0.37369  -0.37217
 Alpha  occ. eigenvalues --   -0.36955  -0.36789  -0.36771  -0.36356  -0.36254
 Alpha  occ. eigenvalues --   -0.36250  -0.35985  -0.35701  -0.35259  -0.34987
 Alpha  occ. eigenvalues --   -0.34959  -0.34828  -0.34669  -0.34291  -0.34078
 Alpha  occ. eigenvalues --   -0.33936  -0.33710  -0.33428  -0.33366  -0.32238
 Alpha  occ. eigenvalues --   -0.31832  -0.31728  -0.30871  -0.30488  -0.30144
 Alpha  occ. eigenvalues --   -0.30051  -0.29302  -0.29079  -0.28951  -0.28586
 Alpha  occ. eigenvalues --   -0.28374  -0.27989  -0.27734  -0.27448  -0.27267
 Alpha  occ. eigenvalues --   -0.27011  -0.26586  -0.26561  -0.26479  -0.26394
 Alpha  occ. eigenvalues --   -0.26264  -0.26107  -0.26004  -0.25660  -0.25616
 Alpha  occ. eigenvalues --   -0.25532  -0.25500  -0.25291  -0.24723  -0.24631
 Alpha  occ. eigenvalues --   -0.24543  -0.24371  -0.24059  -0.23708  -0.23589
 Alpha  occ. eigenvalues --   -0.23370  -0.22996  -0.22900  -0.22640  -0.22006
 Alpha  occ. eigenvalues --   -0.15047  -0.14730  -0.11842
 Alpha virt. eigenvalues --   -0.10951  -0.04643  -0.04493  -0.03886  -0.02748
 Alpha virt. eigenvalues --   -0.02566  -0.02436  -0.02240  -0.02017  -0.01186
 Alpha virt. eigenvalues --   -0.00819  -0.00345  -0.00055   0.00334   0.00844

 Mulliken charges:
               1
     1  C    0.072319
     2  C    0.002292
     3  O   -0.293013
     4  H    0.039174
     5  H    0.009208
     6  H    0.048425
     7  N   -0.121308
     8  C    0.107729
     9  C    0.043382
    10  O   -0.290470
    11  C    0.176252
    12  C    0.055451
    13  O   -0.407876
    14  O   -0.424282
    15  H    0.115132
    16  H   -0.013620
    17  H    0.006795
    18  H    0.034471
    19  N   -0.141793
    20  C    0.155369
    21  C    0.029671
    22  O   -0.290849
    23  C    0.056956
    24  C    0.011514
    25  C   -0.027014
    26  C    0.024636
    27  N    0.156847
    28  H    0.120598
    29  H    0.025089
    30  H    0.006599
    31  H   -0.001296
    32  H    0.009329
    33  H    0.042600
    34  H    0.001176
    35  H    0.023863
    36  H    0.080693
    37  H    0.029113
    38  H    0.124082
    39  H    0.122557
    40  H    0.122586
    41  N   -0.150309
    42  C    0.120270
    43  C    0.063303
    44  O   -0.283278
    45  C    0.135779
    46  C    0.110695
    47  O   -0.432899
    48  O   -0.419559
    49  H    0.146624
    50  H    0.025422
    51  H   -0.007134
    52  H    0.027956
    53  N   -0.186981
    54  C    0.210240
    55  C    0.023755
    56  O   -0.303536
    57  H    0.135130
    58  H    0.046974
    59  H    0.019747
    60  N   -0.150536
    61  C    0.137507
    62  C    0.121262
    63  O   -0.391191
    64  C    0.071266
    65  C   -0.004847
    66  N   -0.034282
    67  O   -0.282666
    68  H    0.171754
    69  H    0.012433
    70  H    0.035655
    71  H    0.051416
    72  H    0.119136
    73  H    0.133576
    74  N   -0.118513
    75  C    0.187040
    76  C    0.037123
    77  O   -0.291638
    78  H    0.147495
    79  H    0.029955
    80  H    0.059386
    81  N   -0.105815
    82  C    0.124045
    83  C    0.165138
    84  O   -0.378087
    85  C    0.133789
    86  C    0.007348
    87  C   -0.005949
    88  C    0.004437
    89  C   -0.000735
    90  C   -0.041859
    91  C    0.135450
    92  O   -0.190257
    93  H    0.113092
    94  H   -0.013587
    95  H    0.001751
    96  H   -0.015023
    97  H   -0.033699
    98  H   -0.036998
    99  H    0.003302
   100  H   -0.032937
   101  H    0.166312
   102  N   -0.107556
   103  C    0.100731
   104  C    0.074963
   105  O   -0.263241
   106  C   -0.048887
   107  C    0.018565
   108  C    0.037738
   109  C    0.033377
   110  H    0.123166
   111  H   -0.001598
   112  H   -0.016137
   113  H   -0.000453
   114  H    0.007431
   115  H   -0.025477
   116  H    0.052799
   117  H   -0.011032
   118  H    0.025763
   119  H    0.004439
   120  H    0.007883
   121  N   -0.153543
   122  C    0.118759
   123  C    0.076463
   124  O   -0.265641
   125  C    0.232252
   126  O   -0.329126
   127  H    0.133778
   128  H    0.039973
   129  H   -0.020017
   130  H    0.014982
   131  H    0.189517
   132  N   -0.148149
   133  C    0.078205
   134  C    0.075130
   135  O   -0.259009
   136  C    0.063769
   137  H    0.117209
   138  H    0.004011
   139  H    0.022436
   140  H    0.025315
   141  H    0.007720
   142  N   -0.088128
   143  C    0.045948
   144  C    0.055234
   145  O   -0.278481
   146  C    0.042679
   147  H    0.131255
   148  H    0.001685
   149  H    0.014713
   150  H    0.033387
   151  H    0.023732
   152  N   -0.096529
   153  C    0.083092
   154  C    0.054794
   155  O   -0.285205
   156  C    0.052400
   157  C    0.065601
   158  C    0.031260
   159  O   -0.360060
   160  O   -0.350678
   161  H    0.119445
   162  H   -0.010895
   163  H   -0.005583
   164  H   -0.023106
   165  H   -0.044418
   166  H   -0.006678
   167  N   -0.158946
   168  C    0.122063
   169  H    0.027515
   170  H    0.048376
   171  H    0.017584
   172  H    0.108176
   173  Ca   1.341203
   174  O   -0.270850
   175  H    0.179211
   176  H    0.178062
 Sum of Mulliken charges =  -0.00000

 Dipole moment (field-independent basis, Debye):
    X=            -21.5728    Y=             19.2686    Z=              0.2287  Tot=             28.9261
 Quadrupole moment (field-independent basis, Debye-Ang):
   XX=           -884.8022   YY=           -269.5865   ZZ=           -594.0928
   XY=           -161.7505   XZ=             10.9527   YZ=            -76.9761

 ESP charges:
               1
     1  C   -0.425916
     2  C    0.727393
     3  O   -0.575833
     4  H    0.128914
     5  H    0.095544
     6  H    0.137833
     7  N   -0.648241
     8  C    0.276216
     9  C    0.481545
    10  O   -0.499174
    11  C   -0.222775
    12  C    0.638981
    13  O   -0.757912
    14  O   -0.428925
    15  H    0.314854
    16  H    0.007471
    17  H    0.062515
    18  H    0.111614
    19  N   -0.551117
    20  C    0.284283
    21  C    0.389556
    22  O   -0.559315
    23  C   -0.018973
    24  C   -0.132664
    25  C    0.218083
    26  C    0.030216
    27  N   -0.280141
    28  H    0.304203
    29  H    0.051638
    30  H    0.020533
    31  H    0.001547
    32  H    0.024623
    33  H    0.055638
    34  H   -0.045197
    35  H   -0.014376
    36  H    0.071972
    37  H    0.035288
    38  H    0.264791
    39  H    0.228595
    40  H    0.264066
    41  N   -0.122308
    42  C    0.161766
    43  C    0.299337
    44  O   -0.520716
    45  C   -0.291257
    46  C    0.787033
    47  O   -0.739503
    48  O   -0.744800
    49  H   -0.080510
    50  H    0.077345
    51  H    0.081149
    52  H    0.097788
    53  N    0.060937
    54  C   -0.358277
    55  C    0.558931
    56  O   -0.566335
    57  H    0.006671
    58  H    0.173872
    59  H    0.136305
    60  N   -0.261745
    61  C    0.103487
    62  C    0.449255
    63  O   -0.582916
    64  C   -0.133896
    65  C    0.688491
    66  N   -0.861171
    67  O   -0.562896
    68  H    0.247561
    69  H    0.026598
    70  H    0.025155
    71  H    0.090186
    72  H    0.370117
    73  H    0.407556
    74  N   -0.533852
    75  C   -0.012040
    76  C    0.565276
    77  O   -0.575188
    78  H    0.372432
    79  H    0.105696
    80  H    0.067913
    81  N   -0.342966
    82  C    0.041748
    83  C    0.644913
    84  O   -0.565753
    85  C   -0.278044
    86  C    0.142585
    87  C   -0.238224
    88  C   -0.090001
    89  C   -0.215565
    90  C   -0.380640
    91  C    0.409233
    92  O   -0.547516
    93  H    0.271875
    94  H    0.058331
    95  H    0.097170
    96  H    0.079507
    97  H    0.156379
    98  H    0.129001
    99  H    0.158360
   100  H    0.163347
   101  H    0.401720
   102  N   -0.479757
   103  C   -0.359272
   104  C    0.754629
   105  O   -0.557592
   106  C    0.158080
   107  C    0.156330
   108  C   -0.217629
   109  C   -0.290760
   110  H    0.320949
   111  H    0.144322
   112  H    0.013311
   113  H   -0.019654
   114  H    0.009322
   115  H    0.028821
   116  H    0.124886
   117  H    0.034292
   118  H    0.070976
   119  H    0.073472
   120  H    0.075942
   121  N   -0.371387
   122  C   -0.212351
   123  C    0.596649
   124  O   -0.497362
   125  C    0.142582
   126  O   -0.571832
   127  H    0.242797
   128  H    0.148116
   129  H    0.039305
   130  H    0.028895
   131  H    0.406653
   132  N   -0.468550
   133  C    0.499200
   134  C    0.363803
   135  O   -0.498563
   136  C   -0.436559
   137  H    0.222884
   138  H   -0.040427
   139  H    0.103758
   140  H    0.095064
   141  H    0.122285
   142  N   -0.515567
   143  C    0.231614
   144  C    0.686011
   145  O   -0.598347
   146  C   -0.309338
   147  H    0.334864
   148  H    0.096139
   149  H    0.074524
   150  H    0.103893
   151  H    0.092215
   152  N   -0.691798
   153  C   -0.132498
   154  C    0.590512
   155  O   -0.541008
   156  C    0.237296
   157  C   -0.288885
   158  C    0.693218
   159  O   -0.646142
   160  O   -0.643238
   161  H    0.348537
   162  H    0.076822
   163  H   -0.050329
   164  H   -0.050544
   165  H    0.062268
   166  H    0.067844
   167  N   -0.350911
   168  C   -0.063938
   169  H    0.064813
   170  H    0.086747
   171  H    0.050063
   172  H    0.267005
   173  Ca   1.571772
   174  O   -0.728653
   175  H    0.403092
   176  H    0.340059
 Sum of ESP charges =   0.00000

 Normal termination of Gaussian 16 at Wed Sep 18 00:13:08 2019.
