 Gaussian 16, Revision A.03,
 Gaussian 16:  ES64L-G16RevA.03 25-Dec-2016

 ----------------------------------------------------------------------
 #b3lyp/svp scf=(tight,noincore) Test #IOP(5/87=12) Density=Current Pop
 =(MK,readradii) iop(6/33=2) iop(6/42=6)
 ----------------------------------------------------------------------

 -----------------
 Ng-293_loop3_58.0
 -----------------
 Symbolic Z-matrix:
 Charge =  0 Multiplicity = 1

                         Standard orientation:
 ---------------------------------------------------------------------
 Center     Atomic      Atomic             Coordinates (Angstroms)
 Number     Number       Type             X           Y           Z
 ---------------------------------------------------------------------
      1          6           0        7.738369    1.122186    5.584955
      2          6           0        8.411606    1.645833    4.327559
      3          8           0        9.439778    1.114287    3.886060
      4          1           0        8.315467    0.287937    5.984950
      5          1           0        7.686853    1.918135    6.328829
      6          1           0        6.730159    0.783840    5.343760
      7          7           0        7.855425    2.701631    3.740571
      8          6           0        8.419105    3.253124    2.527015
      9          6           0        8.218328    2.230862    1.410919
     10          8           0        7.189915    1.542400    1.456588
     11          6           0        7.905560    4.585668    2.000805
     12          6           0        6.422058    4.827497    2.218385
     13          8           0        5.974106    4.809254    3.382433
     14          8           0        5.698843    4.999316    1.202936
     15          1           0        6.930723    3.003709    4.020705
     16          1           0        9.495717    3.327042    2.636305
     17          1           0        8.142253    4.600843    0.938051
     18          1           0        8.517396    5.355411    2.472878
     19          7           0        9.123891    2.110712    0.435922
     20          6           0        9.212851    1.086300   -0.577472
     21          6           0        8.149322    1.019938   -1.653392
     22          8           0        8.422056    1.171714   -2.845147
     23          6           0        9.511763   -0.270234    0.057167
     24          6           0       10.002257   -1.364482   -0.886991
     25          6           0       10.324023   -2.580132   -0.024691
     26          6           0       11.137909   -3.614291   -0.807894
     27          7           0       11.397484   -4.893494   -0.147319
     28          1           0        9.896706    2.765345    0.450463
     29          1           0       10.136606    1.354531   -1.105895
     30          1           0        8.553266   -0.587981    0.480039
     31          1           0       10.255938   -0.065689    0.826625
     32          1           0       10.884991   -0.967070   -1.392407
     33          1           0        9.239544   -1.478785   -1.652892
     34          1           0        9.397066   -3.055469    0.287406
     35          1           0       10.859151   -2.348988    0.892048
     36          1           0       12.039126   -3.168100   -1.245641
     37          1           0       10.601647   -3.906198   -1.707123
     38          1           0       10.623672   -5.228485    0.410440
     39          1           0       11.775435   -5.551745   -0.819375
     40          1           0       12.188961   -4.765954    0.460792
     41          7           0        6.912225    0.750406   -1.206912
     42          6           0        5.801391    0.530171   -2.111702
     43          6           0        4.617011    1.325547   -1.587183
     44          8           0        3.862123    0.761379   -0.795502
     45          6           0        5.502651   -0.961197   -2.155024
     46          6           0        4.355881   -1.383569   -3.066846
     47          8           0        4.038658   -0.599129   -3.986044
     48          8           0        3.645159   -2.352496   -2.740266
     49          1           0        6.726701    0.705555   -0.220977
     50          1           0        5.977397    0.828631   -3.143372
     51          1           0        5.283406   -1.284769   -1.133343
     52          1           0        6.360557   -1.555483   -2.482623
     53          7           0        4.313582    2.475773   -2.184185
     54          6           0        3.242748    3.368090   -1.784204
     55          6           0        1.895215    2.670926   -1.606675
     56          8           0        1.396536    1.906182   -2.430985
     57          1           0        4.922997    2.671517   -2.961679
     58          1           0        3.128732    4.132927   -2.552660
     59          1           0        3.594219    3.849029   -0.880618
     60          7           0        1.277631    2.836804   -0.431484
     61          6           0        0.041143    2.209383   -0.039003
     62          6           0       -1.182888    2.940426   -0.562668
     63          8           0       -2.188003    2.292073   -0.878867
     64          6           0       -0.037496    1.958544    1.472617
     65          6           0        1.096606    1.152383    2.083860
     66          7           0        1.815410    1.844736    2.968206
     67          8           0        1.440653    0.046095    1.693785
     68          1           0        1.730867    3.334262    0.330429
     69          1           0       -0.027560    1.229146   -0.520993
     70          1           0       -0.970521    1.424583    1.637995
     71          1           0       -0.306419    2.844558    2.051201
     72          1           0        1.613668    2.830326    3.085736
     73          1           0        2.646368    1.441141    3.369106
     74          7           0       -1.141739    4.255597   -0.793392
     75          6           0       -2.352921    4.911343   -1.223433
     76          6           0       -3.595322    4.517821   -0.442292
     77          8           0       -3.568725    4.451392    0.790907
     78          1           0       -0.292108    4.762729   -0.600405
     79          1           0       -2.593089    4.673440   -2.258721
     80          1           0       -2.249075    5.997714   -1.170397
     81          7           0       -4.736654    4.368967   -1.124204
     82          6           0       -5.915517    3.862437   -0.434125
     83          6           0       -5.890765    2.525574    0.296686
     84          8           0       -6.904465    2.270107    0.932099
     85          6           0       -6.654077    4.988634    0.262158
     86          6           0       -6.589061    6.374294   -0.339189
     87          6           0       -5.735164    7.376197    0.143251
     88          6           0       -7.362172    6.626130   -1.479969
     89          6           0       -5.617279    8.592448   -0.551399
     90          6           0       -7.246499    7.812712   -2.220607
     91          6           0       -6.406673    8.806803   -1.697658
     92          8           0       -6.382601    9.988489   -2.369846
     93          1           0       -4.839283    4.660528   -2.083662
     94          1           0       -6.546743    3.563085   -1.273971
     95          1           0       -6.173473    5.034399    1.240230
     96          1           0       -7.706681    4.691351    0.350179
     97          1           0       -5.255095    7.215817    1.091255
     98          1           0       -8.033090    5.852970   -1.807829
     99          1           0       -4.893016    9.310487   -0.205764
    100          1           0       -7.869858    8.040977   -3.079395
    101          1           0       -7.004367    9.911679   -3.099303
    102          7           0       -4.783081    1.777978    0.184277
    103          6           0       -4.544125    0.424302    0.630776
    104          6           0       -5.391106   -0.615691   -0.086188
    105          8           0       -4.949772   -1.625777   -0.638684
    106          6           0       -4.598619    0.276806    2.148496
    107          6           0       -3.505044    1.099379    2.835131
    108          6           0       -4.478760   -1.169287    2.632075
    109          6           0       -3.954293    1.562059    4.217376
    110          1           0       -3.928594    2.225301   -0.104087
    111          1           0       -3.516088    0.134056    0.364133
    112          1           0       -5.572239    0.587090    2.499621
    113          1           0       -3.300715    1.973608    2.215636
    114          1           0       -2.572757    0.546876    2.931468
    115          1           0       -4.335227   -1.205736    3.714189
    116          1           0       -5.445750   -1.622578    2.401299
    117          1           0       -3.662871   -1.705575    2.160355
    118          1           0       -4.717458    2.329046    4.031070
    119          1           0       -4.355166    0.726930    4.788480
    120          1           0       -3.168976    2.052012    4.792029
    121          7           0       -6.692354   -0.361772   -0.237440
    122          6           0       -7.619062   -1.179268   -0.998435
    123          6           0       -7.954347   -2.461187   -0.248791
    124          8           0       -8.485112   -3.292858   -0.976192
    125          6           0       -8.946045   -0.492739   -1.294901
    126          8           0       -8.674547    0.853521   -1.619821
    127          1           0       -7.039236    0.486357    0.193201
    128          1           0       -7.192045   -1.500645   -1.948895
    129          1           0       -9.624045   -0.526173   -0.438339
    130          1           0       -9.458213   -0.985665   -2.113441
    131          1           0       -8.199893    0.916980   -2.442485
    132          7           0       -7.640220   -2.665687    1.037912
    133          6           0       -7.636220   -3.941977    1.726293
    134          6           0       -6.891489   -5.075084    1.040695
    135          8           0       -7.197119   -6.260742    1.189711
    136          6           0       -8.977925   -4.273682    2.361429
    137          1           0       -7.414289   -1.841353    1.571606
    138          1           0       -6.894853   -3.727972    2.494132
    139          1           0       -9.672716   -4.727646    1.654830
    140          1           0       -8.795965   -5.004307    3.150212
    141          1           0       -9.412489   -3.415889    2.877032
    142          7           0       -5.939961   -4.740176    0.174363
    143          6           0       -4.975674   -5.638925   -0.449015
    144          6           0       -3.659724   -5.478220    0.308183
    145          8           0       -3.478292   -4.480090    1.008053
    146          6           0       -4.814503   -5.282912   -1.921557
    147          1           0       -5.628302   -3.781884    0.230453
    148          1           0       -5.330735   -6.648648   -0.298051
    149          1           0       -3.998105   -5.880676   -2.321024
    150          1           0       -5.752640   -5.469742   -2.436526
    151          1           0       -4.642597   -4.209494   -2.000430
    152          7           0       -2.776209   -6.476322    0.294234
    153          6           0       -1.452261   -6.491054    0.877197
    154          6           0       -1.554488   -6.265220    2.373810
    155          8           0       -0.573739   -5.838387    2.981959
    156          6           0       -0.515451   -5.524054    0.147405
    157          6           0        0.083076   -6.230847   -1.067135
    158          6           0        0.978962   -5.324824   -1.896962
    159          8           0        2.175596   -5.197533   -1.560415
    160          8           0        0.521949   -4.711248   -2.892734
    161          1           0       -3.048818   -7.332291   -0.158094
    162          1           0       -1.046074   -7.501021    0.756865
    163          1           0        0.352990   -5.198935    0.726549
    164          1           0       -1.075796   -4.637736   -0.125640
    165          1           0       -0.655562   -6.689164   -1.723153
    166          1           0        0.727041   -7.024715   -0.707715
    167          7           0       -2.633344   -6.707353    3.019710
    168          6           0       -2.746755   -6.601069    4.454820
    169          1           0       -2.269176   -7.462938    4.921561
    170          1           0       -2.256082   -5.688363    4.792649
    171          1           0       -3.799061   -6.573466    4.735943
    172          1           0       -3.336123   -7.198386    2.480926
    173         20           0        3.019308   -4.565036   -3.959560
    174          8           0        3.855341   -2.870251   -5.882488
    175          1           0        4.562487   -2.234556   -5.926502
    176          1           0        3.466767   -2.870317   -6.753125
 ---------------------------------------------------------------------

 SCF Done:  E(RB3LYP) =  -5333.35502925     A.U. after   41 cycles

 The electronic state is 1-A.
 Alpha  occ. eigenvalues -- -145.46812 -19.19482 -19.15352 -19.11738 -19.08882
 Alpha  occ. eigenvalues --  -19.08527 -19.08475 -19.07544 -19.07506 -19.07052
 Alpha  occ. eigenvalues --  -19.06723 -19.06670 -19.06023 -19.05872 -19.05840
 Alpha  occ. eigenvalues --  -19.05776 -19.05209 -19.05040 -19.04705 -19.04055
 Alpha  occ. eigenvalues --  -19.03271 -19.01396 -18.97905 -18.97609 -15.52741
 Alpha  occ. eigenvalues --  -14.59291 -14.35277 -14.34705 -14.34471 -14.34387
 Alpha  occ. eigenvalues --  -14.33630 -14.32609 -14.32593 -14.32288 -14.31991
 Alpha  occ. eigenvalues --  -14.31653 -14.31290 -14.31222 -14.30984 -14.29974
 Alpha  occ. eigenvalues --  -12.66342 -12.66304 -12.66257 -10.35266 -10.27870
 Alpha  occ. eigenvalues --  -10.27501 -10.27279 -10.27022 -10.26128 -10.26008
 Alpha  occ. eigenvalues --  -10.25426 -10.25382 -10.25365 -10.25202 -10.24765
 Alpha  occ. eigenvalues --  -10.24698 -10.24555 -10.24302 -10.24268 -10.23935
 Alpha  occ. eigenvalues --  -10.23665 -10.22903 -10.22732 -10.22635 -10.22279
 Alpha  occ. eigenvalues --  -10.21937 -10.21619 -10.21592 -10.21447 -10.20867
 Alpha  occ. eigenvalues --  -10.20703 -10.20662 -10.20302 -10.20172 -10.19725
 Alpha  occ. eigenvalues --  -10.19651 -10.19093 -10.18453 -10.18414 -10.18258
 Alpha  occ. eigenvalues --  -10.18132 -10.18023 -10.17767 -10.17552 -10.17098
 Alpha  occ. eigenvalues --  -10.16700 -10.16067 -10.16009 -10.15821 -10.15730
 Alpha  occ. eigenvalues --  -10.15697 -10.15332 -10.14615 -10.14603 -10.14563
 Alpha  occ. eigenvalues --  -10.13841 -10.12927  -1.89403  -1.16853  -1.16402
 Alpha  occ. eigenvalues --   -1.16234  -1.14774  -1.05555  -1.04532  -1.02654
 Alpha  occ. eigenvalues --   -1.01709  -1.01169  -1.00948  -1.00678  -1.00658
 Alpha  occ. eigenvalues --   -1.00599  -0.99963  -0.99633  -0.99482  -0.99020
 Alpha  occ. eigenvalues --   -0.98607  -0.98578  -0.97671  -0.97481  -0.97187
 Alpha  occ. eigenvalues --   -0.96689  -0.92039  -0.91507  -0.91217  -0.91098
 Alpha  occ. eigenvalues --   -0.91084  -0.90635  -0.90183  -0.90091  -0.88965
 Alpha  occ. eigenvalues --   -0.88771  -0.88512  -0.88469  -0.88464  -0.87891
 Alpha  occ. eigenvalues --   -0.87507  -0.86883  -0.86853  -0.86083  -0.83790
 Alpha  occ. eigenvalues --   -0.82177  -0.81935  -0.78855  -0.77495  -0.77390
 Alpha  occ. eigenvalues --   -0.77108  -0.75935  -0.75911  -0.75096  -0.74419
 Alpha  occ. eigenvalues --   -0.73616  -0.73524  -0.73396  -0.73169  -0.72993
 Alpha  occ. eigenvalues --   -0.72106  -0.71390  -0.70924  -0.70282  -0.69800
 Alpha  occ. eigenvalues --   -0.69027  -0.67993  -0.67612  -0.67194  -0.65177
 Alpha  occ. eigenvalues --   -0.64750  -0.64133  -0.63835  -0.63189  -0.62731
 Alpha  occ. eigenvalues --   -0.61935  -0.61812  -0.61507  -0.60378  -0.60293
 Alpha  occ. eigenvalues --   -0.60112  -0.59747  -0.58863  -0.58573  -0.58270
 Alpha  occ. eigenvalues --   -0.58066  -0.57564  -0.57054  -0.57009  -0.56722
 Alpha  occ. eigenvalues --   -0.55995  -0.55916  -0.55309  -0.55209  -0.55151
 Alpha  occ. eigenvalues --   -0.54544  -0.54520  -0.54094  -0.53714  -0.53635
 Alpha  occ. eigenvalues --   -0.53318  -0.53054  -0.52331  -0.51873  -0.51818
 Alpha  occ. eigenvalues --   -0.51547  -0.50928  -0.50891  -0.50082  -0.50058
 Alpha  occ. eigenvalues --   -0.49833  -0.49638  -0.48910  -0.48055  -0.47949
 Alpha  occ. eigenvalues --   -0.47860  -0.47509  -0.47188  -0.46885  -0.46767
 Alpha  occ. eigenvalues --   -0.46641  -0.46448  -0.46153  -0.45833  -0.45572
 Alpha  occ. eigenvalues --   -0.45431  -0.45327  -0.45113  -0.44689  -0.44679
 Alpha  occ. eigenvalues --   -0.44457  -0.44334  -0.44069  -0.43995  -0.43803
 Alpha  occ. eigenvalues --   -0.43397  -0.43357  -0.43336  -0.43303  -0.43060
 Alpha  occ. eigenvalues --   -0.42588  -0.42542  -0.42423  -0.42327  -0.42103
 Alpha  occ. eigenvalues --   -0.42019  -0.41734  -0.41361  -0.41127  -0.40961
 Alpha  occ. eigenvalues --   -0.40850  -0.40683  -0.40584  -0.40439  -0.40283
 Alpha  occ. eigenvalues --   -0.40232  -0.40082  -0.39539  -0.39493  -0.39483
 Alpha  occ. eigenvalues --   -0.39407  -0.39228  -0.39051  -0.39027  -0.38940
 Alpha  occ. eigenvalues --   -0.38774  -0.38648  -0.38401  -0.38150  -0.38066
 Alpha  occ. eigenvalues --   -0.37971  -0.37936  -0.37763  -0.37620  -0.37483
 Alpha  occ. eigenvalues --   -0.37306  -0.37101  -0.37024  -0.36998  -0.36919
 Alpha  occ. eigenvalues --   -0.36734  -0.36608  -0.36400  -0.36345  -0.36077
 Alpha  occ. eigenvalues --   -0.35960  -0.35819  -0.35606  -0.35453  -0.35379
 Alpha  occ. eigenvalues --   -0.35117  -0.35080  -0.34979  -0.34868  -0.34775
 Alpha  occ. eigenvalues --   -0.34715  -0.34601  -0.34385  -0.34071  -0.33951
 Alpha  occ. eigenvalues --   -0.33866  -0.33712  -0.33479  -0.33312  -0.33092
 Alpha  occ. eigenvalues --   -0.32889  -0.32841  -0.32607  -0.32555  -0.32433
 Alpha  occ. eigenvalues --   -0.32299  -0.32084  -0.31592  -0.31539  -0.31418
 Alpha  occ. eigenvalues --   -0.31357  -0.31025  -0.30811  -0.30073  -0.29990
 Alpha  occ. eigenvalues --   -0.29111  -0.28857  -0.27964  -0.27093  -0.26461
 Alpha  occ. eigenvalues --   -0.25879  -0.25764  -0.25728  -0.25629  -0.25195
 Alpha  occ. eigenvalues --   -0.25026  -0.24683  -0.24339  -0.24134  -0.24110
 Alpha  occ. eigenvalues --   -0.23830  -0.23538  -0.23499  -0.23329  -0.22904
 Alpha  occ. eigenvalues --   -0.22882  -0.22662  -0.22545  -0.22453  -0.22193
 Alpha  occ. eigenvalues --   -0.21950  -0.21746  -0.21554  -0.21378  -0.21190
 Alpha  occ. eigenvalues --   -0.21183  -0.21078  -0.21050  -0.20909  -0.20609
 Alpha  occ. eigenvalues --   -0.20391  -0.20149  -0.19573  -0.19339  -0.17185
 Alpha  occ. eigenvalues --   -0.15228  -0.15090  -0.12674
 Alpha virt. eigenvalues --   -0.11807  -0.11727  -0.05622  -0.05195  -0.01376
 Alpha virt. eigenvalues --   -0.01050  -0.00130   0.00984   0.01003   0.01730
 Alpha virt. eigenvalues --    0.01756   0.02630   0.02654   0.02835   0.02989

 Mulliken charges:
               1
     1  C    0.058043
     2  C    0.022306
     3  O   -0.339535
     4  H    0.003301
     5  H    0.029043
     6  H    0.034002
     7  N   -0.081241
     8  C    0.103403
     9  C    0.063328
    10  O   -0.306946
    11  C    0.135444
    12  C    0.060988
    13  O   -0.383312
    14  O   -0.361936
    15  H    0.119866
    16  H   -0.041061
    17  H   -0.035539
    18  H   -0.008306
    19  N   -0.089859
    20  C    0.128684
    21  C    0.063953
    22  O   -0.288684
    23  C   -0.009954
    24  C    0.017131
    25  C    0.017687
    26  C   -0.009496
    27  N    0.117930
    28  H    0.119294
    29  H   -0.030679
    30  H    0.030480
    31  H    0.015105
    32  H    0.000766
    33  H    0.042884
    34  H    0.028872
    35  H    0.030175
    36  H    0.070722
    37  H    0.046247
    38  H    0.186107
    39  H    0.168983
    40  H    0.167463
    41  N   -0.142966
    42  C    0.116300
    43  C    0.094120
    44  O   -0.268368
    45  C    0.096091
    46  C    0.081737
    47  O   -0.363308
    48  O   -0.432323
    49  H    0.147022
    50  H   -0.011101
    51  H    0.011552
    52  H   -0.061300
    53  N   -0.113390
    54  C    0.222607
    55  C    0.051177
    56  O   -0.255633
    57  H    0.118242
    58  H    0.008895
    59  H    0.034740
    60  N   -0.145421
    61  C    0.151863
    62  C    0.093520
    63  O   -0.313753
    64  C    0.019112
    65  C    0.040889
    66  N   -0.051412
    67  O   -0.217307
    68  H    0.117377
    69  H    0.050400
    70  H    0.016222
    71  H   -0.016154
    72  H    0.118951
    73  H    0.133452
    74  N   -0.110420
    75  C    0.263401
    76  C    0.011416
    77  O   -0.294539
    78  H    0.113551
    79  H   -0.007677
    80  H    0.026875
    81  N   -0.127319
    82  C    0.095964
    83  C    0.095229
    84  O   -0.295995
    85  C    0.183379
    86  C   -0.048955
    87  C   -0.000928
    88  C   -0.027235
    89  C   -0.025259
    90  C   -0.037346
    91  C    0.158535
    92  O   -0.187620
    93  H    0.126400
    94  H   -0.005388
    95  H   -0.000989
    96  H    0.014613
    97  H   -0.015385
    98  H   -0.034545
    99  H   -0.025397
   100  H   -0.041255
   101  H    0.166994
   102  N   -0.115159
   103  C    0.186806
   104  C    0.025921
   105  O   -0.277155
   106  C   -0.155834
   107  C    0.000401
   108  C    0.104534
   109  C    0.029044
   110  H    0.163873
   111  H    0.025309
   112  H   -0.015821
   113  H    0.003038
   114  H    0.021342
   115  H   -0.004633
   116  H   -0.044516
   117  H    0.046288
   118  H    0.016746
   119  H   -0.002349
   120  H   -0.000244
   121  N   -0.142295
   122  C    0.072203
   123  C    0.034181
   124  O   -0.282879
   125  C    0.281149
   126  O   -0.314218
   127  H    0.128668
   128  H    0.015740
   129  H   -0.004631
   130  H    0.013224
   131  H    0.159804
   132  N   -0.143111
   133  C    0.078187
   134  C    0.029400
   135  O   -0.288152
   136  C    0.107184
   137  H    0.131334
   138  H    0.017668
   139  H    0.036663
   140  H    0.005388
   141  H   -0.008167
   142  N   -0.120917
   143  C    0.084139
   144  C    0.056121
   145  O   -0.265068
   146  C    0.083761
   147  H    0.146401
   148  H   -0.005958
   149  H   -0.003909
   150  H    0.026881
   151  H    0.042183
   152  N   -0.136617
   153  C    0.096125
   154  C    0.068388
   155  O   -0.277304
   156  C    0.061793
   157  C    0.089411
   158  C    0.068026
   159  O   -0.423146
   160  O   -0.412580
   161  H    0.108007
   162  H    0.002683
   163  H    0.043958
   164  H    0.041110
   165  H   -0.033704
   166  H   -0.026175
   167  N   -0.140554
   168  C    0.140866
   169  H    0.009632
   170  H    0.045660
   171  H    0.011824
   172  H    0.107115
   173  Ca   1.310712
   174  O   -0.295013
   175  H    0.191143
   176  H    0.172484
 Sum of Mulliken charges =  -0.00000

 Dipole moment (field-independent basis, Debye):
    X=             32.6211    Y=            -27.8192    Z=            -17.8028  Tot=             46.4218
 Quadrupole moment (field-independent basis, Debye-Ang):
   XX=           -205.9073   YY=           -444.7422   ZZ=           -496.4782
   XY=           -343.2460   XZ=            -67.4014   YZ=             25.6569

 ESP charges:
               1
     1  C   -0.446789
     2  C    0.824739
     3  O   -0.664863
     4  H    0.103120
     5  H    0.113636
     6  H    0.121171
     7  N   -0.753075
     8  C    0.495764
     9  C    0.448916
    10  O   -0.528443
    11  C   -0.337295
    12  C    0.795619
    13  O   -0.701388
    14  O   -0.690616
    15  H    0.366610
    16  H   -0.048052
    17  H    0.041518
    18  H    0.054869
    19  N   -0.590537
    20  C    0.340918
    21  C    0.423831
    22  O   -0.573726
    23  C   -0.079345
    24  C   -0.153464
    25  C   -0.107725
    26  C    0.212825
    27  N   -0.396977
    28  H    0.302447
    29  H   -0.009126
    30  H    0.072031
    31  H    0.064557
    32  H    0.043693
    33  H    0.084815
    34  H    0.065254
    35  H    0.057757
    36  H    0.041918
    37  H    0.020915
    38  H    0.332321
    39  H    0.311219
    40  H    0.302444
    41  N   -0.452436
    42  C    0.495671
    43  C    0.329037
    44  O   -0.342942
    45  C   -0.487045
    46  C    0.792944
    47  O   -0.660608
    48  O   -0.696482
    49  H    0.256519
    50  H   -0.029584
    51  H    0.088106
    52  H    0.043485
    53  N   -0.281117
    54  C   -0.217053
    55  C    0.511986
    56  O   -0.456664
    57  H    0.252364
    58  H    0.127924
    59  H    0.126367
    60  N   -0.505016
    61  C    0.071599
    62  C    0.399800
    63  O   -0.465905
    64  C   -0.132444
    65  C    0.682429
    66  N   -0.840809
    67  O   -0.538310
    68  H    0.288319
    69  H    0.149143
    70  H   -0.002785
    71  H    0.022363
    72  H    0.369049
    73  H    0.399379
    74  N   -0.283873
    75  C   -0.119880
    76  C    0.666187
    77  O   -0.554879
    78  H    0.263791
    79  H    0.065738
    80  H    0.101151
    81  N   -0.712995
    82  C    0.419497
    83  C    0.413640
    84  O   -0.522670
    85  C   -0.392347
    86  C    0.117628
    87  C   -0.171359
    88  C   -0.075398
    89  C   -0.281509
    90  C   -0.411719
    91  C    0.426727
    92  O   -0.551522
    93  H    0.351727
    94  H    0.021340
    95  H    0.137590
    96  H    0.102270
    97  H    0.156607
    98  H    0.121146
    99  H    0.170742
   100  H    0.166232
   101  H    0.400067
   102  N   -0.554687
   103  C    0.078362
   104  C    0.615945
   105  O   -0.553796
   106  C    0.292411
   107  C    0.252015
   108  C   -0.437722
   109  C   -0.393616
   110  H    0.305037
   111  H    0.008511
   112  H   -0.047298
   113  H    0.007732
   114  H   -0.022671
   115  H    0.100724
   116  H    0.092461
   117  H    0.110514
   118  H    0.081828
   119  H    0.073625
   120  H    0.084262
   121  N   -0.515683
   122  C    0.142404
   123  C    0.334320
   124  O   -0.524851
   125  C    0.306484
   126  O   -0.639861
   127  H    0.307210
   128  H    0.058135
   129  H    0.036274
   130  H   -0.015463
   131  H    0.391875
   132  N   -0.423599
   133  C    0.523848
   134  C    0.250720
   135  O   -0.520965
   136  C   -0.376561
   137  H    0.223150
   138  H   -0.045422
   139  H    0.118345
   140  H    0.073017
   141  H    0.082192
   142  N   -0.154435
   143  C    0.395911
   144  C    0.375040
   145  O   -0.472170
   146  C   -0.357058
   147  H    0.091197
   148  H   -0.045080
   149  H    0.053831
   150  H    0.086903
   151  H    0.137027
   152  N   -0.363514
   153  C   -0.440214
   154  C    0.461260
   155  O   -0.510281
   156  C    0.551334
   157  C   -0.174992
   158  C    0.651067
   159  O   -0.732601
   160  O   -0.692777
   161  H    0.280440
   162  H    0.172574
   163  H   -0.033138
   164  H   -0.031621
   165  H   -0.008357
   166  H   -0.003899
   167  N   -0.154073
   168  C   -0.195679
   169  H    0.066766
   170  H    0.119424
   171  H    0.088669
   172  H    0.200615
   173  Ca   1.475491
   174  O   -0.858862
   175  H    0.411361
   176  H    0.447939
 Sum of ESP charges =  -0.00000

 Normal termination of Gaussian 16 at Tue Sep 17 12:57:19 2019.
