 Gaussian 16, Revision A.03,
 Gaussian 16:  ES64L-G16RevA.03 25-Dec-2016

 ----------------------------------------------------------------------
 #b3lyp/svp scf=(tight,noincore,xqc) Test #IOP(5/87=12) Density=Current
  Pop=(MK,readradii) iop(6/33=2) iop(6/42=6)
 ----------------------------------------------------------------------

 -----------------
 Ng-293_loop3_82.0
 -----------------
 Symbolic Z-matrix:
 Charge =  0 Multiplicity = 1

                         Standard orientation:
 ---------------------------------------------------------------------
 Center     Atomic      Atomic             Coordinates (Angstroms)
 Number     Number       Type             X           Y           Z
 ---------------------------------------------------------------------
      1          6           0        4.757719   -3.620305    6.139653
      2          6           0        4.903486   -2.927405    4.785237
      3          8           0        4.192686   -3.323688    3.869200
      4          1           0        4.567340   -4.681765    5.985161
      5          1           0        5.676612   -3.496387    6.712495
      6          1           0        3.925322   -3.178630    6.686804
      7          7           0        5.794204   -1.945913    4.654488
      8          6           0        6.130051   -1.244628    3.426561
      9          6           0        6.915846   -2.013180    2.373350
     10          8           0        8.025904   -1.639348    1.996758
     11          6           0        4.975844   -0.491959    2.766260
     12          6           0        3.983232    0.318372    3.591478
     13          8           0        2.785772    0.319575    3.211228
     14          8           0        4.335453    0.948809    4.609460
     15          1           0        6.270867   -1.731649    5.516221
     16          1           0        6.841393   -0.452700    3.691780
     17          1           0        4.373235   -1.238438    2.244504
     18          1           0        5.388071    0.038409    1.905284
     19          7           0        6.312807   -3.088051    1.867685
     20          6           0        6.857440   -3.852707    0.769470
     21          6           0        6.899678   -3.172661   -0.589005
     22          8           0        7.592955   -3.638339   -1.497966
     23          6           0        6.013549   -5.116641    0.624839
     24          6           0        4.650026   -5.240282   -0.051783
     25          6           0        3.558106   -4.327774    0.494512
     26          6           0        2.320876   -4.241106   -0.398489
     27          7           0        1.633526   -2.969671   -0.098151
     28          1           0        5.494778   -3.441276    2.343247
     29          1           0        7.897342   -4.177882    0.872739
     30          1           0        5.849423   -5.513176    1.632223
     31          1           0        6.585078   -5.818422    0.021218
     32          1           0        4.211716   -6.241339   -0.016138
     33          1           0        4.727378   -4.971239   -1.102941
     34          1           0        3.881569   -3.294870    0.552654
     35          1           0        3.347970   -4.680937    1.503332
     36          1           0        1.628598   -5.063744   -0.239688
     37          1           0        2.661695   -4.094555   -1.425555
     38          1           0        1.590261   -2.631863    0.847320
     39          1           0        2.019243   -2.214858   -0.648769
     40          1           0        0.722462   -3.022220   -0.542338
     41          7           0        6.207549   -2.058251   -0.852155
     42          6           0        6.347749   -1.296920   -2.084154
     43          6           0        6.406045    0.193826   -1.787543
     44          8           0        6.276394    0.692737   -0.676292
     45          6           0        5.168973   -1.730354   -2.944342
     46          6           0        3.808235   -1.521038   -2.307179
     47          8           0        2.784441   -2.172812   -2.610224
     48          8           0        3.694222   -0.652601   -1.409951
     49          1           0        5.748509   -1.682062   -0.041807
     50          1           0        7.321889   -1.592789   -2.465876
     51          1           0        5.254613   -2.767612   -3.273068
     52          1           0        5.220946   -1.096916   -3.836841
     53          7           0        6.338868    0.952391   -2.895093
     54          6           0        6.354266    2.397116   -2.861430
     55          6           0        5.003382    3.082450   -2.775819
     56          8           0        4.908231    4.298275   -2.991724
     57          1           0        6.108624    0.572131   -3.800681
     58          1           0        6.925737    2.863970   -3.665773
     59          1           0        6.880401    2.610804   -1.929325
     60          7           0        3.884700    2.387669   -2.591887
     61          6           0        2.561383    2.961050   -2.559254
     62          6           0        2.355810    3.945656   -1.419082
     63          8           0        2.002218    5.106524   -1.570275
     64          6           0        1.512926    1.848776   -2.696674
     65          6           0        0.059070    2.279175   -2.527967
     66          7           0       -0.570417    3.118736   -3.346126
     67          8           0       -0.531766    1.800221   -1.560902
     68          1           0        4.004636    1.463831   -2.183552
     69          1           0        2.540767    3.550770   -3.482079
     70          1           0        1.697072    1.168014   -1.862556
     71          1           0        1.733584    1.357895   -3.641632
     72          1           0       -0.151765    3.380122   -4.233712
     73          1           0       -1.372461    3.670463   -3.088982
     74          7           0        2.461165    3.335487   -0.227740
     75          6           0        2.026657    3.884043    1.037127
     76          6           0        0.520902    3.995089    1.249657
     77          8           0        0.145449    3.821257    2.408846
     78          1           0        2.884906    2.418256   -0.173608
     79          1           0        2.465643    4.877740    1.106103
     80          1           0        2.446035    3.368844    1.900489
     81          7           0       -0.263691    4.362896    0.239691
     82          6           0       -1.638803    4.799513    0.375827
     83          6           0       -2.743552    3.783533    0.679495
     84          8           0       -3.834009    4.176598    1.084099
     85          6           0       -1.708640    6.076305    1.218337
     86          6           0       -0.513296    6.992803    1.111636
     87          6           0       -0.161000    7.654524   -0.065654
     88          6           0        0.224224    7.243189    2.276269
     89          6           0        0.866058    8.608034   -0.136166
     90          6           0        1.270606    8.169001    2.268681
     91          6           0        1.577686    8.816106    1.059112
     92          8           0        2.665639    9.621575    0.865004
     93          1           0        0.254610    4.603435   -0.585963
     94          1           0       -1.951176    5.137144   -0.609681
     95          1           0       -1.819115    5.754430    2.246876
     96          1           0       -2.573353    6.632419    0.867325
     97          1           0       -0.586979    7.372601   -1.020411
     98          1           0       -0.040451    6.742902    3.195758
     99          1           0        1.184379    9.014236   -1.091295
    100          1           0        1.937166    8.299488    3.109912
    101          1           0        3.294033    9.655802    1.580231
    102          7           0       -2.412123    2.509551    0.473037
    103          6           0       -3.295198    1.360737    0.470575
    104          6           0       -4.508630    1.367731   -0.456860
    105          8           0       -4.646056    0.726131   -1.498044
    106          6           0       -3.584048    0.987741    1.923930
    107          6           0       -2.452841    0.996206    2.953346
    108          6           0       -4.327138   -0.339448    2.044700
    109          6           0       -1.337340    0.040808    2.508068
    110          1           0       -1.467925    2.382991    0.146431
    111          1           0       -2.693158    0.585051    0.012581
    112          1           0       -4.319536    1.738802    2.192754
    113          1           0       -2.894903    0.817736    3.929117
    114          1           0       -2.030892    1.998535    2.912161
    115          1           0       -3.722477   -1.222889    1.861081
    116          1           0       -4.797055   -0.395363    3.022581
    117          1           0       -5.116071   -0.321395    1.292131
    118          1           0       -1.214778    0.155724    1.432395
    119          1           0       -0.492145    0.224151    3.158784
    120          1           0       -1.609462   -1.002641    2.602742
    121          7           0       -5.494628    2.171262   -0.049865
    122          6           0       -6.724633    2.385057   -0.790594
    123          6           0       -7.681419    1.221318   -0.614889
    124          8           0       -8.288196    0.738368   -1.569237
    125          6           0       -7.399243    3.623255   -0.192543
    126          8           0       -6.576840    4.766716   -0.300942
    127          1           0       -5.299358    2.729538    0.765241
    128          1           0       -6.555662    2.511980   -1.856164
    129          1           0       -7.607380    3.546980    0.873976
    130          1           0       -8.342106    3.802121   -0.706271
    131          1           0       -7.075133    5.518470    0.025660
    132          7           0       -7.749900    0.652120    0.593840
    133          6           0       -8.534479   -0.476409    1.045235
    134          6           0       -7.973457   -1.827931    0.648319
    135          8           0       -8.009873   -2.742140    1.466484
    136          6           0      -10.038570   -0.285138    0.838050
    137          1           0       -7.211513    1.102113    1.327424
    138          1           0       -8.441045   -0.436355    2.132326
    139          1           0      -10.561045   -1.002871    1.458113
    140          1           0      -10.380551    0.702543    1.136270
    141          1           0      -10.351378   -0.444641   -0.188161
    142          7           0       -7.601202   -2.097119   -0.603186
    143          6           0       -7.003265   -3.323817   -1.080453
    144          6           0       -5.710003   -3.795144   -0.423245
    145          8           0       -5.113802   -3.130784    0.423496
    146          6           0       -6.873095   -3.246000   -2.602294
    147          1           0       -7.644458   -1.301390   -1.231313
    148          1           0       -7.835540   -4.020215   -1.002672
    149          1           0       -6.292948   -2.367540   -2.886439
    150          1           0       -6.323655   -4.152597   -2.880857
    151          1           0       -7.877370   -3.209195   -3.021433
    152          7           0       -5.414747   -5.057242   -0.754804
    153          6           0       -4.263086   -5.792582   -0.281569
    154          6           0       -4.177579   -5.977841    1.228454
    155          8           0       -3.234751   -6.598464    1.713020
    156          6           0       -2.995488   -5.314381   -0.991159
    157          6           0       -2.594927   -3.847978   -0.970886
    158          6           0       -1.484668   -3.445181   -1.937106
    159          8           0       -0.362513   -3.799429   -1.523854
    160          8           0       -1.645580   -3.056107   -3.105407
    161          1           0       -6.018039   -5.679754   -1.282174
    162          1           0       -4.327849   -6.767516   -0.765520
    163          1           0       -3.185449   -5.657473   -2.007183
    164          1           0       -2.173533   -5.864150   -0.530459
    165          1           0       -2.234416   -3.665235    0.046137
    166          1           0       -3.460733   -3.275409   -1.296837
    167          7           0       -5.149397   -5.545907    2.031698
    168          6           0       -5.198537   -5.636572    3.473733
    169          1           0       -5.059841   -6.674448    3.777004
    170          1           0       -4.405992   -5.024041    3.903786
    171          1           0       -6.165993   -5.281506    3.827651
    172          1           0       -5.854237   -4.982579    1.571196
    173         20           0        0.860666   -3.104655   -3.929830
    174          8           0        2.429760   -2.702501   -6.052756
    175          1           0        2.233584   -3.268767   -6.794819
    176          1           0        3.283845   -2.310530   -6.264882
 ---------------------------------------------------------------------

 SCF Done:  E(RB3LYP) =  -5333.41668128     A.U. after   33 cycles
 SCF Done:  E(RB3LYP) =  -5333.41692374     a.u. after   14 cycles

 The electronic state is 1-A.
 Alpha  occ. eigenvalues -- -145.51042 -19.26299 -19.14739 -19.13658 -19.13633
 Alpha  occ. eigenvalues --  -19.13497 -19.12485 -19.11600 -19.11476 -19.11304
 Alpha  occ. eigenvalues --  -19.11117 -19.10076 -19.09967 -19.09069 -19.08995
 Alpha  occ. eigenvalues --  -19.08648 -19.08555 -19.08506 -19.08310 -19.08198
 Alpha  occ. eigenvalues --  -19.08190 -19.07081 -19.00957 -19.00814 -15.57016
 Alpha  occ. eigenvalues --  -14.45050 -14.37899 -14.37835 -14.37430 -14.36009
 Alpha  occ. eigenvalues --  -14.35884 -14.35013 -14.34951 -14.34536 -14.34525
 Alpha  occ. eigenvalues --  -14.34308 -14.34245 -14.33674 -14.33523 -14.33044
 Alpha  occ. eigenvalues --  -12.70639 -12.70578 -12.70508 -10.32109 -10.31581
 Alpha  occ. eigenvalues --  -10.31294 -10.30166 -10.30141 -10.28560 -10.28390
 Alpha  occ. eigenvalues --  -10.28353 -10.27856 -10.27544 -10.27536 -10.27362
 Alpha  occ. eigenvalues --  -10.27347 -10.27040 -10.26684 -10.26545 -10.25886
 Alpha  occ. eigenvalues --  -10.25222 -10.25038 -10.24502 -10.24209 -10.24122
 Alpha  occ. eigenvalues --  -10.23920 -10.23885 -10.23723 -10.23232 -10.23182
 Alpha  occ. eigenvalues --  -10.22708 -10.22409 -10.21918 -10.21357 -10.21210
 Alpha  occ. eigenvalues --  -10.21098 -10.21027 -10.20816 -10.20528 -10.20310
 Alpha  occ. eigenvalues --  -10.20296 -10.20244 -10.20057 -10.19349 -10.18498
 Alpha  occ. eigenvalues --  -10.18178 -10.16745 -10.16678 -10.16620 -10.16460
 Alpha  occ. eigenvalues --  -10.16366 -10.16309 -10.16174 -10.14816 -10.14778
 Alpha  occ. eigenvalues --  -10.14248 -10.14054  -1.93728  -1.21451  -1.21068
 Alpha  occ. eigenvalues --   -1.20565  -1.12061  -1.08792  -1.07957  -1.04656
 Alpha  occ. eigenvalues --   -1.04555  -1.04499  -1.03362  -1.03259  -1.02588
 Alpha  occ. eigenvalues --   -1.02234  -1.02180  -1.02103  -1.01947  -1.01902
 Alpha  occ. eigenvalues --   -1.01675  -1.01519  -1.01023  -1.00804  -1.00747
 Alpha  occ. eigenvalues --   -0.99876  -0.98232  -0.96748  -0.94841  -0.94809
 Alpha  occ. eigenvalues --   -0.93975  -0.93020  -0.92859  -0.92391  -0.92118
 Alpha  occ. eigenvalues --   -0.91501  -0.91420  -0.91355  -0.91032  -0.90846
 Alpha  occ. eigenvalues --   -0.90625  -0.90286  -0.89895  -0.84680  -0.83167
 Alpha  occ. eigenvalues --   -0.82473  -0.81496  -0.81054  -0.80028  -0.79795
 Alpha  occ. eigenvalues --   -0.78778  -0.78548  -0.77484  -0.76570  -0.75757
 Alpha  occ. eigenvalues --   -0.75351  -0.74681  -0.74041  -0.72719  -0.72605
 Alpha  occ. eigenvalues --   -0.72063  -0.71664  -0.70818  -0.70420  -0.70274
 Alpha  occ. eigenvalues --   -0.69649  -0.68081  -0.67655  -0.67217  -0.66569
 Alpha  occ. eigenvalues --   -0.66215  -0.65322  -0.64589  -0.63805  -0.63486
 Alpha  occ. eigenvalues --   -0.63178  -0.62889  -0.62689  -0.61819  -0.61247
 Alpha  occ. eigenvalues --   -0.61190  -0.60588  -0.60467  -0.60301  -0.60133
 Alpha  occ. eigenvalues --   -0.59588  -0.59277  -0.58720  -0.58416  -0.58391
 Alpha  occ. eigenvalues --   -0.57647  -0.57210  -0.57149  -0.56618  -0.56581
 Alpha  occ. eigenvalues --   -0.55944  -0.55850  -0.55512  -0.55377  -0.55150
 Alpha  occ. eigenvalues --   -0.55043  -0.54997  -0.53824  -0.53505  -0.53251
 Alpha  occ. eigenvalues --   -0.53202  -0.53177  -0.53102  -0.52679  -0.52573
 Alpha  occ. eigenvalues --   -0.52318  -0.52043  -0.51989  -0.51304  -0.50936
 Alpha  occ. eigenvalues --   -0.50523  -0.50383  -0.49968  -0.49838  -0.49503
 Alpha  occ. eigenvalues --   -0.49087  -0.48980  -0.48792  -0.48542  -0.48309
 Alpha  occ. eigenvalues --   -0.46946  -0.46884  -0.46859  -0.46716  -0.46508
 Alpha  occ. eigenvalues --   -0.46452  -0.46325  -0.46264  -0.46153  -0.45862
 Alpha  occ. eigenvalues --   -0.45783  -0.45719  -0.45644  -0.45468  -0.45310
 Alpha  occ. eigenvalues --   -0.44995  -0.44929  -0.44676  -0.44533  -0.44238
 Alpha  occ. eigenvalues --   -0.44225  -0.44095  -0.43884  -0.43708  -0.43610
 Alpha  occ. eigenvalues --   -0.43505  -0.43435  -0.43324  -0.43255  -0.42790
 Alpha  occ. eigenvalues --   -0.42727  -0.42587  -0.42482  -0.41952  -0.41641
 Alpha  occ. eigenvalues --   -0.41595  -0.41494  -0.41443  -0.41209  -0.41130
 Alpha  occ. eigenvalues --   -0.40972  -0.40883  -0.40825  -0.40648  -0.40589
 Alpha  occ. eigenvalues --   -0.40452  -0.40367  -0.40209  -0.39964  -0.39821
 Alpha  occ. eigenvalues --   -0.39723  -0.39631  -0.39304  -0.39204  -0.39032
 Alpha  occ. eigenvalues --   -0.38938  -0.38706  -0.38695  -0.38599  -0.38437
 Alpha  occ. eigenvalues --   -0.38299  -0.38262  -0.37995  -0.37829  -0.37769
 Alpha  occ. eigenvalues --   -0.37592  -0.37468  -0.37353  -0.37315  -0.37240
 Alpha  occ. eigenvalues --   -0.36966  -0.36549  -0.36319  -0.36266  -0.36053
 Alpha  occ. eigenvalues --   -0.35915  -0.35747  -0.35433  -0.35393  -0.35337
 Alpha  occ. eigenvalues --   -0.35207  -0.34919  -0.34727  -0.34387  -0.34313
 Alpha  occ. eigenvalues --   -0.34118  -0.33629  -0.33473  -0.33308  -0.32971
 Alpha  occ. eigenvalues --   -0.32319  -0.31694  -0.31660  -0.31626  -0.31517
 Alpha  occ. eigenvalues --   -0.31237  -0.31062  -0.30590  -0.30519  -0.29888
 Alpha  occ. eigenvalues --   -0.29771  -0.29426  -0.29284  -0.29213  -0.28789
 Alpha  occ. eigenvalues --   -0.28739  -0.28362  -0.27824  -0.27567  -0.27413
 Alpha  occ. eigenvalues --   -0.27360  -0.27297  -0.26846  -0.26780  -0.26660
 Alpha  occ. eigenvalues --   -0.26637  -0.26348  -0.26025  -0.25818  -0.25458
 Alpha  occ. eigenvalues --   -0.25274  -0.25006  -0.24527  -0.24415  -0.24333
 Alpha  occ. eigenvalues --   -0.24153  -0.23966  -0.23955  -0.23696  -0.23347
 Alpha  occ. eigenvalues --   -0.22986  -0.22916  -0.22733  -0.21838  -0.19716
 Alpha  occ. eigenvalues --   -0.17802  -0.17576  -0.14679
 Alpha virt. eigenvalues --   -0.13599  -0.05781  -0.04359  -0.01883  -0.01514
 Alpha virt. eigenvalues --   -0.00955  -0.00832  -0.00350  -0.00044   0.00415
 Alpha virt. eigenvalues --    0.00535   0.00543   0.00970   0.01075   0.01627

 Mulliken charges:
               1
     1  C    0.064794
     2  C    0.032285
     3  O   -0.329024
     4  H    0.026682
     5  H   -0.002148
     6  H    0.059051
     7  N   -0.085708
     8  C    0.143144
     9  C    0.019325
    10  O   -0.256392
    11  C    0.006557
    12  C    0.092659
    13  O   -0.339512
    14  O   -0.319093
    15  H    0.125118
    16  H    0.003694
    17  H   -0.040717
    18  H    0.027578
    19  N   -0.163211
    20  C    0.197806
    21  C    0.021375
    22  O   -0.305217
    23  C    0.020203
    24  C    0.014014
    25  C   -0.080023
    26  C    0.111753
    27  N    0.069481
    28  H    0.148179
    29  H    0.024297
    30  H    0.013562
    31  H    0.017391
    32  H    0.005581
    33  H   -0.012641
    34  H    0.009782
    35  H    0.045437
    36  H    0.057358
    37  H   -0.005750
    38  H    0.190794
    39  H    0.141273
    40  H    0.136138
    41  N   -0.148125
    42  C    0.137808
    43  C    0.113528
    44  O   -0.231775
    45  C    0.091542
    46  C    0.147280
    47  O   -0.519969
    48  O   -0.349691
    49  H    0.151145
    50  H    0.035181
    51  H    0.012843
    52  H   -0.031408
    53  N   -0.199958
    54  C    0.223521
    55  C    0.003180
    56  O   -0.281957
    57  H    0.109126
    58  H    0.036183
    59  H    0.054360
    60  N   -0.164003
    61  C    0.105421
    62  C    0.088642
    63  O   -0.258079
    64  C    0.098945
    65  C   -0.002242
    66  N   -0.030727
    67  O   -0.260506
    68  H    0.144328
    69  H   -0.012441
    70  H    0.021373
    71  H   -0.008407
    72  H    0.120545
    73  H    0.141372
    74  N   -0.167673
    75  C    0.197672
    76  C    0.040929
    77  O   -0.267021
    78  H    0.139836
    79  H    0.037551
    80  H    0.060934
    81  N   -0.135415
    82  C    0.072074
    83  C    0.075815
    84  O   -0.287915
    85  C    0.189309
    86  C   -0.032125
    87  C   -0.014992
    88  C   -0.012854
    89  C   -0.000094
    90  C   -0.022395
    91  C    0.147380
    92  O   -0.215970
    93  H    0.131458
    94  H   -0.000945
    95  H    0.003134
    96  H    0.003696
    97  H   -0.047601
    98  H   -0.015131
    99  H   -0.021073
   100  H   -0.041588
   101  H    0.164660
   102  N   -0.112887
   103  C    0.168498
   104  C    0.053817
   105  O   -0.269241
   106  C   -0.145305
   107  C    0.075367
   108  C    0.072647
   109  C    0.015066
   110  H    0.156743
   111  H   -0.014070
   112  H   -0.037204
   113  H   -0.008721
   114  H    0.016078
   115  H    0.014420
   116  H   -0.009214
   117  H   -0.009616
   118  H   -0.023039
   119  H    0.057866
   120  H   -0.023066
   121  N   -0.143900
   122  C    0.150820
   123  C    0.052375
   124  O   -0.288802
   125  C    0.208010
   126  O   -0.293274
   127  H    0.147255
   128  H    0.011022
   129  H   -0.021160
   130  H   -0.000177
   131  H    0.162990
   132  N   -0.125281
   133  C    0.078978
   134  C    0.081516
   135  O   -0.295390
   136  C    0.074732
   137  H    0.119528
   138  H    0.005579
   139  H    0.016607
   140  H    0.007722
   141  H    0.023130
   142  N   -0.124288
   143  C    0.059187
   144  C    0.139127
   145  O   -0.247860
   146  C    0.030542
   147  H    0.132277
   148  H    0.006059
   149  H    0.045703
   150  H   -0.008717
   151  H    0.032779
   152  N   -0.169463
   153  C    0.099388
   154  C    0.049666
   155  O   -0.291794
   156  C    0.011863
   157  C    0.134555
   158  C    0.128085
   159  O   -0.466492
   160  O   -0.399835
   161  H    0.131372
   162  H    0.013858
   163  H   -0.026320
   164  H    0.017245
   165  H    0.017348
   166  H    0.029450
   167  N   -0.122610
   168  C    0.141189
   169  H    0.025232
   170  H    0.031484
   171  H    0.028567
   172  H    0.121633
   173  Ca   1.200324
   174  O   -0.305431
   175  H    0.177403
   176  H    0.203489
 Sum of Mulliken charges =   0.00000

 Dipole moment (field-independent basis, Debye):
    X=             -5.6295    Y=            -15.3226    Z=            -23.6948  Tot=             28.7736
 Quadrupole moment (field-independent basis, Debye-Ang):
   XX=           -597.1254   YY=           -551.0897   ZZ=           -468.7041
   XY=            -30.4097   XZ=            -47.4413   YZ=             48.5784

 ESP charges:
               1
     1  C   -0.448053
     2  C    0.799545
     3  O   -0.603193
     4  H    0.120719
     5  H    0.081854
     6  H    0.149645
     7  N   -0.753195
     8  C    0.412239
     9  C    0.333878
    10  O   -0.517343
    11  C   -0.388081
    12  C    0.841884
    13  O   -0.676913
    14  O   -0.632282
    15  H    0.373495
    16  H    0.023060
    17  H    0.067253
    18  H    0.078310
    19  N   -0.187653
    20  C   -0.011431
    21  C    0.467662
    22  O   -0.556378
    23  C   -0.231290
    24  C    0.065621
    25  C    0.192066
    26  C   -0.247813
    27  N   -0.116199
    28  H    0.149029
    29  H    0.110392
    30  H    0.077919
    31  H    0.069053
    32  H   -0.006833
    33  H    0.005238
    34  H    0.000879
    35  H    0.012234
    36  H    0.156406
    37  H    0.013217
    38  H    0.259021
    39  H    0.167305
    40  H    0.301389
    41  N   -0.082698
    42  C   -0.031618
    43  C    0.549515
    44  O   -0.457229
    45  C   -0.226198
    46  C    0.627721
    47  O   -0.672676
    48  O   -0.460076
    49  H    0.087713
    50  H    0.097676
    51  H    0.058512
    52  H    0.036291
    53  N   -0.510514
    54  C   -0.071035
    55  C    0.459058
    56  O   -0.519062
    57  H    0.312541
    58  H    0.099038
    59  H    0.124614
    60  N   -0.070367
    61  C   -0.611193
    62  C    0.743032
    63  O   -0.526163
    64  C    0.026118
    65  C    0.515274
    66  N   -0.749752
    67  O   -0.454400
    68  H    0.085010
    69  H    0.201956
    70  H   -0.011218
    71  H    0.091714
    72  H    0.345716
    73  H    0.386715
    74  N   -0.406921
    75  C   -0.195193
    76  C    0.699763
    77  O   -0.557289
    78  H    0.362359
    79  H    0.124292
    80  H    0.122356
    81  N   -0.595743
    82  C    0.478804
    83  C    0.289832
    84  O   -0.518494
    85  C   -0.404660
    86  C    0.155839
    87  C   -0.195860
    88  C   -0.125688
    89  C   -0.257369
    90  C   -0.369178
    91  C    0.418932
    92  O   -0.581202
    93  H    0.253116
    94  H   -0.005386
    95  H    0.120636
    96  H    0.106764
    97  H    0.130841
    98  H    0.152517
    99  H    0.173630
   100  H    0.158714
   101  H    0.413875
   102  N   -0.217873
   103  C   -0.225245
   104  C    0.498701
   105  O   -0.545958
   106  C    0.334852
   107  C    0.053753
   108  C   -0.119403
   109  C   -0.283837
   110  H    0.198516
   111  H    0.103445
   112  H   -0.119845
   113  H   -0.009601
   114  H    0.008202
   115  H    0.009357
   116  H    0.032896
   117  H   -0.057161
   118  H    0.033339
   119  H    0.130048
   120  H    0.047243
   121  N   -0.180423
   122  C   -0.025158
   123  C    0.444772
   124  O   -0.533410
   125  C    0.211942
   126  O   -0.623237
   127  H    0.301332
   128  H    0.111269
   129  H   -0.017312
   130  H    0.019255
   131  H    0.408037
   132  N   -0.439190
   133  C    0.193213
   134  C    0.436296
   135  O   -0.532677
   136  C   -0.185398
   137  H    0.252037
   138  H    0.052346
   139  H    0.050578
   140  H    0.060075
   141  H    0.069861
   142  N   -0.450780
   143  C    0.593729
   144  C    0.106085
   145  O   -0.323670
   146  C   -0.486545
   147  H    0.277712
   148  H   -0.051684
   149  H    0.149380
   150  H    0.102787
   151  H    0.117241
   152  N   -0.329023
   153  C   -0.242485
   154  C    0.447855
   155  O   -0.505958
   156  C    0.320765
   157  C   -0.267279
   158  C    0.668136
   159  O   -0.737578
   160  O   -0.671228
   161  H    0.285089
   162  H    0.134452
   163  H   -0.052235
   164  H   -0.050085
   165  H    0.129859
   166  H    0.110771
   167  N   -0.179139
   168  C   -0.191671
   169  H    0.081226
   170  H    0.107912
   171  H    0.110753
   172  H    0.197674
   173  Ca   1.354018
   174  O   -0.831722
   175  H    0.383675
   176  H    0.450362
 Sum of ESP charges =   0.00000

 Normal termination of Gaussian 16 at Thu Sep 19 16:47:12 2019.
