 Gaussian 16, Revision A.03,
 Gaussian 16:  ES64L-G16RevA.03 25-Dec-2016

 ----------------------------------------------------------------------
 #b3lyp/svp scf=(tight,noincore) Test #IOP(5/87=12) Density=Current Pop
 =(MK,readradii) iop(6/33=2) iop(6/42=6)
 ----------------------------------------------------------------------

 -----------------
 Ng-293_loop3_17.0
 -----------------
 Symbolic Z-matrix:
 Charge =  0 Multiplicity = 1

                         Standard orientation:
 ---------------------------------------------------------------------
 Center     Atomic      Atomic             Coordinates (Angstroms)
 Number     Number       Type             X           Y           Z
 ---------------------------------------------------------------------
      1          6           0        9.889551    0.387432    5.692713
      2          6           0       10.146593    0.991594    4.326727
      3          8           0       11.289268    1.019947    3.864676
      4          1           0        9.098688    0.946146    6.193918
      5          1           0        9.583238   -0.652668    5.578902
      6          1           0       10.801197    0.434638    6.288262
      7          7           0        9.076256    1.372516    3.619778
      8          6           0        9.250221    2.029558    2.333803
      9          6           0        9.112007    0.985247    1.234480
     10          8           0        8.494750   -0.066899    1.351444
     11          6           0        8.166119    3.099200    2.238470
     12          6           0        8.594996    3.993517    1.084104
     13          8           0        8.132355    3.783620   -0.059927
     14          8           0        9.319650    4.967739    1.363868
     15          1           0        8.176256    1.438358    4.087822
     16          1           0       10.174416    2.588819    2.273876
     17          1           0        8.240558    3.613146    3.193415
     18          1           0        7.190615    2.611370    2.185414
     19          7           0        9.765265    1.288054    0.107865
     20          6           0        9.746856    0.636254   -1.182723
     21          6           0        8.419942    0.417581   -1.882281
     22          8           0        8.405814    0.324959   -3.108055
     23          6           0       10.744104   -0.518690   -1.118695
     24          6           0       12.174964   -0.169600   -0.721108
     25          6           0       12.519588   -0.338815    0.748416
     26          6           0       13.440603    0.710679    1.354794
     27          7           0       13.893759    0.349562    2.713891
     28          1           0        9.958523    2.279318    0.045828
     29          1           0       10.191025    1.254098   -1.964761
     30          1           0       10.725342   -0.974465   -2.105517
     31          1           0       10.285355   -1.212968   -0.413764
     32          1           0       12.341693    0.886410   -0.943470
     33          1           0       12.911638   -0.720516   -1.318103
     34          1           0       13.006886   -1.313562    0.758776
     35          1           0       11.629787   -0.351493    1.370182
     36          1           0       12.881609    1.647220    1.343987
     37          1           0       14.313264    0.873457    0.719762
     38          1           0       14.370644    1.135510    3.120790
     39          1           0       13.121422    0.202783    3.340031
     40          1           0       14.445679   -0.488459    2.597247
     41          7           0        7.283265    0.221030   -1.205351
     42          6           0        5.929700    0.128592   -1.708556
     43          6           0        5.096139    1.310503   -1.249250
     44          8           0        5.490151    1.973283   -0.289574
     45          6           0        5.333974   -1.185380   -1.234962
     46          6           0        3.995437   -1.500409   -1.901652
     47          8           0        3.765739   -0.886830   -2.961869
     48          8           0        3.201355   -2.416582   -1.600719
     49          1           0        7.358057    0.246919   -0.202437
     50          1           0        5.920797    0.103108   -2.799551
     51          1           0        5.197001   -1.163479   -0.154333
     52          1           0        5.975381   -2.021709   -1.531020
     53          7           0        3.933264    1.516029   -1.876370
     54          6           0        2.967577    2.582735   -1.698080
     55          6           0        1.671188    2.273011   -2.419500
     56          8           0        1.678497    2.016967   -3.629991
     57          1           0        3.581821    0.819243   -2.506908
     58          1           0        3.334859    3.472518   -2.206006
     59          1           0        2.760043    2.758274   -0.642279
     60          7           0        0.588584    2.191105   -1.645963
     61          6           0       -0.703497    1.601381   -1.945386
     62          6           0       -1.850002    2.529140   -1.605546
     63          8           0       -2.948546    2.007670   -1.420423
     64          6           0       -0.841440    0.250302   -1.254404
     65          6           0        0.350181   -0.666721   -1.470756
     66          7           0        1.283474   -0.589200   -0.517942
     67          8           0        0.518128   -1.370728   -2.462102
     68          1           0        0.757640    2.283622   -0.651700
     69          1           0       -0.787715    1.418676   -3.021921
     70          1           0       -1.620625   -0.272863   -1.810163
     71          1           0       -1.117096    0.409836   -0.208764
     72          1           0        0.913807   -0.288095    0.374012
     73          1           0        2.078129   -1.210857   -0.565542
     74          7           0       -1.660886    3.849521   -1.616941
     75          6           0       -2.759749    4.777453   -1.773922
     76          6           0       -3.743637    4.772617   -0.602622
     77          8           0       -3.335502    4.891022    0.549031
     78          1           0       -0.734154    4.131542   -1.877196
     79          1           0       -3.313542    4.500173   -2.673104
     80          1           0       -2.327570    5.775435   -1.804792
     81          7           0       -5.018387    4.716679   -0.983125
     82          6           0       -6.088945    4.390593   -0.063194
     83          6           0       -6.126431    3.023975    0.608633
     84          8           0       -7.055844    2.733349    1.362972
     85          6           0       -6.361141    5.544456    0.898789
     86          6           0       -7.032612    6.782226    0.340889
     87          6           0       -6.283974    7.929798    0.078552
     88          6           0       -8.429172    6.781493    0.237361
     89          6           0       -6.983242    9.076605   -0.326858
     90          6           0       -9.106763    7.952322   -0.105174
     91          6           0       -8.393128    9.138989   -0.332209
     92          8           0       -9.029464   10.310723   -0.657504
     93          1           0       -5.275868    4.666795   -1.953648
     94          1           0       -6.988529    4.368786   -0.670378
     95          1           0       -5.438819    5.931236    1.339608
     96          1           0       -6.958176    5.194423    1.742546
     97          1           0       -5.204234    7.942419    0.092728
     98          1           0       -8.935812    5.860454    0.488767
     99          1           0       -6.446344    9.969669   -0.579598
    100          1           0      -10.166902    7.962692   -0.306666
    101          1           0       -9.972140   10.191589   -0.576451
    102          7           0       -5.041134    2.263748    0.464464
    103          6           0       -4.765167    0.974426    1.078215
    104          6           0       -5.590541   -0.222408    0.633528
    105          8           0       -5.013659   -1.298464    0.527649
    106          6           0       -4.574858    1.144067    2.585997
    107          6           0       -3.360556    1.996732    2.953331
    108          6           0       -4.458587   -0.184736    3.328738
    109          6           0       -3.580406    3.077380    4.014306
    110          1           0       -4.368904    2.531265   -0.241682
    111          1           0       -3.782296    0.744317    0.687301
    112          1           0       -5.510561    1.627265    2.862365
    113          1           0       -2.995250    2.481262    2.053786
    114          1           0       -2.604381    1.293568    3.292093
    115          1           0       -3.571150   -0.744778    3.044293
    116          1           0       -4.494416    0.011271    4.401817
    117          1           0       -5.378025   -0.734362    3.144770
    118          1           0       -3.970311    2.664810    4.945735
    119          1           0       -2.598856    3.493826    4.277047
    120          1           0       -4.256547    3.880535    3.768798
    121          7           0       -6.898848   -0.009070    0.516397
    122          6           0       -7.908058   -0.853839   -0.086894
    123          6           0       -8.117961   -2.180049    0.624168
    124          8           0       -8.762869   -3.046507    0.043526
    125          6           0       -9.184623   -0.074805   -0.402467
    126          8           0       -8.985471    0.807518   -1.493725
    127          1           0       -7.074819    0.954324    0.759308
    128          1           0       -7.464173   -1.118107   -1.042368
    129          1           0       -9.466894    0.507432    0.474416
    130          1           0       -9.875941   -0.857188   -0.725665
    131          1           0       -9.311807    1.690022   -1.315983
    132          7           0       -7.591409   -2.365806    1.844838
    133          6           0       -7.480883   -3.610241    2.562100
    134          6           0       -6.925554   -4.776404    1.758499
    135          8           0       -7.289998   -5.935042    1.972130
    136          6           0       -8.757725   -3.966204    3.327583
    137          1           0       -7.183672   -1.568726    2.323812
    138          1           0       -6.751835   -3.340999    3.332358
    139          1           0       -8.504658   -4.745186    4.038950
    140          1           0       -9.152487   -3.103494    3.867300
    141          1           0       -9.496900   -4.306034    2.608460
    142          7           0       -6.035162   -4.475680    0.806991
    143          6           0       -5.403444   -5.414944   -0.098501
    144          6           0       -4.033329   -5.765250    0.469540
    145          8           0       -3.500345   -4.960443    1.228430
    146          6           0       -5.344527   -4.844149   -1.510670
    147          1           0       -5.822918   -3.503548    0.677327
    148          1           0       -5.955500   -6.359701   -0.154788
    149          1           0       -4.809599   -5.547448   -2.138940
    150          1           0       -6.403266   -4.705010   -1.757069
    151          1           0       -4.790841   -3.905161   -1.446379
    152          7           0       -3.399464   -6.852593    0.019095
    153          6           0       -2.031772   -7.313725    0.157937
    154          6           0       -1.745687   -7.624187    1.612539
    155          8           0       -0.586951   -7.505192    2.012130
    156          6           0       -0.999503   -6.385260   -0.469976
    157          6           0       -1.134197   -6.021045   -1.941644
    158          6           0        0.007423   -5.121779   -2.400472
    159          8           0        0.908948   -4.770777   -1.606400
    160          8           0        0.108657   -4.797786   -3.599339
    161          1           0       -4.033015   -7.262990   -0.647453
    162          1           0       -1.996473   -8.268867   -0.375222
    163          1           0       -0.062655   -6.943292   -0.350745
    164          1           0       -0.970844   -5.432330    0.061062
    165          1           0       -2.047437   -5.436376   -2.083963
    166          1           0       -1.000204   -6.954418   -2.491698
    167          7           0       -2.711237   -8.067561    2.426562
    168          6           0       -2.586622   -8.108922    3.870605
    169          1           0       -3.356363   -7.480863    4.318789
    170          1           0       -2.708166   -9.135232    4.217615
    171          1           0       -1.602826   -7.740735    4.161824
    172          1           0       -3.615456   -8.155894    1.984764
    173         20           0        1.966458   -2.954546   -3.860945
    174          8           0        1.208151   -3.915251   -6.160558
    175          1           0        0.346199   -3.753943   -6.530987
    176          1           0        1.685771   -4.374323   -6.838519
 ---------------------------------------------------------------------

 SCF Done:  E(RB3LYP) =  -5333.46634249     A.U. after   21 cycles

 The electronic state is 1-A.
 Alpha  occ. eigenvalues -- -145.43142 -19.21217 -19.16966 -19.14078 -19.13462
 Alpha  occ. eigenvalues --  -19.12336 -19.12277 -19.12228 -19.11784 -19.10751
 Alpha  occ. eigenvalues --  -19.09691 -19.08725 -19.08462 -19.07308 -19.07191
 Alpha  occ. eigenvalues --  -19.06688 -19.06551 -19.05471 -19.05409 -19.05330
 Alpha  occ. eigenvalues --  -19.03382 -19.01737 -18.95921 -18.95868 -15.49013
 Alpha  occ. eigenvalues --  -14.53358 -14.39548 -14.38763 -14.38216 -14.35855
 Alpha  occ. eigenvalues --  -14.35831 -14.35106 -14.34801 -14.34712 -14.33678
 Alpha  occ. eigenvalues --  -14.32976 -14.32354 -14.32007 -14.31250 -14.30423
 Alpha  occ. eigenvalues --  -12.62645 -12.62587 -12.62517 -10.32150 -10.31178
 Alpha  occ. eigenvalues --  -10.30715 -10.30676 -10.30124 -10.30088 -10.29645
 Alpha  occ. eigenvalues --  -10.27943 -10.27650 -10.26859 -10.26604 -10.26531
 Alpha  occ. eigenvalues --  -10.26430 -10.25750 -10.25719 -10.25294 -10.25264
 Alpha  occ. eigenvalues --  -10.24804 -10.24700 -10.24291 -10.24274 -10.23459
 Alpha  occ. eigenvalues --  -10.22936 -10.22315 -10.21993 -10.21926 -10.21841
 Alpha  occ. eigenvalues --  -10.21594 -10.21497 -10.21444 -10.21362 -10.21304
 Alpha  occ. eigenvalues --  -10.20717 -10.20663 -10.19840 -10.19803 -10.19795
 Alpha  occ. eigenvalues --  -10.19554 -10.19442 -10.19421 -10.19232 -10.19072
 Alpha  occ. eigenvalues --  -10.18802 -10.18229 -10.17576 -10.17245 -10.17201
 Alpha  occ. eigenvalues --  -10.17055 -10.16679 -10.16213 -10.16054 -10.14728
 Alpha  occ. eigenvalues --  -10.13737 -10.12887  -1.85665  -1.13380  -1.12851
 Alpha  occ. eigenvalues --   -1.12504  -1.08903  -1.07486  -1.07315  -1.05490
 Alpha  occ. eigenvalues --   -1.05353  -1.04551  -1.04507  -1.04380  -1.03474
 Alpha  occ. eigenvalues --   -1.03254  -1.02819  -1.01745  -1.01646  -1.01325
 Alpha  occ. eigenvalues --   -1.00398  -0.99148  -0.98908  -0.98543  -0.97957
 Alpha  occ. eigenvalues --   -0.97813  -0.96509  -0.95805  -0.94724  -0.93272
 Alpha  occ. eigenvalues --   -0.92504  -0.92459  -0.92049  -0.91348  -0.91103
 Alpha  occ. eigenvalues --   -0.90935  -0.90610  -0.90345  -0.88835  -0.88593
 Alpha  occ. eigenvalues --   -0.88101  -0.87382  -0.86729  -0.85682  -0.84941
 Alpha  occ. eigenvalues --   -0.81730  -0.81254  -0.80893  -0.80054  -0.79098
 Alpha  occ. eigenvalues --   -0.77943  -0.77108  -0.77058  -0.76835  -0.75792
 Alpha  occ. eigenvalues --   -0.75215  -0.74994  -0.74323  -0.73889  -0.73658
 Alpha  occ. eigenvalues --   -0.72809  -0.72347  -0.71765  -0.70668  -0.70182
 Alpha  occ. eigenvalues --   -0.69873  -0.69268  -0.68061  -0.67101  -0.66774
 Alpha  occ. eigenvalues --   -0.65883  -0.65422  -0.64568  -0.63998  -0.63532
 Alpha  occ. eigenvalues --   -0.62974  -0.62776  -0.62218  -0.62126  -0.61936
 Alpha  occ. eigenvalues --   -0.61843  -0.60881  -0.60551  -0.60449  -0.59599
 Alpha  occ. eigenvalues --   -0.59491  -0.59229  -0.58912  -0.58592  -0.58296
 Alpha  occ. eigenvalues --   -0.57719  -0.57668  -0.57241  -0.56448  -0.55962
 Alpha  occ. eigenvalues --   -0.55830  -0.55784  -0.55414  -0.55381  -0.55088
 Alpha  occ. eigenvalues --   -0.54493  -0.54094  -0.53989  -0.53737  -0.53363
 Alpha  occ. eigenvalues --   -0.52652  -0.52457  -0.52432  -0.52293  -0.52091
 Alpha  occ. eigenvalues --   -0.51480  -0.51161  -0.50863  -0.50162  -0.49946
 Alpha  occ. eigenvalues --   -0.49173  -0.49076  -0.48777  -0.48668  -0.48524
 Alpha  occ. eigenvalues --   -0.48480  -0.48349  -0.47884  -0.47728  -0.47440
 Alpha  occ. eigenvalues --   -0.47098  -0.46926  -0.46631  -0.46553  -0.46344
 Alpha  occ. eigenvalues --   -0.46030  -0.45985  -0.45767  -0.45542  -0.45488
 Alpha  occ. eigenvalues --   -0.45365  -0.45290  -0.45155  -0.44846  -0.44494
 Alpha  occ. eigenvalues --   -0.44449  -0.44185  -0.44018  -0.43841  -0.43662
 Alpha  occ. eigenvalues --   -0.43651  -0.43436  -0.43416  -0.43275  -0.43111
 Alpha  occ. eigenvalues --   -0.43071  -0.43039  -0.42855  -0.42589  -0.42496
 Alpha  occ. eigenvalues --   -0.42373  -0.42163  -0.41718  -0.41630  -0.41573
 Alpha  occ. eigenvalues --   -0.41549  -0.41458  -0.41070  -0.41027  -0.40776
 Alpha  occ. eigenvalues --   -0.40658  -0.40461  -0.40229  -0.39992  -0.39932
 Alpha  occ. eigenvalues --   -0.39603  -0.39531  -0.39475  -0.39352  -0.39284
 Alpha  occ. eigenvalues --   -0.39002  -0.38951  -0.38782  -0.38747  -0.38462
 Alpha  occ. eigenvalues --   -0.38339  -0.38315  -0.38155  -0.37996  -0.37957
 Alpha  occ. eigenvalues --   -0.37873  -0.37543  -0.37428  -0.37264  -0.37101
 Alpha  occ. eigenvalues --   -0.37077  -0.36575  -0.36413  -0.36156  -0.36042
 Alpha  occ. eigenvalues --   -0.36001  -0.35832  -0.35624  -0.35615  -0.35289
 Alpha  occ. eigenvalues --   -0.35068  -0.35019  -0.34805  -0.34789  -0.34402
 Alpha  occ. eigenvalues --   -0.34283  -0.33835  -0.33594  -0.33430  -0.33386
 Alpha  occ. eigenvalues --   -0.33375  -0.33106  -0.32874  -0.32524  -0.32319
 Alpha  occ. eigenvalues --   -0.32037  -0.31636  -0.31408  -0.31353  -0.31256
 Alpha  occ. eigenvalues --   -0.30808  -0.30752  -0.30325  -0.29574  -0.29299
 Alpha  occ. eigenvalues --   -0.28625  -0.28546  -0.28502  -0.28431  -0.28028
 Alpha  occ. eigenvalues --   -0.27655  -0.27589  -0.27401  -0.27161  -0.26936
 Alpha  occ. eigenvalues --   -0.26677  -0.26435  -0.26335  -0.26215  -0.25707
 Alpha  occ. eigenvalues --   -0.25699  -0.25330  -0.24771  -0.24244  -0.23918
 Alpha  occ. eigenvalues --   -0.23841  -0.23012  -0.22961  -0.22621  -0.22581
 Alpha  occ. eigenvalues --   -0.22474  -0.22338  -0.22010  -0.21924  -0.21651
 Alpha  occ. eigenvalues --   -0.21192  -0.20960  -0.20835  -0.20079  -0.17537
 Alpha  occ. eigenvalues --   -0.13877  -0.13674  -0.11360
 Alpha virt. eigenvalues --   -0.06063  -0.05831  -0.02624  -0.02384  -0.01712
 Alpha virt. eigenvalues --   -0.00924  -0.00663  -0.00623   0.00127   0.00238
 Alpha virt. eigenvalues --    0.00436   0.00691   0.01342   0.01690   0.01733

 Mulliken charges:
               1
     1  C    0.051403
     2  C    0.064569
     3  O   -0.369297
     4  H    0.025307
     5  H    0.053132
     6  H    0.014552
     7  N   -0.087883
     8  C   -0.022090
     9  C    0.115486
    10  O   -0.312478
    11  C    0.182204
    12  C   -0.027616
    13  O   -0.379675
    14  O   -0.383667
    15  H    0.132619
    16  H    0.000321
    17  H   -0.035684
    18  H   -0.011173
    19  N   -0.119821
    20  C    0.090683
    21  C    0.081559
    22  O   -0.305410
    23  C    0.057523
    24  C    0.047136
    25  C   -0.034578
    26  C    0.003002
    27  N    0.095891
    28  H    0.140578
    29  H    0.018329
    30  H   -0.000514
    31  H    0.011061
    32  H   -0.005757
    33  H    0.005759
    34  H   -0.002179
    35  H    0.055134
    36  H    0.092256
    37  H    0.048791
    38  H    0.185611
    39  H    0.162107
    40  H    0.181189
    41  N   -0.101229
    42  C    0.109960
    43  C    0.057286
    44  O   -0.249924
    45  C    0.116508
    46  C    0.063929
    47  O   -0.423085
    48  O   -0.404145
    49  H    0.128579
    50  H    0.016692
    51  H    0.007908
    52  H    0.029665
    53  N   -0.162465
    54  C    0.289222
    55  C   -0.008494
    56  O   -0.279051
    57  H    0.137199
    58  H    0.029476
    59  H   -0.011787
    60  N   -0.154985
    61  C    0.094289
    62  C    0.067536
    63  O   -0.297902
    64  C    0.088997
    65  C    0.105493
    66  N   -0.052629
    67  O   -0.362660
    68  H    0.120728
    69  H    0.050784
    70  H    0.045001
    71  H    0.021638
    72  H    0.120263
    73  H    0.148238
    74  N   -0.084896
    75  C    0.230423
    76  C    0.016955
    77  O   -0.249525
    78  H    0.128440
    79  H    0.000071
    80  H    0.037613
    81  N   -0.126250
    82  C    0.138480
    83  C    0.094923
    84  O   -0.321509
    85  C    0.128527
    86  C   -0.074808
    87  C    0.002186
    88  C    0.015238
    89  C   -0.025087
    90  C   -0.037700
    91  C    0.165543
    92  O   -0.192253
    93  H    0.130801
    94  H   -0.009690
    95  H    0.020459
    96  H    0.013127
    97  H   -0.023484
    98  H   -0.025447
    99  H   -0.028222
   100  H   -0.042968
   101  H    0.170248
   102  N   -0.120250
   103  C    0.153616
   104  C    0.011676
   105  O   -0.267047
   106  C   -0.152589
   107  C    0.063694
   108  C    0.130845
   109  C    0.028339
   110  H    0.144174
   111  H   -0.006092
   112  H   -0.003009
   113  H   -0.014393
   114  H   -0.018995
   115  H    0.031569
   116  H   -0.000431
   117  H   -0.038171
   118  H   -0.007175
   119  H    0.003998
   120  H    0.017191
   121  N   -0.137682
   122  C    0.121566
   123  C    0.044466
   124  O   -0.273589
   125  C    0.240957
   126  O   -0.327159
   127  H    0.118481
   128  H    0.024346
   129  H    0.006686
   130  H    0.021188
   131  H    0.166533
   132  N   -0.134981
   133  C    0.048539
   134  C    0.067276
   135  O   -0.283232
   136  C    0.095531
   137  H    0.133986
   138  H    0.018448
   139  H    0.018402
   140  H   -0.015443
   141  H    0.030622
   142  N   -0.107702
   143  C    0.061395
   144  C    0.025627
   145  O   -0.270447
   146  C    0.055570
   147  H    0.126488
   148  H    0.000684
   149  H    0.002135
   150  H    0.047891
   151  H    0.030754
   152  N   -0.133303
   153  C    0.144728
   154  C    0.046621
   155  O   -0.276434
   156  C    0.029604
   157  C    0.080323
   158  C    0.073422
   159  O   -0.367834
   160  O   -0.478603
   161  H    0.101157
   162  H   -0.003545
   163  H    0.016952
   164  H    0.021529
   165  H   -0.000298
   166  H   -0.016672
   167  N   -0.138602
   168  C    0.134651
   169  H    0.022919
   170  H    0.011428
   171  H    0.045008
   172  H    0.106029
   173  Ca   1.369703
   174  O   -0.295226
   175  H    0.197864
   176  H    0.183682
 Sum of Mulliken charges =  -0.00000

 Dipole moment (field-independent basis, Debye):
    X=             14.0232    Y=             -2.2039    Z=             -3.1302  Tot=             14.5364
 Quadrupole moment (field-independent basis, Debye-Ang):
   XX=           -204.1306   YY=           -639.9444   ZZ=           -457.6617
   XY=           -181.7761   XZ=            118.0177   YZ=             35.4171

 ESP charges:
               1
     1  C   -0.437998
     2  C    0.734834
     3  O   -0.622583
     4  H    0.115315
     5  H    0.134340
     6  H    0.108041
     7  N   -0.644455
     8  C    0.389258
     9  C    0.344606
    10  O   -0.514732
    11  C   -0.250929
    12  C    0.764710
    13  O   -0.697873
    14  O   -0.733934
    15  H    0.347333
    16  H   -0.029312
    17  H    0.028642
    18  H    0.055206
    19  N   -0.198546
    20  C    0.096091
    21  C    0.525955
    22  O   -0.571014
    23  C   -0.132186
    24  C    0.069479
    25  C   -0.142825
    26  C    0.128545
    27  N   -0.447128
    28  H    0.158879
    29  H    0.060705
    30  H    0.047893
    31  H    0.034088
    32  H   -0.009284
    33  H    0.019310
    34  H    0.042500
    35  H    0.071982
    36  H    0.070738
    37  H    0.037395
    38  H    0.357794
    39  H    0.301027
    40  H    0.347448
    41  N   -0.495850
    42  C    0.408622
    43  C    0.484918
    44  O   -0.497068
    45  C   -0.399435
    46  C    0.755298
    47  O   -0.727093
    48  O   -0.740859
    49  H    0.256040
    50  H   -0.001328
    51  H    0.095381
    52  H    0.124702
    53  N   -0.367607
    54  C   -0.122108
    55  C    0.706517
    56  O   -0.531496
    57  H    0.227362
    58  H    0.108488
    59  H    0.065225
    60  N   -0.979025
    61  C    0.538412
    62  C    0.501284
    63  O   -0.540096
    64  C   -0.419591
    65  C    0.833930
    66  N   -0.675427
    67  O   -0.695733
    68  H    0.391841
    69  H    0.017113
    70  H    0.101606
    71  H    0.098188
    72  H    0.311881
    73  H    0.362607
    74  N   -0.444617
    75  C   -0.229539
    76  C    0.756352
    77  O   -0.535118
    78  H    0.356361
    79  H    0.096777
    80  H    0.148898
    81  N   -0.785004
    82  C    0.300883
    83  C    0.311206
    84  O   -0.502619
    85  C   -0.158493
    86  C    0.052144
    87  C   -0.163833
    88  C   -0.079337
    89  C   -0.263628
    90  C   -0.353551
    91  C    0.396361
    92  O   -0.546957
    93  H    0.389400
    94  H    0.026928
    95  H    0.095990
    96  H    0.072401
    97  H    0.146394
    98  H    0.111462
    99  H    0.158816
   100  H    0.148680
   101  H    0.406884
   102  N   -0.249623
   103  C   -0.275132
   104  C    0.705660
   105  O   -0.586235
   106  C    0.330129
   107  C    0.077859
   108  C   -0.501886
   109  C   -0.181635
   110  H    0.267683
   111  H    0.108559
   112  H   -0.011058
   113  H   -0.026863
   114  H   -0.002876
   115  H    0.141868
   116  H    0.108647
   117  H    0.132578
   118  H    0.026627
   119  H    0.044063
   120  H    0.053898
   121  N   -0.627580
   122  C    0.239892
   123  C    0.285469
   124  O   -0.469250
   125  C    0.101023
   126  O   -0.605252
   127  H    0.331942
   128  H    0.101390
   129  H    0.033392
   130  H    0.057547
   131  H    0.404935
   132  N   -0.317914
   133  C    0.342565
   134  C    0.498625
   135  O   -0.541528
   136  C   -0.307199
   137  H    0.206198
   138  H   -0.001602
   139  H    0.071796
   140  H    0.061755
   141  H    0.096935
   142  N   -0.731484
   143  C    0.842913
   144  C    0.326587
   145  O   -0.470514
   146  C   -0.396500
   147  H    0.265877
   148  H   -0.117887
   149  H    0.047294
   150  H    0.087306
   151  H    0.121585
   152  N   -0.491761
   153  C    0.012994
   154  C    0.399808
   155  O   -0.516017
   156  C    0.353420
   157  C   -0.281589
   158  C    0.841878
   159  O   -0.753526
   160  O   -0.836287
   161  H    0.239752
   162  H    0.055003
   163  H   -0.042037
   164  H   -0.029649
   165  H    0.035984
   166  H    0.040322
   167  N   -0.275375
   168  C    0.044119
   169  H    0.040145
   170  H    0.007046
   171  H    0.067810
   172  H    0.212333
   173  Ca   1.672504
   174  O   -0.844690
   175  H    0.440308
   176  H    0.437667
 Sum of ESP charges =   0.00000

 Normal termination of Gaussian 16 at Tue Sep 17 00:04:37 2019.
