 Gaussian 16, Revision A.03,
 Gaussian 16:  ES64L-G16RevA.03 25-Dec-2016

 ----------------------------------------------------------------------
 #b3lyp/svp scf=(tight,noincore,xqc) Test #IOP(5/87=12) Density=Current
  Pop=(MK,readradii) iop(6/33=2) iop(6/42=6)
 ----------------------------------------------------------------------

 -----------------
 Ng-295_loop3_28.0
 -----------------
 Symbolic Z-matrix:
 Charge =  0 Multiplicity = 1

                         Standard orientation:
 ---------------------------------------------------------------------
 Center     Atomic      Atomic             Coordinates (Angstroms)
 Number     Number       Type             X           Y           Z
 ---------------------------------------------------------------------
      1          6           0      -11.218102    4.739951    3.942660
      2          6           0      -10.659916    3.969849    2.760259
      3          8           0      -11.051120    4.107038    1.599811
      4          1           0      -10.506105    4.704499    4.767014
      5          1           0      -11.387301    5.777360    3.654411
      6          1           0      -12.160634    4.290969    4.257269
      7          7           0       -9.744934    3.044305    3.043236
      8          6           0       -9.009757    2.275336    2.056980
      9          6           0       -9.848844    1.201118    1.392308
     10          8           0      -10.233211    0.244790    2.068916
     11          6           0       -7.626938    1.902388    2.603899
     12          6           0       -6.738600    1.566328    1.418817
     13          8           0       -5.727836    2.266034    1.235333
     14          8           0       -7.115530    0.723706    0.569281
     15          1           0       -9.364272    3.010721    3.975528
     16          1           0       -8.762868    2.934600    1.221147
     17          1           0       -7.660164    1.063403    3.303541
     18          1           0       -7.285029    2.803332    3.099780
     19          7           0      -10.097398    1.233946    0.082329
     20          6           0      -11.166828    0.445861   -0.490856
     21          6           0      -10.692050   -0.915810   -0.965450
     22          8           0      -11.506252   -1.842810   -0.953433
     23          6           0      -11.985577    1.161155   -1.551801
     24          6           0      -12.552373    2.444032   -0.957522
     25          6           0      -13.379752    3.139783   -2.030449
     26          6           0      -13.944655    4.379815   -1.350960
     27          7           0      -14.858379    4.061797   -0.232491
     28          1           0       -9.719730    1.998013   -0.467823
     29          1           0      -11.909378    0.247161    0.293005
     30          1           0      -12.850909    0.553803   -1.815665
     31          1           0      -11.272578    1.437416   -2.332386
     32          1           0      -11.730095    3.124624   -0.740371
     33          1           0      -13.210436    2.264016   -0.098076
     34          1           0      -14.235990    2.606819   -2.447231
     35          1           0      -12.756483    3.568845   -2.812012
     36          1           0      -14.465157    5.043559   -2.041916
     37          1           0      -13.100356    4.922735   -0.941816
     38          1           0      -15.721583    3.694524   -0.605707
     39          1           0      -14.484115    3.449747    0.479492
     40          1           0      -15.204667    4.877876    0.246571
     41          7           0       -9.436760   -1.111267   -1.375627
     42          6           0       -8.832916   -2.383343   -1.738799
     43          6           0       -8.168407   -3.091013   -0.570839
     44          8           0       -7.738010   -4.243149   -0.637480
     45          6           0       -7.877972   -2.275162   -2.920272
     46          6           0       -6.799019   -1.197238   -2.926831
     47          8           0       -6.114088   -1.018927   -3.961419
     48          8           0       -6.392603   -0.763740   -1.831840
     49          1           0       -8.811143   -0.343603   -1.208906
     50          1           0       -9.628968   -3.031696   -2.085845
     51          1           0       -8.517338   -2.156877   -3.796012
     52          1           0       -7.348852   -3.227129   -2.958872
     53          7           0       -7.909842   -2.480809    0.592817
     54          6           0       -7.079674   -3.050728    1.642109
     55          6           0       -5.605751   -3.300905    1.355645
     56          8           0       -4.881089   -3.932625    2.122714
     57          1           0       -7.927759   -1.475842    0.660791
     58          1           0       -7.555601   -3.960120    1.999321
     59          1           0       -7.003480   -2.280524    2.409103
     60          7           0       -5.161565   -2.691773    0.250811
     61          6           0       -3.798318   -2.571590   -0.217818
     62          6           0       -3.198182   -1.249618    0.239923
     63          8           0       -3.859416   -0.226009    0.382028
     64          6           0       -3.854239   -2.752183   -1.727407
     65          6           0       -2.597396   -3.342746   -2.353891
     66          7           0       -2.552514   -4.658732   -2.568289
     67          8           0       -1.709932   -2.579177   -2.719635
     68          1           0       -5.897188   -2.212051   -0.252105
     69          1           0       -3.237856   -3.396119    0.214195
     70          1           0       -4.040633   -1.788725   -2.196456
     71          1           0       -4.646192   -3.463046   -1.992139
     72          1           0       -3.268347   -5.309605   -2.284653
     73          1           0       -1.794064   -5.124738   -3.038917
     74          7           0       -1.881098   -1.297407    0.462419
     75          6           0       -1.030051   -0.282714    1.056993
     76          6           0        0.406373   -0.740306    1.252683
     77          8           0        1.213984    0.094504    1.654499
     78          1           0       -1.440414   -2.204614    0.397826
     79          1           0       -1.530115    0.013946    1.976574
     80          1           0       -1.024764    0.508822    0.312989
     81          7           0        0.780432   -2.011453    1.053518
     82          6           0        2.139105   -2.456073    1.309095
     83          6           0        3.077240   -1.873179    0.275153
     84          8           0        2.873824   -2.054644   -0.926468
     85          6           0        2.136296   -3.982563    1.313818
     86          6           0        3.330580   -4.654138    1.949485
     87          6           0        4.354514   -5.241594    1.193604
     88          6           0        3.318745   -4.737930    3.338203
     89          6           0        5.356426   -5.986816    1.837590
     90          6           0        4.354721   -5.429090    3.986317
     91          6           0        5.389491   -6.016670    3.239522
     92          8           0        6.358272   -6.777148    3.823762
     93          1           0        0.097155   -2.700365    0.791540
     94          1           0        2.427293   -2.112292    2.301749
     95          1           0        1.969206   -4.339807    0.297620
     96          1           0        1.245685   -4.275583    1.865770
     97          1           0        4.403217   -5.088946    0.125041
     98          1           0        2.638635   -4.210283    4.002386
     99          1           0        6.186332   -6.423768    1.293137
    100          1           0        4.325806   -5.579291    5.053324
    101          1           0        6.363214   -6.694777    4.787500
    102          7           0        4.178930   -1.257350    0.730494
    103          6           0        5.313973   -0.620374    0.100782
    104          6           0        6.094127   -1.595149   -0.765805
    105          8           0        5.563945   -2.632251   -1.171053
    106          6           0        4.975281    0.719728   -0.555736
    107          6           0        4.271151    1.645005    0.428623
    108          6           0        4.192787    0.579762   -1.858584
    109          6           0        4.899367    1.922467    1.785258
    110          1           0        4.213753   -1.309666    1.733814
    111          1           0        5.981982   -0.424325    0.935605
    112          1           0        5.933235    1.082997   -0.911908
    113          1           0        3.273331    1.234824    0.589577
    114          1           0        4.192512    2.582192   -0.125270
    115          1           0        3.142610    0.346943   -1.698824
    116          1           0        4.285659    1.508259   -2.430046
    117          1           0        4.490549   -0.213050   -2.532592
    118          1           0        4.407162    2.773268    2.262724
    119          1           0        4.785584    1.050925    2.437460
    120          1           0        5.942147    2.207145    1.613010
    121          7           0        7.370140   -1.299817   -1.039979
    122          6           0        8.258581   -2.016076   -1.922161
    123          6           0        9.726836   -1.860685   -1.514016
    124          8           0       10.550197   -2.427498   -2.217506
    125          6           0        8.070279   -1.767076   -3.411134
    126          8           0        7.971059   -0.380523   -3.648253
    127          1           0        7.694156   -0.413433   -0.666032
    128          1           0        8.044987   -3.056639   -1.648469
    129          1           0        7.098096   -2.219630   -3.633516
    130          1           0        8.788986   -2.158607   -4.141520
    131          1           0        8.580933   -0.305249   -4.385605
    132          7           0        9.976119   -1.195928   -0.382576
    133          6           0       11.281812   -1.060009    0.241196
    134          6           0       12.432917   -0.514336   -0.585000
    135          8           0       13.472220   -1.152212   -0.710546
    136          6           0       11.650327   -2.355355    0.961804
    137          1           0        9.204175   -0.774396    0.103545
    138          1           0       11.154816   -0.443631    1.138386
    139          1           0       11.625819   -3.179256    0.253506
    140          1           0       12.671937   -2.277811    1.351292
    141          1           0       10.974059   -2.573110    1.787421
    142          7           0       12.420001    0.688997   -1.169656
    143          6           0       11.373833    1.663520   -0.987347
    144          6           0       11.938305    3.077759   -0.838013
    145          8           0       12.978433    3.379307   -1.403082
    146          6           0       10.327562    1.731101   -2.104867
    147          1           0       13.297999    1.084905   -1.463045
    148          1           0       10.850669    1.506961   -0.046343
    149          1           0        9.739556    2.619532   -1.886836
    150          1           0       10.814385    1.592588   -3.072554
    151          1           0        9.634095    0.906748   -1.938298
    152          7           0       11.292292    4.050016   -0.197479
    153          6           0        9.934018    4.085568    0.322355
    154          6           0        9.832603    4.155508    1.842001
    155          8           0        8.968815    3.479652    2.389804
    156          6           0        9.249077    5.243536   -0.396926
    157          6           0        7.736919    5.241487   -0.222354
    158          6           0        7.062535    6.317166   -1.065396
    159          8           0        6.286232    7.088276   -0.470297
    160          8           0        7.416067    6.550606   -2.243284
    161          1           0       11.794750    4.922625   -0.146594
    162          1           0        9.409599    3.171189    0.054968
    163          1           0        9.456346    5.097970   -1.460528
    164          1           0        9.606206    6.225480   -0.094196
    165          1           0        7.458506    5.381179    0.826966
    166          1           0        7.357015    4.269622   -0.541807
    167          7           0       10.764955    4.819348    2.532968
    168          6           0       10.668524    5.035604    3.960601
    169          1           0       11.561648    4.645062    4.447471
    170          1           0       10.582557    6.103757    4.162316
    171          1           0        9.789506    4.519937    4.348237
    172          1           0       11.580501    5.080215    2.004072
    173         20           0       -5.285596    1.498016   -1.161380
    174          8           0       -7.847441    1.911778   -1.985486
    175          1           0       -8.463499    2.591223   -1.681795
    176          1           0       -8.169122    1.668851   -2.859790
 ---------------------------------------------------------------------

 SCF Done:  E(RB3LYP) =  -5333.31360588     A.U. after   33 cycles
 SCF Done:  E(RB3LYP) =  -5333.33550734     a.u. after   35 cycles

 The electronic state is 1-A.
 Alpha  occ. eigenvalues -- -145.46366 -19.24029 -19.15434 -19.15158 -19.13836
 Alpha  occ. eigenvalues --  -19.12501 -19.11445 -19.10990 -19.10581 -19.10170
 Alpha  occ. eigenvalues --  -19.10055 -19.08593 -19.08476 -19.08283 -19.08165
 Alpha  occ. eigenvalues --  -19.07952 -19.07477 -19.07240 -19.07222 -19.06423
 Alpha  occ. eigenvalues --  -19.06104 -19.05640 -18.98484 -18.98380 -15.52224
 Alpha  occ. eigenvalues --  -14.58610 -14.40615 -14.39837 -14.38355 -14.36823
 Alpha  occ. eigenvalues --  -14.36341 -14.35463 -14.35343 -14.34819 -14.34020
 Alpha  occ. eigenvalues --  -14.33811 -14.33571 -14.33524 -14.33332 -14.32254
 Alpha  occ. eigenvalues --  -12.65814 -12.65787 -12.65763 -10.36109 -10.33908
 Alpha  occ. eigenvalues --  -10.31595 -10.31478 -10.29956 -10.29908 -10.29666
 Alpha  occ. eigenvalues --  -10.29394 -10.28166 -10.27779 -10.27563 -10.27311
 Alpha  occ. eigenvalues --  -10.27111 -10.27071 -10.26854 -10.26485 -10.26317
 Alpha  occ. eigenvalues --  -10.26187 -10.26063 -10.25837 -10.25788 -10.25788
 Alpha  occ. eigenvalues --  -10.24856 -10.24830 -10.24665 -10.24163 -10.23558
 Alpha  occ. eigenvalues --  -10.23164 -10.22581 -10.22176 -10.21723 -10.21689
 Alpha  occ. eigenvalues --  -10.21667 -10.21532 -10.21275 -10.20830 -10.20581
 Alpha  occ. eigenvalues --  -10.19510 -10.19109 -10.18721 -10.18658 -10.18471
 Alpha  occ. eigenvalues --  -10.18233 -10.18179 -10.17722 -10.17189 -10.16662
 Alpha  occ. eigenvalues --  -10.16438 -10.15738 -10.14653 -10.14586 -10.14368
 Alpha  occ. eigenvalues --  -10.13281 -10.11407  -1.88963  -1.16401  -1.16173
 Alpha  occ. eigenvalues --   -1.15977  -1.14266  -1.09686  -1.08064  -1.06294
 Alpha  occ. eigenvalues --   -1.06148  -1.05732  -1.03917  -1.03554  -1.03396
 Alpha  occ. eigenvalues --   -1.02282  -1.01951  -1.01924  -1.01560  -1.01519
 Alpha  occ. eigenvalues --   -1.00746  -1.00505  -1.00389  -1.00060  -0.99691
 Alpha  occ. eigenvalues --   -0.99056  -0.97172  -0.96371  -0.95514  -0.95447
 Alpha  occ. eigenvalues --   -0.92912  -0.92733  -0.92702  -0.92566  -0.91926
 Alpha  occ. eigenvalues --   -0.91699  -0.91063  -0.90879  -0.90476  -0.90106
 Alpha  occ. eigenvalues --   -0.90071  -0.89555  -0.89471  -0.89176  -0.85562
 Alpha  occ. eigenvalues --   -0.84315  -0.82953  -0.82400  -0.80048  -0.79675
 Alpha  occ. eigenvalues --   -0.79245  -0.78107  -0.77897  -0.77699  -0.76556
 Alpha  occ. eigenvalues --   -0.75867  -0.75338  -0.74696  -0.74042  -0.74010
 Alpha  occ. eigenvalues --   -0.73539  -0.73274  -0.72306  -0.72183  -0.71289
 Alpha  occ. eigenvalues --   -0.70593  -0.70144  -0.70031  -0.68430  -0.67891
 Alpha  occ. eigenvalues --   -0.67123  -0.66071  -0.65929  -0.65283  -0.65214
 Alpha  occ. eigenvalues --   -0.64873  -0.63831  -0.63797  -0.62943  -0.62536
 Alpha  occ. eigenvalues --   -0.62328  -0.62262  -0.61416  -0.60975  -0.60402
 Alpha  occ. eigenvalues --   -0.60301  -0.60255  -0.59414  -0.58976  -0.58557
 Alpha  occ. eigenvalues --   -0.58172  -0.58032  -0.57816  -0.57727  -0.57295
 Alpha  occ. eigenvalues --   -0.56956  -0.56739  -0.56500  -0.56313  -0.55976
 Alpha  occ. eigenvalues --   -0.55342  -0.55280  -0.54854  -0.54210  -0.54114
 Alpha  occ. eigenvalues --   -0.54035  -0.53645  -0.53332  -0.53048  -0.52663
 Alpha  occ. eigenvalues --   -0.52244  -0.52158  -0.52039  -0.51610  -0.51489
 Alpha  occ. eigenvalues --   -0.51108  -0.50793  -0.50384  -0.50261  -0.50214
 Alpha  occ. eigenvalues --   -0.49932  -0.49916  -0.49455  -0.49390  -0.48385
 Alpha  occ. eigenvalues --   -0.48200  -0.47962  -0.47749  -0.47243  -0.47147
 Alpha  occ. eigenvalues --   -0.47001  -0.46771  -0.46471  -0.46442  -0.46233
 Alpha  occ. eigenvalues --   -0.46035  -0.45982  -0.45655  -0.45619  -0.45402
 Alpha  occ. eigenvalues --   -0.45393  -0.45331  -0.44907  -0.44817  -0.44533
 Alpha  occ. eigenvalues --   -0.44376  -0.44260  -0.44091  -0.44004  -0.43980
 Alpha  occ. eigenvalues --   -0.43804  -0.43653  -0.43610  -0.43242  -0.43006
 Alpha  occ. eigenvalues --   -0.42892  -0.42618  -0.42276  -0.42061  -0.42007
 Alpha  occ. eigenvalues --   -0.41778  -0.41603  -0.41513  -0.41358  -0.41135
 Alpha  occ. eigenvalues --   -0.41090  -0.41011  -0.40923  -0.40721  -0.40588
 Alpha  occ. eigenvalues --   -0.40344  -0.40184  -0.40178  -0.40078  -0.40001
 Alpha  occ. eigenvalues --   -0.39714  -0.39584  -0.39434  -0.39211  -0.39172
 Alpha  occ. eigenvalues --   -0.39119  -0.38961  -0.38864  -0.38555  -0.38474
 Alpha  occ. eigenvalues --   -0.38216  -0.38119  -0.37969  -0.37853  -0.37744
 Alpha  occ. eigenvalues --   -0.37469  -0.37392  -0.37170  -0.37081  -0.37004
 Alpha  occ. eigenvalues --   -0.36531  -0.36321  -0.36277  -0.35965  -0.35648
 Alpha  occ. eigenvalues --   -0.35562  -0.35311  -0.34883  -0.34861  -0.34597
 Alpha  occ. eigenvalues --   -0.34551  -0.34403  -0.34256  -0.33982  -0.33623
 Alpha  occ. eigenvalues --   -0.33244  -0.32997  -0.32956  -0.32713  -0.32561
 Alpha  occ. eigenvalues --   -0.32211  -0.32066  -0.31959  -0.31404  -0.31380
 Alpha  occ. eigenvalues --   -0.30911  -0.30655  -0.29965  -0.29758  -0.29483
 Alpha  occ. eigenvalues --   -0.29194  -0.29175  -0.28677  -0.28548  -0.28195
 Alpha  occ. eigenvalues --   -0.27788  -0.27338  -0.27147  -0.27004  -0.26936
 Alpha  occ. eigenvalues --   -0.26758  -0.26564  -0.26308  -0.25997  -0.25781
 Alpha  occ. eigenvalues --   -0.25720  -0.25437  -0.25330  -0.24982  -0.24912
 Alpha  occ. eigenvalues --   -0.24588  -0.24424  -0.23933  -0.23793  -0.23682
 Alpha  occ. eigenvalues --   -0.23402  -0.23276  -0.22798  -0.22634  -0.22420
 Alpha  occ. eigenvalues --   -0.21948  -0.21742  -0.21651  -0.21501  -0.21056
 Alpha  occ. eigenvalues --   -0.15329  -0.15172  -0.12091
 Alpha virt. eigenvalues --   -0.11555  -0.11234  -0.06649  -0.05917  -0.05430
 Alpha virt. eigenvalues --   -0.03340  -0.02584  -0.02379  -0.01432  -0.00932
 Alpha virt. eigenvalues --   -0.00451   0.00242   0.00406   0.00669   0.00772

 Mulliken charges:
               1
     1  C    0.057610
     2  C    0.025503
     3  O   -0.332565
     4  H    0.021893
     5  H    0.035643
     6  H    0.045237
     7  N   -0.090840
     8  C    0.064702
     9  C    0.103115
    10  O   -0.272510
    11  C    0.160816
    12  C    0.080806
    13  O   -0.425235
    14  O   -0.412290
    15  H    0.124820
    16  H   -0.041055
    17  H    0.038102
    18  H   -0.000788
    19  N   -0.109988
    20  C    0.093636
    21  C    0.087985
    22  O   -0.287327
    23  C    0.089278
    24  C   -0.040033
    25  C    0.024051
    26  C    0.049466
    27  N    0.109972
    28  H    0.071865
    29  H    0.013466
    30  H    0.027708
    31  H   -0.024354
    32  H    0.021529
    33  H   -0.024202
    34  H    0.027318
    35  H    0.038599
    36  H    0.057582
    37  H    0.062092
    38  H    0.134298
    39  H    0.159201
    40  H    0.137457
    41  N   -0.163921
    42  C    0.179063
    43  C    0.052564
    44  O   -0.289492
    45  C    0.055171
    46  C    0.065834
    47  O   -0.351060
    48  O   -0.458186
    49  H    0.138414
    50  H    0.016132
    51  H    0.001330
    52  H    0.043070
    53  N   -0.169796
    54  C    0.206335
    55  C    0.016802
    56  O   -0.292256
    57  H    0.134268
    58  H    0.037681
    59  H    0.024137
    60  N   -0.149820
    61  C    0.094003
    62  C    0.135024
    63  O   -0.347059
    64  C    0.115603
    65  C   -0.021900
    66  N   -0.050450
    67  O   -0.257689
    68  H    0.144931
    69  H   -0.002984
    70  H    0.025258
    71  H    0.020999
    72  H    0.120378
    73  H    0.126495
    74  N   -0.164200
    75  C    0.254379
    76  C    0.038781
    77  O   -0.276365
    78  H    0.126849
    79  H    0.058748
    80  H    0.037896
    81  N   -0.124759
    82  C    0.123426
    83  C    0.086789
    84  O   -0.265051
    85  C    0.128290
    86  C   -0.030914
    87  C    0.021035
    88  C   -0.019258
    89  C   -0.024785
    90  C   -0.054166
    91  C    0.165347
    92  O   -0.204857
    93  H    0.106005
    94  H   -0.017239
    95  H    0.011150
    96  H   -0.011395
    97  H    0.005999
    98  H   -0.024534
    99  H   -0.013212
   100  H   -0.048307
   101  H    0.175787
   102  N   -0.110072
   103  C    0.113762
   104  C    0.078344
   105  O   -0.251690
   106  C   -0.058287
   107  C    0.010618
   108  C    0.062077
   109  C    0.030595
   110  H    0.112873
   111  H   -0.017218
   112  H   -0.022743
   113  H    0.015358
   114  H    0.008430
   115  H    0.009231
   116  H    0.004511
   117  H    0.012820
   118  H    0.016401
   119  H   -0.015173
   120  H    0.021879
   121  N   -0.173140
   122  C    0.137057
   123  C    0.038019
   124  O   -0.256314
   125  C    0.228172
   126  O   -0.301286
   127  H    0.128652
   128  H    0.035525
   129  H    0.006449
   130  H    0.020188
   131  H    0.166523
   132  N   -0.119001
   133  C   -0.011111
   134  C    0.090454
   135  O   -0.251786
   136  C    0.077223
   137  H    0.103097
   138  H    0.027927
   139  H    0.030875
   140  H    0.022371
   141  H   -0.011039
   142  N   -0.073728
   143  C   -0.009117
   144  C    0.037260
   145  O   -0.276844
   146  C    0.113036
   147  H    0.129767
   148  H   -0.005112
   149  H    0.021072
   150  H    0.026936
   151  H   -0.021867
   152  N   -0.101297
   153  C    0.079125
   154  C    0.070022
   155  O   -0.275622
   156  C    0.018831
   157  C    0.050272
   158  C    0.050474
   159  O   -0.314009
   160  O   -0.332098
   161  H    0.123519
   162  H   -0.006168
   163  H    0.020980
   164  H   -0.003913
   165  H   -0.006989
   166  H   -0.021603
   167  N   -0.154512
   168  C    0.129059
   169  H    0.015592
   170  H    0.025873
   171  H    0.049561
   172  H    0.101089
   173  Ca   1.272364
   174  O   -0.260625
   175  H    0.162060
   176  H    0.193167
 Sum of Mulliken charges =  -0.00000

 Dipole moment (field-independent basis, Debye):
    X=            -68.2683    Y=             11.5418    Z=              8.4776  Tot=             69.7541
 Quadrupole moment (field-independent basis, Debye-Ang):
   XX=           -102.3280   YY=           -622.6901   ZZ=           -544.0691
   XY=           -384.8235   XZ=            120.6389   YZ=             16.3322

 ESP charges:
               1
     1  C   -0.458304
     2  C    0.799429
     3  O   -0.683233
     4  H    0.118190
     5  H    0.129848
     6  H    0.133186
     7  N   -0.674258
     8  C    0.329885
     9  C    0.512432
    10  O   -0.527894
    11  C   -0.317805
    12  C    0.779321
    13  O   -0.746017
    14  O   -0.604189
    15  H    0.344521
    16  H   -0.018573
    17  H    0.101392
    18  H    0.089191
    19  N   -0.506561
    20  C    0.053823
    21  C    0.471959
    22  O   -0.549962
    23  C   -0.346548
    24  C    0.266503
    25  C   -0.241305
    26  C    0.142688
    27  N   -0.359807
    28  H    0.297528
    29  H    0.105866
    30  H    0.132542
    31  H    0.079206
    32  H    0.040310
    33  H   -0.012345
    34  H    0.076247
    35  H    0.093604
    36  H    0.053155
    37  H    0.047326
    38  H    0.283370
    39  H    0.296251
    40  H    0.277767
    41  N   -0.196195
    42  C   -0.159779
    43  C    0.515703
    44  O   -0.529659
    45  C   -0.225491
    46  C    0.622896
    47  O   -0.652484
    48  O   -0.615215
    49  H    0.171496
    50  H    0.164678
    51  H    0.076110
    52  H    0.115118
    53  N   -0.190852
    54  C   -0.404151
    55  C    0.628975
    56  O   -0.585894
    57  H    0.206417
    58  H    0.182429
    59  H    0.150824
    60  N   -0.077732
    61  C   -0.371879
    62  C    0.651784
    63  O   -0.558591
    64  C   -0.142340
    65  C    0.767695
    66  N   -0.879835
    67  O   -0.590922
    68  H    0.034792
    69  H    0.148406
    70  H    0.067524
    71  H    0.135285
    72  H    0.368109
    73  H    0.396054
    74  N   -0.221831
    75  C   -0.456285
    76  C    0.762608
    77  O   -0.558981
    78  H    0.178778
    79  H    0.194237
    80  H    0.169067
    81  N   -0.454159
    82  C   -0.104546
    83  C    0.608005
    84  O   -0.513953
    85  C   -0.153329
    86  C    0.130802
    87  C   -0.259767
    88  C   -0.174380
    89  C   -0.133234
    90  C   -0.290260
    91  C    0.307897
    92  O   -0.535224
    93  H    0.315074
    94  H    0.081720
    95  H    0.094279
    96  H    0.067625
    97  H    0.183496
    98  H    0.144963
    99  H    0.139098
   100  H    0.138832
   101  H    0.404031
   102  N   -0.509182
   103  C   -0.095816
   104  C    0.578197
   105  O   -0.466151
   106  C    0.529408
   107  C   -0.062805
   108  C   -0.493430
   109  C   -0.024692
   110  H    0.308325
   111  H    0.033751
   112  H   -0.074262
   113  H    0.003441
   114  H    0.003634
   115  H    0.105809
   116  H    0.073589
   117  H    0.178205
   118  H    0.044763
   119  H   -0.005458
   120  H   -0.052658
   121  N   -0.391749
   122  C   -0.305120
   123  C    0.662671
   124  O   -0.512934
   125  C    0.257905
   126  O   -0.605048
   127  H    0.246398
   128  H    0.136937
   129  H    0.029365
   130  H    0.022589
   131  H    0.399430
   132  N   -0.414399
   133  C    0.188474
   134  C    0.444693
   135  O   -0.493482
   136  C   -0.361515
   137  H    0.240915
   138  H    0.074745
   139  H    0.110880
   140  H    0.101843
   141  H    0.082633
   142  N   -0.483036
   143  C    0.309406
   144  C    0.474577
   145  O   -0.531286
   146  C   -0.211362
   147  H    0.296443
   148  H   -0.064270
   149  H    0.075505
   150  H    0.084422
   151  H    0.043670
   152  N   -0.515719
   153  C   -0.255316
   154  C    0.582073
   155  O   -0.526391
   156  C    0.165429
   157  C   -0.234173
   158  C    0.705661
   159  O   -0.610052
   160  O   -0.630071
   161  H    0.320897
   162  H    0.158977
   163  H    0.024365
   164  H    0.002965
   165  H    0.071208
   166  H    0.024080
   167  N   -0.364493
   168  C   -0.021511
   169  H    0.042698
   170  H    0.050780
   171  H    0.074360
   172  H    0.269041
   173  Ca   1.409022
   174  O   -0.840108
   175  H    0.381901
   176  H    0.433836
 Sum of ESP charges =  -0.00000

 Normal termination of Gaussian 16 at Thu Sep 19 17:56:38 2019.
