 Gaussian 16, Revision A.03,
 Gaussian 16:  ES64L-G16RevA.03 25-Dec-2016

 ----------------------------------------------------------------------
 #b3lyp/svp scf=(tight,noincore) Test #IOP(5/87=12) Density=Current Pop
 =(MK,readradii) iop(6/33=2) iop(6/42=6)
 ----------------------------------------------------------------------

 ----------------
 Ng-293_loop3_9.0
 ----------------
 Symbolic Z-matrix:
 Charge =  0 Multiplicity = 1

                         Standard orientation:
 ---------------------------------------------------------------------
 Center     Atomic      Atomic             Coordinates (Angstroms)
 Number     Number       Type             X           Y           Z
 ---------------------------------------------------------------------
      1          6           0       -8.515068   -0.540651   -4.862224
      2          6           0       -8.298816    0.126719   -3.508432
      3          8           0       -7.840555   -0.507148   -2.558638
      4          1           0       -8.866887   -1.561364   -4.711739
      5          1           0       -9.258013    0.019619   -5.429168
      6          1           0       -7.574993   -0.559178   -5.413053
      7          7           0       -8.740522    1.384858   -3.472625
      8          6           0       -8.592148    2.414501   -2.458761
      9          6           0       -9.273501    2.070145   -1.135251
     10          8           0       -9.242143    2.740741   -0.111768
     11          6           0       -7.200587    3.005770   -2.289475
     12          6           0       -7.234333    4.400672   -1.677503
     13          8           0       -6.107338    4.794015   -1.302719
     14          8           0       -8.252826    5.116778   -1.611435
     15          1           0       -9.013169    1.776172   -4.356727
     16          1           0       -9.190987    3.202482   -2.911175
     17          1           0       -6.611883    3.023302   -3.206165
     18          1           0       -6.706828    2.297161   -1.618524
     19          7           0       -9.759287    0.829694   -1.054669
     20          6           0      -10.164546    0.071846    0.117522
     21          6           0       -9.045569   -0.446657    1.008614
     22          8           0       -9.258207   -0.722962    2.184556
     23          6           0      -11.092330   -1.063899   -0.303668
     24          6           0      -12.395952   -0.442529   -0.786440
     25          6           0      -13.538157   -1.447795   -0.868959
     26          6           0      -14.905027   -0.848661   -1.194235
     27          7           0      -15.917532   -1.871706   -1.495755
     28          1           0       -9.703432    0.304043   -1.917265
     29          1           0      -10.667599    0.797366    0.765255
     30          1           0      -11.236746   -1.609603    0.628615
     31          1           0      -10.690890   -1.662359   -1.114589
     32          1           0      -12.330115    0.072706   -1.743153
     33          1           0      -12.723138    0.336346   -0.103724
     34          1           0      -13.487560   -1.882623    0.128720
     35          1           0      -13.268142   -2.213866   -1.592510
     36          1           0      -14.729027   -0.162246   -2.031108
     37          1           0      -15.225742   -0.372501   -0.265303
     38          1           0      -15.926678   -2.271185   -2.421245
     39          1           0      -15.705149   -2.538830   -0.765591
     40          1           0      -16.844513   -1.477738   -1.404131
     41          7           0       -7.807117   -0.649747    0.540757
     42          6           0       -6.627921   -0.553087    1.371453
     43          6           0       -5.462129    0.180732    0.726056
     44          8           0       -5.252729   -0.045115   -0.468115
     45          6           0       -6.104814   -1.924775    1.788504
     46          6           0       -4.756021   -1.926103    2.490612
     47          8           0       -3.846241   -2.727234    2.180305
     48          8           0       -4.488732   -1.123217    3.421165
     49          1           0       -7.675749   -0.540893   -0.451459
     50          1           0       -6.814864   -0.107325    2.346003
     51          1           0       -5.994926   -2.579187    0.924982
     52          1           0       -6.781953   -2.385752    2.511195
     53          7           0       -4.819790    1.037187    1.513194
     54          6           0       -3.755117    1.946506    1.125624
     55          6           0       -2.403113    1.237141    1.116343
     56          8           0       -2.285873    0.152244    1.687092
     57          1           0       -5.153973    1.005841    2.463478
     58          1           0       -3.587106    2.764568    1.820352
     59          1           0       -4.025292    2.358902    0.154061
     60          7           0       -1.420671    1.790450    0.401672
     61          6           0       -0.085695    1.204597    0.366800
     62          6           0        1.043927    2.155250    0.721640
     63          8           0        2.172611    1.685342    0.820934
     64          6           0        0.073021    0.607863   -1.024537
     65          6           0        0.509398   -0.849627   -1.081106
     66          7           0        1.683984   -1.191643   -0.535789
     67          8           0       -0.220143   -1.695034   -1.581061
     68          1           0       -1.531294    2.544052   -0.260179
     69          1           0        0.026078    0.438317    1.130817
     70          1           0        0.748362    1.223206   -1.610598
     71          1           0       -0.865843    0.638025   -1.578905
     72          1           0        2.171070   -0.492543    0.005512
     73          1           0        2.075855   -2.114547   -0.526500
     74          7           0        0.805913    3.466085    0.887958
     75          6           0        1.777390    4.409765    1.408151
     76          6           0        3.025258    4.479127    0.537453
     77          8           0        2.965326    4.549015   -0.691377
     78          1           0       -0.161769    3.712419    0.774769
     79          1           0        1.993733    4.080888    2.420048
     80          1           0        1.342347    5.406071    1.523954
     81          7           0        4.131978    4.246560    1.234147
     82          6           0        5.440003    4.124966    0.620970
     83          6           0        5.662226    3.079745   -0.468494
     84          8           0        6.517176    3.244435   -1.344472
     85          6           0        5.961122    5.491506    0.187609
     86          6           0        6.026206    6.725559    1.071169
     87          6           0        4.994216    7.676774    1.026596
     88          6           0        7.050477    6.914137    2.003106
     89          6           0        5.002302    8.803370    1.863205
     90          6           0        7.045323    7.971817    2.902765
     91          6           0        6.023151    8.938300    2.819845
     92          8           0        5.827564   10.006647    3.651519
     93          1           0        4.008167    4.167220    2.234835
     94          1           0        6.122879    3.861319    1.426247
     95          1           0        5.266273    5.812081   -0.592850
     96          1           0        6.948704    5.385651   -0.253612
     97          1           0        4.214902    7.563905    0.297054
     98          1           0        7.872589    6.226052    2.132612
     99          1           0        4.258487    9.584234    1.824592
    100          1           0        7.787870    8.200281    3.663703
    101          1           0        6.544003   10.098473    4.286171
    102          7           0        4.935699    1.964505   -0.420562
    103          6           0        4.965229    0.777500   -1.245514
    104          6           0        6.240972    0.006756   -0.949317
    105          8           0        6.254217   -1.075355   -0.354540
    106          6           0        4.690234    0.882588   -2.747491
    107          6           0        3.407555    1.649230   -3.094038
    108          6           0        4.658642   -0.473867   -3.446942
    109          6           0        3.354685    2.593248   -4.293761
    110          1           0        4.138878    2.066847    0.193280
    111          1           0        4.129862    0.251195   -0.779719
    112          1           0        5.488807    1.449471   -3.227412
    113          1           0        3.075716    2.404203   -2.382914
    114          1           0        2.554912    0.980098   -3.106785
    115          1           0        4.397063   -0.344703   -4.489963
    116          1           0        5.663254   -0.869932   -3.576893
    117          1           0        4.001570   -1.161895   -2.919046
    118          1           0        2.409854    3.130557   -4.225260
    119          1           0        4.248567    3.210375   -4.254653
    120          1           0        3.419200    2.014972   -5.216819
    121          7           0        7.394920    0.441082   -1.461433
    122          6           0        8.701024   -0.078634   -1.146173
    123          6           0        8.963576   -1.552928   -1.449527
    124          8           0        9.774922   -2.213425   -0.816312
    125          6           0        9.822211    0.803576   -1.702181
    126          8           0        9.525069    1.110272   -3.048711
    127          1           0        7.434622    1.228899   -2.105070
    128          1           0        8.768529    0.042137   -0.068974
    129          1           0       10.747961    0.272656   -1.504421
    130          1           0        9.904633    1.684706   -1.056412
    131          1           0       10.077498    1.700655   -3.556225
    132          7           0        8.125914   -2.124148   -2.324358
    133          6           0        8.187093   -3.515350   -2.713992
    134          6           0        7.877415   -4.441257   -1.537304
    135          8           0        8.388347   -5.544077   -1.420522
    136          6           0        9.489761   -3.911312   -3.393455
    137          1           0        7.630914   -1.466366   -2.911553
    138          1           0        7.475873   -3.707894   -3.509978
    139          1           0       10.378107   -3.862258   -2.763109
    140          1           0        9.426877   -4.905980   -3.849943
    141          1           0        9.656690   -3.162356   -4.168632
    142          7           0        6.964936   -4.024377   -0.653112
    143          6           0        6.539327   -4.734983    0.537894
    144          6           0        5.028239   -4.802218    0.656188
    145          8           0        4.355455   -4.257368   -0.217082
    146          6           0        7.206371   -4.167398    1.790052
    147          1           0        6.615526   -3.097097   -0.845371
    148          1           0        6.850099   -5.778900    0.439115
    149          1           0        6.990337   -4.906571    2.551336
    150          1           0        8.289189   -4.125371    1.893681
    151          1           0        6.684079   -3.229507    2.021939
    152          7           0        4.530200   -5.605891    1.598614
    153          6           0        3.113124   -5.899165    1.700526
    154          6           0        2.608954   -6.700209    0.514465
    155          8           0        1.430691   -6.683329    0.149073
    156          6           0        2.229707   -4.689907    1.981897
    157          6           0        1.032158   -5.202058    2.780443
    158          6           0        0.108535   -4.091995    3.278018
    159          8           0        0.437336   -2.957322    3.670581
    160          8           0       -1.061841   -4.371842    3.597089
    161          1           0        5.076184   -6.202770    2.199644
    162          1           0        3.036492   -6.537251    2.587303
    163          1           0        1.901384   -4.130171    1.103660
    164          1           0        2.776564   -3.930133    2.541799
    165          1           0        1.337767   -5.677683    3.704610
    166          1           0        0.466903   -5.941543    2.213478
    167          7           0        3.472693   -7.353382   -0.270277
    168          6           0        3.041306   -7.645795   -1.628953
    169          1           0        2.676117   -8.671131   -1.680621
    170          1           0        2.242026   -6.960851   -1.911895
    171          1           0        3.882681   -7.525854   -2.312125
    172          1           0        4.462869   -7.390911   -0.125558
    173         20           0       -1.839396   -1.782109    3.519040
    174          8           0       -3.203563   -3.197207    5.357503
    175          1           0       -3.172662   -4.130148    5.570264
    176          1           0       -3.857242   -2.846853    5.971145
 ---------------------------------------------------------------------

 SCF Done:  E(RB3LYP) =  -5333.36927685     A.U. after   36 cycles

 The electronic state is 1-A.
 Alpha  occ. eigenvalues -- -145.39329 -19.16825 -19.14280 -19.13849 -19.13840
 Alpha  occ. eigenvalues --  -19.13409 -19.11800 -19.09774 -19.09035 -19.08761
 Alpha  occ. eigenvalues --  -19.08466 -19.08192 -19.07014 -19.06388 -19.06356
 Alpha  occ. eigenvalues --  -19.06061 -19.05646 -19.05230 -19.03568 -19.02705
 Alpha  occ. eigenvalues --  -19.01833 -19.01340 -18.96699 -18.96206 -15.45213
 Alpha  occ. eigenvalues --  -14.57225 -14.39599 -14.39081 -14.38259 -14.34956
 Alpha  occ. eigenvalues --  -14.34854 -14.34689 -14.34579 -14.33842 -14.33065
 Alpha  occ. eigenvalues --  -14.32933 -14.32689 -14.32106 -14.30948 -14.30766
 Alpha  occ. eigenvalues --  -12.58841 -12.58788 -12.58711 -10.34671 -10.32057
 Alpha  occ. eigenvalues --  -10.31523 -10.30616 -10.28818 -10.27859 -10.27618
 Alpha  occ. eigenvalues --  -10.27012 -10.26838 -10.26764 -10.26689 -10.26574
 Alpha  occ. eigenvalues --  -10.26310 -10.25410 -10.25179 -10.25046 -10.25028
 Alpha  occ. eigenvalues --  -10.24736 -10.24577 -10.24522 -10.24472 -10.23374
 Alpha  occ. eigenvalues --  -10.23247 -10.23127 -10.22608 -10.22364 -10.22085
 Alpha  occ. eigenvalues --  -10.21693 -10.21685 -10.21480 -10.21404 -10.21133
 Alpha  occ. eigenvalues --  -10.19858 -10.19685 -10.19641 -10.19498 -10.19351
 Alpha  occ. eigenvalues --  -10.19280 -10.19123 -10.18902 -10.18884 -10.18780
 Alpha  occ. eigenvalues --  -10.18699 -10.18446 -10.17221 -10.16625 -10.16300
 Alpha  occ. eigenvalues --  -10.16286 -10.16192 -10.15420 -10.15384 -10.14208
 Alpha  occ. eigenvalues --  -10.13685 -10.11997  -1.81943  -1.12930  -1.09633
 Alpha  occ. eigenvalues --   -1.09201  -1.08790  -1.07127  -1.05798  -1.05222
 Alpha  occ. eigenvalues --   -1.04545  -1.03012  -1.02297  -1.01729  -1.01655
 Alpha  occ. eigenvalues --   -1.01552  -1.01103  -1.00047  -0.99966  -0.99748
 Alpha  occ. eigenvalues --   -0.99743  -0.99048  -0.98934  -0.98873  -0.98592
 Alpha  occ. eigenvalues --   -0.97411  -0.96553  -0.94989  -0.94920  -0.92094
 Alpha  occ. eigenvalues --   -0.91807  -0.91754  -0.91512  -0.90844  -0.90378
 Alpha  occ. eigenvalues --   -0.89848  -0.89643  -0.88274  -0.88228  -0.87828
 Alpha  occ. eigenvalues --   -0.87750  -0.87420  -0.86200  -0.86018  -0.85231
 Alpha  occ. eigenvalues --   -0.81397  -0.81386  -0.80986  -0.80835  -0.79661
 Alpha  occ. eigenvalues --   -0.77771  -0.77137  -0.76519  -0.76329  -0.75218
 Alpha  occ. eigenvalues --   -0.75106  -0.74705  -0.74534  -0.74245  -0.73607
 Alpha  occ. eigenvalues --   -0.73242  -0.72880  -0.72185  -0.71038  -0.70484
 Alpha  occ. eigenvalues --   -0.70342  -0.69905  -0.68635  -0.67295  -0.66427
 Alpha  occ. eigenvalues --   -0.66165  -0.65374  -0.64363  -0.64196  -0.63442
 Alpha  occ. eigenvalues --   -0.63034  -0.62688  -0.62438  -0.62396  -0.61828
 Alpha  occ. eigenvalues --   -0.61801  -0.61232  -0.60853  -0.60607  -0.60002
 Alpha  occ. eigenvalues --   -0.59189  -0.58608  -0.58467  -0.58020  -0.57928
 Alpha  occ. eigenvalues --   -0.57693  -0.57099  -0.56886  -0.56693  -0.56056
 Alpha  occ. eigenvalues --   -0.55667  -0.55532  -0.55149  -0.55012  -0.54732
 Alpha  occ. eigenvalues --   -0.54242  -0.54010  -0.53739  -0.53386  -0.53212
 Alpha  occ. eigenvalues --   -0.52791  -0.52686  -0.52637  -0.52374  -0.51229
 Alpha  occ. eigenvalues --   -0.51113  -0.50965  -0.50572  -0.50346  -0.49844
 Alpha  occ. eigenvalues --   -0.49744  -0.49604  -0.49342  -0.48841  -0.48326
 Alpha  occ. eigenvalues --   -0.48310  -0.47427  -0.47329  -0.47152  -0.46692
 Alpha  occ. eigenvalues --   -0.46583  -0.46536  -0.46203  -0.45851  -0.45652
 Alpha  occ. eigenvalues --   -0.45549  -0.45178  -0.44943  -0.44849  -0.44719
 Alpha  occ. eigenvalues --   -0.44463  -0.44334  -0.44281  -0.43978  -0.43876
 Alpha  occ. eigenvalues --   -0.43839  -0.43576  -0.43468  -0.43313  -0.43148
 Alpha  occ. eigenvalues --   -0.42977  -0.42879  -0.42850  -0.42566  -0.42417
 Alpha  occ. eigenvalues --   -0.42372  -0.42154  -0.42135  -0.41712  -0.41517
 Alpha  occ. eigenvalues --   -0.41058  -0.41005  -0.40904  -0.40684  -0.40633
 Alpha  occ. eigenvalues --   -0.40562  -0.40483  -0.40303  -0.40044  -0.39901
 Alpha  occ. eigenvalues --   -0.39840  -0.39692  -0.39597  -0.39537  -0.39334
 Alpha  occ. eigenvalues --   -0.39118  -0.39092  -0.38955  -0.38908  -0.38652
 Alpha  occ. eigenvalues --   -0.38425  -0.38408  -0.38174  -0.37825  -0.37780
 Alpha  occ. eigenvalues --   -0.37683  -0.37668  -0.37389  -0.37353  -0.37101
 Alpha  occ. eigenvalues --   -0.36924  -0.36884  -0.36677  -0.36568  -0.36489
 Alpha  occ. eigenvalues --   -0.36268  -0.36102  -0.36010  -0.35982  -0.35604
 Alpha  occ. eigenvalues --   -0.35556  -0.35365  -0.35285  -0.35264  -0.35183
 Alpha  occ. eigenvalues --   -0.34547  -0.34477  -0.34281  -0.34136  -0.34108
 Alpha  occ. eigenvalues --   -0.33702  -0.33618  -0.33322  -0.33075  -0.33049
 Alpha  occ. eigenvalues --   -0.32826  -0.32362  -0.32146  -0.32056  -0.31858
 Alpha  occ. eigenvalues --   -0.31502  -0.31260  -0.30791  -0.30748  -0.30700
 Alpha  occ. eigenvalues --   -0.30408  -0.30361  -0.30217  -0.29252  -0.28909
 Alpha  occ. eigenvalues --   -0.28705  -0.28418  -0.28383  -0.27600  -0.27213
 Alpha  occ. eigenvalues --   -0.26986  -0.26845  -0.26466  -0.26277  -0.26000
 Alpha  occ. eigenvalues --   -0.25551  -0.25185  -0.24966  -0.24648  -0.23992
 Alpha  occ. eigenvalues --   -0.23934  -0.23716  -0.23562  -0.23309  -0.23112
 Alpha  occ. eigenvalues --   -0.23056  -0.22852  -0.22737  -0.22506  -0.21987
 Alpha  occ. eigenvalues --   -0.21629  -0.21505  -0.21256  -0.21171  -0.20878
 Alpha  occ. eigenvalues --   -0.20543  -0.20371  -0.19522  -0.17444  -0.16676
 Alpha  occ. eigenvalues --   -0.14024  -0.13573  -0.11272
 Alpha virt. eigenvalues --   -0.10337  -0.04372  -0.03416  -0.03098  -0.01933
 Alpha virt. eigenvalues --   -0.01827  -0.01432  -0.01169  -0.00399  -0.00290
 Alpha virt. eigenvalues --    0.00451   0.01590   0.02001   0.02148   0.02259

 Mulliken charges:
               1
     1  C    0.063418
     2  C    0.037013
     3  O   -0.284743
     4  H    0.020669
     5  H   -0.015040
     6  H    0.054548
     7  N   -0.158866
     8  C    0.084427
     9  C    0.040538
    10  O   -0.232692
    11  C    0.047100
    12  C    0.083651
    13  O   -0.382098
    14  O   -0.345939
    15  H    0.119508
    16  H   -0.008724
    17  H   -0.013884
    18  H    0.017591
    19  N   -0.145050
    20  C    0.117493
    21  C    0.072232
    22  O   -0.294444
    23  C    0.054188
    24  C    0.009608
    25  C   -0.058535
    26  C    0.043099
    27  N    0.136726
    28  H    0.107197
    29  H    0.021067
    30  H    0.018113
    31  H    0.017001
    32  H    0.001800
    33  H    0.005569
    34  H    0.027805
    35  H    0.014190
    36  H    0.075527
    37  H    0.068094
    38  H    0.136078
    39  H    0.152816
    40  H    0.132260
    41  N   -0.108806
    42  C    0.138324
    43  C    0.051730
    44  O   -0.275123
    45  C    0.129877
    46  C    0.080753
    47  O   -0.412326
    48  O   -0.472515
    49  H    0.132509
    50  H   -0.014656
    51  H    0.006996
    52  H    0.011383
    53  N   -0.094296
    54  C    0.198280
    55  C    0.099955
    56  O   -0.339989
    57  H    0.125653
    58  H    0.032395
    59  H    0.066686
    60  N   -0.154311
    61  C    0.057815
    62  C    0.093188
    63  O   -0.301881
    64  C    0.116946
    65  C   -0.020740
    66  N   -0.080747
    67  O   -0.220291
    68  H    0.147363
    69  H    0.037486
    70  H    0.015212
    71  H    0.034867
    72  H    0.128653
    73  H    0.152751
    74  N   -0.113718
    75  C    0.197327
    76  C    0.054583
    77  O   -0.260378
    78  H    0.110804
    79  H    0.003838
    80  H    0.046428
    81  N   -0.121514
    82  C    0.123694
    83  C    0.079560
    84  O   -0.293872
    85  C    0.117970
    86  C   -0.013681
    87  C   -0.013760
    88  C   -0.011221
    89  C   -0.006718
    90  C   -0.029653
    91  C    0.124205
    92  O   -0.199319
    93  H    0.128968
    94  H    0.009582
    95  H    0.010174
    96  H    0.016725
    97  H   -0.022952
    98  H   -0.032929
    99  H   -0.022902
   100  H   -0.045846
   101  H    0.171413
   102  N   -0.129349
   103  C    0.235463
   104  C    0.049021
   105  O   -0.277617
   106  C   -0.066407
   107  C   -0.058861
   108  C    0.106905
   109  C    0.034420
   110  H    0.133064
   111  H   -0.045596
   112  H   -0.012938
   113  H    0.006614
   114  H    0.002872
   115  H    0.000353
   116  H   -0.035037
   117  H    0.038000
   118  H    0.016420
   119  H    0.019265
   120  H   -0.006662
   121  N   -0.135842
   122  C    0.078835
   123  C    0.069253
   124  O   -0.264265
   125  C    0.255985
   126  O   -0.331836
   127  H    0.142713
   128  H    0.015212
   129  H    0.008608
   130  H   -0.006125
   131  H    0.179421
   132  N   -0.131944
   133  C    0.063697
   134  C    0.052352
   135  O   -0.282712
   136  C    0.074638
   137  H    0.127750
   138  H    0.017154
   139  H    0.027763
   140  H    0.019813
   141  H   -0.023940
   142  N   -0.112296
   143  C    0.099316
   144  C    0.065510
   145  O   -0.265244
   146  C    0.081817
   147  H    0.129434
   148  H    0.000943
   149  H   -0.038564
   150  H    0.034326
   151  H    0.024300
   152  N   -0.131394
   153  C    0.086399
   154  C    0.068756
   155  O   -0.271263
   156  C    0.083554
   157  C    0.057163
   158  C    0.063514
   159  O   -0.469289
   160  O   -0.399143
   161  H    0.121480
   162  H   -0.000554
   163  H    0.012260
   164  H   -0.011241
   165  H   -0.005415
   166  H    0.037442
   167  N   -0.149152
   168  C    0.126184
   169  H    0.014954
   170  H    0.052001
   171  H    0.008960
   172  H    0.102413
   173  Ca   1.339239
   174  O   -0.278161
   175  H    0.182259
   176  H    0.163769
 Sum of Mulliken charges =  -0.00000

 Dipole moment (field-independent basis, Debye):
    X=            -28.6526    Y=             -3.6965    Z=              1.7196  Tot=             28.9412
 Quadrupole moment (field-independent basis, Debye-Ang):
   XX=            118.8872   YY=           -646.1453   ZZ=           -479.5377
   XY=            248.3146   XZ=            117.2008   YZ=             43.4458

 ESP charges:
               1
     1  C   -0.434819
     2  C    0.846821
     3  O   -0.627217
     4  H    0.113532
     5  H    0.068524
     6  H    0.132312
     7  N   -0.823584
     8  C    0.450742
     9  C    0.297051
    10  O   -0.444790
    11  C   -0.371137
    12  C    0.730852
    13  O   -0.672115
    14  O   -0.657120
    15  H    0.378842
    16  H   -0.013132
    17  H    0.098837
    18  H    0.092976
    19  N   -0.357122
    20  C    0.063786
    21  C    0.531045
    22  O   -0.552927
    23  C   -0.348020
    24  C    0.237141
    25  C    0.066088
    26  C   -0.037488
    27  N   -0.157394
    28  H    0.223909
    29  H    0.086628
    30  H    0.109906
    31  H    0.109904
    32  H   -0.038551
    33  H   -0.020359
    34  H    0.002421
    35  H   -0.023292
    36  H    0.069878
    37  H    0.081363
    38  H    0.252657
    39  H    0.218542
    40  H    0.230111
    41  N   -0.384297
    42  C    0.010519
    43  C    0.629802
    44  O   -0.504769
    45  C   -0.305461
    46  C    0.857239
    47  O   -0.771372
    48  O   -0.792497
    49  H    0.319451
    50  H    0.075492
    51  H    0.081135
    52  H    0.104089
    53  N   -0.527191
    54  C    0.087757
    55  C    0.654085
    56  O   -0.569725
    57  H    0.298956
    58  H    0.056653
    59  H    0.064866
    60  N   -0.802097
    61  C    0.448016
    62  C    0.323138
    63  O   -0.445959
    64  C   -0.169333
    65  C    0.696114
    66  N   -0.847393
    67  O   -0.542543
    68  H    0.379934
    69  H   -0.011971
    70  H   -0.004146
    71  H    0.098365
    72  H    0.270121
    73  H    0.444323
    74  N   -0.304609
    75  C   -0.108329
    76  C    0.560103
    77  O   -0.502215
    78  H    0.256055
    79  H    0.076504
    80  H    0.123315
    81  N   -0.657056
    82  C    0.335056
    83  C    0.394291
    84  O   -0.501321
    85  C   -0.277853
    86  C    0.157586
    87  C   -0.241826
    88  C   -0.140359
    89  C   -0.214636
    90  C   -0.323088
    91  C    0.360027
    92  O   -0.549319
    93  H    0.353162
    94  H    0.031475
    95  H    0.104923
    96  H    0.076873
    97  H    0.163274
    98  H    0.134537
    99  H    0.158882
   100  H    0.141424
   101  H    0.409511
   102  N   -0.397985
   103  C   -0.330085
   104  C    0.593881
   105  O   -0.527922
   106  C    0.135164
   107  C    0.375479
   108  C   -0.510111
   109  C   -0.372136
   110  H    0.263902
   111  H    0.184061
   112  H    0.039672
   113  H    0.010611
   114  H   -0.070456
   115  H    0.124815
   116  H    0.142571
   117  H    0.134121
   118  H    0.093448
   119  H    0.084699
   120  H    0.046488
   121  N   -0.127810
   122  C   -0.287067
   123  C    0.613614
   124  O   -0.544894
   125  C    0.246215
   126  O   -0.649601
   127  H    0.224217
   128  H    0.120642
   129  H    0.025519
   130  H    0.020022
   131  H    0.433495
   132  N   -0.242526
   133  C    0.200989
   134  C    0.517688
   135  O   -0.548810
   136  C   -0.283486
   137  H    0.146545
   138  H    0.040085
   139  H    0.097696
   140  H    0.077631
   141  H    0.040382
   142  N   -0.639530
   143  C    0.668686
   144  C    0.509175
   145  O   -0.505595
   146  C   -0.337683
   147  H    0.175831
   148  H   -0.073323
   149  H    0.011948
   150  H    0.127182
   151  H    0.071568
   152  N   -0.744110
   153  C    0.315249
   154  C    0.351930
   155  O   -0.437239
   156  C    0.044128
   157  C   -0.309114
   158  C    0.772176
   159  O   -0.809607
   160  O   -0.698947
   161  H    0.345633
   162  H    0.002676
   163  H    0.011931
   164  H    0.025908
   165  H    0.111204
   166  H    0.055468
   167  N   -0.363002
   168  C   -0.034735
   169  H    0.039394
   170  H    0.087435
   171  H    0.056645
   172  H    0.264236
   173  Ca   1.614335
   174  O   -0.848400
   175  H    0.439192
   176  H    0.406101
 Sum of ESP charges =  -0.00000

 Normal termination of Gaussian 16 at Tue Sep 17 23:52:20 2019.
