 Gaussian 16, Revision A.03,
 Gaussian 16:  ES64L-G16RevA.03 25-Dec-2016

 ----------------------------------------------------------------------
 #b3lyp/svp scf=(tight,noincore) Test #IOP(5/87=12) Density=Current Pop
 =(MK,readradii) iop(6/33=2) iop(6/42=6)
 ----------------------------------------------------------------------

 ----------------
 Ng-31_loop3_23.0
 ----------------
 Symbolic Z-matrix:
 Charge =  0 Multiplicity = 1

                         Standard orientation:
 ---------------------------------------------------------------------
 Center     Atomic      Atomic             Coordinates (Angstroms)
 Number     Number       Type             X           Y           Z
 ---------------------------------------------------------------------
      1          6           0        7.399995   -1.661390    4.983399
      2          6           0        6.360203   -1.171412    3.992665
      3          8           0        5.191406   -1.554540    4.037664
      4          1           0        6.943845   -2.383838    5.660127
      5          1           0        8.220291   -2.136446    4.444986
      6          1           0        7.782172   -0.817233    5.557796
      7          7           0        6.689178   -0.258895    3.070771
      8          6           0        5.927859    0.368779    2.005257
      9          6           0        5.609047   -0.527551    0.824431
     10          8           0        4.623626   -0.171604    0.182523
     11          6           0        6.586082    1.655607    1.512999
     12          6           0        8.086803    1.571166    1.334936
     13          8           0        8.655966    0.457567    1.414623
     14          8           0        8.745987    2.625667    1.200761
     15          1           0        7.683696   -0.088474    3.034848
     16          1           0        5.005744    0.677048    2.486167
     17          1           0        6.526703    2.453107    2.249523
     18          1           0        6.136695    2.006855    0.575888
     19          7           0        6.251406   -1.699805    0.703613
     20          6           0        5.869767   -2.824007   -0.115790
     21          6           0        5.909238   -2.491020   -1.602249
     22          8           0        6.836894   -2.012136   -2.248565
     23          6           0        6.798702   -4.015553    0.142473
     24          6           0        6.602515   -4.598008    1.543457
     25          6           0        6.987560   -6.068772    1.726747
     26          6           0        6.736600   -6.662390    3.114492
     27          7           0        5.400535   -6.460625    3.705863
     28          1           0        7.180334   -1.736966    1.098976
     29          1           0        4.834929   -3.043084    0.143083
     30          1           0        7.855969   -3.761884    0.056228
     31          1           0        6.656908   -4.790173   -0.604359
     32          1           0        5.558707   -4.513971    1.825593
     33          1           0        7.241616   -4.027871    2.210461
     34          1           0        7.994473   -6.383942    1.467336
     35          1           0        6.407806   -6.699837    1.046863
     36          1           0        7.501218   -6.302665    3.794608
     37          1           0        7.048009   -7.712471    3.126890
     38          1           0        4.693983   -6.913358    3.150959
     39          1           0        5.269375   -6.905594    4.608582
     40          1           0        5.218187   -5.471821    3.755015
     41          7           0        4.734961   -2.742410   -2.166852
     42          6           0        4.439170   -2.472287   -3.565295
     43          6           0        3.799100   -1.112271   -3.770881
     44          8           0        3.540322   -0.626507   -4.869775
     45          6           0        3.720946   -3.631828   -4.238882
     46          6           0        2.433605   -4.151978   -3.610555
     47          8           0        1.402856   -4.268104   -4.308962
     48          8           0        2.339232   -4.317308   -2.378216
     49          1           0        4.012986   -3.226854   -1.656788
     50          1           0        5.420297   -2.331622   -4.026817
     51          1           0        4.490797   -4.396928   -4.324039
     52          1           0        3.505000   -3.421258   -5.290513
     53          7           0        3.636197   -0.318680   -2.700939
     54          6           0        2.993103    0.971648   -2.691737
     55          6           0        3.874211    2.061609   -3.275458
     56          8           0        5.023157    1.750293   -3.581901
     57          1           0        3.964215   -0.596741   -1.784159
     58          1           0        2.772607    1.353344   -1.693394
     59          1           0        2.061585    0.891184   -3.249143
     60          7           0        3.413209    3.314468   -3.391311
     61          6           0        2.192696    4.034389   -3.080405
     62          6           0        2.471617    5.445070   -2.598759
     63          8           0        2.553151    6.357510   -3.425926
     64          6           0        1.208847    4.022416   -4.249506
     65          6           0        0.568181    2.665815   -4.526418
     66          7           0       -0.040143    2.025565   -3.524309
     67          8           0        0.434269    2.296073   -5.692548
     68          1           0        4.123623    3.934147   -3.763615
     69          1           0        1.666648    3.577564   -2.248550
     70          1           0        1.808176    4.301374   -5.121278
     71          1           0        0.397745    4.727802   -4.064187
     72          1           0        0.067375    2.493548   -2.633955
     73          1           0       -0.497958    1.127572   -3.645194
     74          7           0        2.697663    5.715531   -1.307111
     75          6           0        2.882064    4.727210   -0.269894
     76          6           0        1.733286    4.105893    0.504944
     77          8           0        1.793016    2.914812    0.808850
     78          1           0        2.895122    6.672488   -1.057626
     79          1           0        3.506308    5.189647    0.496508
     80          1           0        3.452358    3.854312   -0.609327
     81          7           0        0.666498    4.862720    0.798330
     82          6           0       -0.552330    4.157915    1.125147
     83          6           0       -1.104453    3.273701    0.023183
     84          8           0       -0.683173    3.305069   -1.134417
     85          6           0       -1.631762    5.197285    1.429017
     86          6           0       -1.289438    6.031155    2.633207
     87          6           0       -0.672394    5.549617    3.802301
     88          6           0       -1.426978    7.412586    2.475632
     89          6           0       -0.338964    6.484122    4.792263
     90          6           0       -1.185942    8.356393    3.485003
     91          6           0       -0.568899    7.874856    4.654096
     92          8           0       -0.239890    8.723084    5.674666
     93          1           0        0.696127    5.841287    0.568266
     94          1           0       -0.285479    3.511955    1.963136
     95          1           0       -2.574716    4.675878    1.600403
     96          1           0       -1.795643    5.860327    0.588709
     97          1           0       -0.466904    4.507135    3.997246
     98          1           0       -1.708067    7.848265    1.526383
     99          1           0        0.110618    6.262006    5.740546
    100          1           0       -1.391433    9.398876    3.290058
    101          1           0       -0.430709    9.580808    5.287759
    102          7           0       -2.079103    2.429758    0.378596
    103          6           0       -2.307355    1.158114   -0.278839
    104          6           0       -3.641151    1.084256   -1.012959
    105          8           0       -3.770896    0.150127   -1.796011
    106          6           0       -2.132403   -0.013249    0.672319
    107          6           0       -0.748417    0.010337    1.324258
    108          6           0       -3.222993   -0.048857    1.747421
    109          6           0        0.453475   -0.107703    0.394084
    110          1           0       -2.490380    2.568260    1.291158
    111          1           0       -1.586757    0.952214   -1.062257
    112          1           0       -2.217203   -0.947151    0.118570
    113          1           0       -0.687398   -0.768547    2.091080
    114          1           0       -0.711813    0.938319    1.893564
    115          1           0       -3.117808   -0.946683    2.348707
    116          1           0       -3.047501    0.778527    2.438752
    117          1           0       -4.225960   -0.033056    1.313822
    118          1           0        1.383627    0.059892    0.928994
    119          1           0        0.355704   -1.106736   -0.051084
    120          1           0        0.336241    0.652782   -0.373912
    121          7           0       -4.533010    2.054928   -0.777622
    122          6           0       -5.902715    2.182018   -1.238008
    123          6           0       -6.925888    1.281331   -0.566011
    124          8           0       -6.762290    0.854963    0.582007
    125          6           0       -6.310950    3.615300   -0.916068
    126          8           0       -5.417685    4.446993   -1.611814
    127          1           0       -4.272914    2.796534   -0.152505
    128          1           0       -6.039769    2.054929   -2.308692
    129          1           0       -6.178490    3.844281    0.140588
    130          1           0       -7.350639    3.855753   -1.152987
    131          1           0       -5.570431    5.352598   -1.335503
    132          7           0       -7.998246    1.001201   -1.301454
    133          6           0       -9.056492    0.051616   -0.994530
    134          6           0       -8.575357   -1.387426   -1.054264
    135          8           0       -7.590080   -1.680835   -1.725934
    136          6           0      -10.219215    0.225677   -1.965652
    137          1           0       -8.129144    1.458174   -2.195122
    138          1           0       -9.483469    0.299251   -0.018381
    139          1           0      -10.026654   -0.179836   -2.956753
    140          1           0      -10.978714   -0.470586   -1.620285
    141          1           0      -10.612215    1.247448   -1.971624
    142          7           0       -9.263875   -2.285993   -0.341017
    143          6           0       -8.906363   -3.685634   -0.209531
    144          6           0       -7.453386   -4.004499    0.120901
    145          8           0       -6.864715   -4.887607   -0.512570
    146          6           0       -9.332358   -4.372412   -1.501260
    147          1           0       -9.937684   -1.927435    0.324053
    148          1           0       -9.516712   -4.026308    0.623905
    149          1           0      -10.304096   -4.089860   -1.903739
    150          1           0       -8.597489   -4.214055   -2.288273
    151          1           0       -9.432570   -5.451097   -1.347972
    152          7           0       -6.799248   -3.431563    1.131221
    153          6           0       -5.671373   -4.065625    1.780807
    154          6           0       -5.782985   -3.896776    3.286142
    155          8           0       -5.341889   -4.780854    4.026979
    156          6           0       -4.384031   -3.545475    1.152480
    157          6           0       -3.107676   -4.041877    1.819490
    158          6           0       -1.935279   -4.225734    0.862891
    159          8           0       -1.125634   -3.273542    0.834518
    160          8           0       -1.595825   -5.250248    0.239159
    161          1           0       -7.320588   -2.700622    1.606858
    162          1           0       -5.793059   -5.147391    1.647862
    163          1           0       -4.391600   -2.481308    0.936164
    164          1           0       -4.444782   -3.830997    0.103630
    165          1           0       -3.315768   -4.953052    2.383634
    166          1           0       -2.856455   -3.279695    2.547066
    167          7           0       -6.285264   -2.774338    3.783385
    168          6           0       -6.367868   -2.515399    5.213604
    169          1           0       -7.146266   -3.140800    5.651440
    170          1           0       -5.410748   -2.746603    5.681610
    171          1           0       -6.609870   -1.465420    5.380187
    172          1           0       -6.726936   -2.144134    3.130570
    173         20           0        0.823020   -4.378704   -0.331668
    174          8           0       -0.167549   -2.502031   -1.902106
    175          1           0        0.111048   -2.178806   -2.760773
    176          1           0       -1.089349   -2.276461   -1.843761
 ---------------------------------------------------------------------

 SCF Done:  E(RB3LYP) =  -5333.34656425     A.U. after   32 cycles

 The electronic state is 1-A.
 Alpha  occ. eigenvalues -- -145.46867 -19.18155 -19.15905 -19.15530 -19.12174
 Alpha  occ. eigenvalues --  -19.11730 -19.11163 -19.10464 -19.10024 -19.09440
 Alpha  occ. eigenvalues --  -19.09342 -19.08931 -19.08696 -19.08561 -19.08525
 Alpha  occ. eigenvalues --  -19.07601 -19.07444 -19.07248 -19.04247 -19.04191
 Alpha  occ. eigenvalues --  -19.03430 -19.03293 -18.99155 -18.97953 -15.52781
 Alpha  occ. eigenvalues --  -14.59181 -14.38075 -14.37886 -14.37525 -14.37350
 Alpha  occ. eigenvalues --  -14.36636 -14.36498 -14.36275 -14.36031 -14.34542
 Alpha  occ. eigenvalues --  -14.32918 -14.32227 -14.31375 -14.30481 -14.29269
 Alpha  occ. eigenvalues --  -12.66397 -12.66370 -12.66265 -10.35840 -10.30578
 Alpha  occ. eigenvalues --  -10.30299 -10.29946 -10.28827 -10.28776 -10.28775
 Alpha  occ. eigenvalues --  -10.28736 -10.28254 -10.27853 -10.27653 -10.26789
 Alpha  occ. eigenvalues --  -10.26764 -10.26740 -10.26553 -10.26308 -10.26173
 Alpha  occ. eigenvalues --  -10.25940 -10.25580 -10.25411 -10.25380 -10.24806
 Alpha  occ. eigenvalues --  -10.24522 -10.23992 -10.23797 -10.23727 -10.23604
 Alpha  occ. eigenvalues --  -10.23203 -10.23144 -10.23120 -10.22656 -10.22502
 Alpha  occ. eigenvalues --  -10.22089 -10.22016 -10.21623 -10.21362 -10.21070
 Alpha  occ. eigenvalues --  -10.20975 -10.20465 -10.19839 -10.19778 -10.19675
 Alpha  occ. eigenvalues --  -10.18583 -10.18223 -10.18110 -10.18060 -10.18032
 Alpha  occ. eigenvalues --  -10.17894 -10.17704 -10.16745 -10.16125 -10.15672
 Alpha  occ. eigenvalues --  -10.15584 -10.13157  -1.89485  -1.17024  -1.16850
 Alpha  occ. eigenvalues --   -1.16198  -1.14350  -1.07091  -1.05281  -1.05040
 Alpha  occ. eigenvalues --   -1.04519  -1.04448  -1.03774  -1.03450  -1.03253
 Alpha  occ. eigenvalues --   -1.02492  -1.02092  -1.01884  -1.01728  -1.01656
 Alpha  occ. eigenvalues --   -1.00638  -1.00325  -1.00077  -0.97866  -0.97057
 Alpha  occ. eigenvalues --   -0.96361  -0.94756  -0.94722  -0.94391  -0.93741
 Alpha  occ. eigenvalues --   -0.93724  -0.93358  -0.92830  -0.92779  -0.92244
 Alpha  occ. eigenvalues --   -0.91957  -0.91877  -0.90163  -0.89755  -0.89005
 Alpha  occ. eigenvalues --   -0.88886  -0.88452  -0.86940  -0.85547  -0.85169
 Alpha  occ. eigenvalues --   -0.83233  -0.82930  -0.82392  -0.81917  -0.80400
 Alpha  occ. eigenvalues --   -0.79770  -0.78478  -0.77840  -0.76967  -0.76302
 Alpha  occ. eigenvalues --   -0.75654  -0.75351  -0.75290  -0.74871  -0.74260
 Alpha  occ. eigenvalues --   -0.74233  -0.73301  -0.72238  -0.72179  -0.71379
 Alpha  occ. eigenvalues --   -0.70804  -0.70695  -0.70194  -0.69052  -0.68755
 Alpha  occ. eigenvalues --   -0.67676  -0.67099  -0.66482  -0.65645  -0.65296
 Alpha  occ. eigenvalues --   -0.63829  -0.63802  -0.63513  -0.62684  -0.62583
 Alpha  occ. eigenvalues --   -0.62191  -0.61670  -0.61652  -0.61287  -0.60803
 Alpha  occ. eigenvalues --   -0.60566  -0.60450  -0.60270  -0.59445  -0.58953
 Alpha  occ. eigenvalues --   -0.58606  -0.57670  -0.57470  -0.57076  -0.56540
 Alpha  occ. eigenvalues --   -0.56331  -0.56251  -0.55576  -0.55503  -0.55361
 Alpha  occ. eigenvalues --   -0.55014  -0.54956  -0.54783  -0.53763  -0.53679
 Alpha  occ. eigenvalues --   -0.53276  -0.52800  -0.52682  -0.52210  -0.52072
 Alpha  occ. eigenvalues --   -0.51427  -0.51268  -0.51212  -0.50928  -0.50874
 Alpha  occ. eigenvalues --   -0.50550  -0.50226  -0.50115  -0.49813  -0.49660
 Alpha  occ. eigenvalues --   -0.49489  -0.49085  -0.48802  -0.48663  -0.48326
 Alpha  occ. eigenvalues --   -0.48082  -0.47847  -0.47088  -0.46860  -0.46675
 Alpha  occ. eigenvalues --   -0.46658  -0.46372  -0.46283  -0.46078  -0.46006
 Alpha  occ. eigenvalues --   -0.45746  -0.45446  -0.45301  -0.45053  -0.44853
 Alpha  occ. eigenvalues --   -0.44665  -0.44413  -0.44249  -0.44184  -0.44125
 Alpha  occ. eigenvalues --   -0.43747  -0.43712  -0.43532  -0.43407  -0.43369
 Alpha  occ. eigenvalues --   -0.43197  -0.43054  -0.42880  -0.42756  -0.42647
 Alpha  occ. eigenvalues --   -0.42572  -0.42456  -0.42376  -0.42220  -0.42000
 Alpha  occ. eigenvalues --   -0.41909  -0.41866  -0.41758  -0.41576  -0.41296
 Alpha  occ. eigenvalues --   -0.41197  -0.41077  -0.40927  -0.40851  -0.40636
 Alpha  occ. eigenvalues --   -0.40536  -0.40405  -0.40372  -0.40329  -0.40056
 Alpha  occ. eigenvalues --   -0.39965  -0.39755  -0.39472  -0.39308  -0.39187
 Alpha  occ. eigenvalues --   -0.39115  -0.38895  -0.38693  -0.38642  -0.38509
 Alpha  occ. eigenvalues --   -0.38274  -0.38146  -0.38022  -0.37829  -0.37820
 Alpha  occ. eigenvalues --   -0.37383  -0.37150  -0.36915  -0.36838  -0.36835
 Alpha  occ. eigenvalues --   -0.36644  -0.36405  -0.36349  -0.36154  -0.36083
 Alpha  occ. eigenvalues --   -0.35902  -0.35643  -0.35477  -0.35374  -0.35055
 Alpha  occ. eigenvalues --   -0.34965  -0.34796  -0.34708  -0.34382  -0.34128
 Alpha  occ. eigenvalues --   -0.33934  -0.33783  -0.33359  -0.33137  -0.32615
 Alpha  occ. eigenvalues --   -0.32388  -0.32181  -0.31693  -0.31370  -0.31342
 Alpha  occ. eigenvalues --   -0.30418  -0.30411  -0.29714  -0.29449  -0.28883
 Alpha  occ. eigenvalues --   -0.28776  -0.28697  -0.28556  -0.28053  -0.27999
 Alpha  occ. eigenvalues --   -0.27835  -0.27633  -0.27616  -0.26975  -0.26827
 Alpha  occ. eigenvalues --   -0.26675  -0.26476  -0.26350  -0.26241  -0.25774
 Alpha  occ. eigenvalues --   -0.25154  -0.24874  -0.24836  -0.24537  -0.24375
 Alpha  occ. eigenvalues --   -0.24195  -0.24186  -0.24126  -0.23800  -0.23445
 Alpha  occ. eigenvalues --   -0.22985  -0.22730  -0.22498  -0.22159  -0.21897
 Alpha  occ. eigenvalues --   -0.20691  -0.19872  -0.19726  -0.19119  -0.18792
 Alpha  occ. eigenvalues --   -0.16144  -0.15932  -0.13329
 Alpha virt. eigenvalues --   -0.12183  -0.10613  -0.05539  -0.04099  -0.03871
 Alpha virt. eigenvalues --   -0.02262  -0.02195  -0.01488  -0.00932  -0.00836
 Alpha virt. eigenvalues --   -0.00391   0.00195   0.00380   0.00981   0.01051

 Mulliken charges:
               1
     1  C    0.061921
     2  C   -0.033675
     3  O   -0.333204
     4  H   -0.014293
     5  H    0.019588
     6  H    0.049859
     7  N   -0.123264
     8  C    0.148278
     9  C    0.118571
    10  O   -0.291517
    11  C    0.032863
    12  C    0.044714
    13  O   -0.397701
    14  O   -0.336078
    15  H    0.109106
    16  H    0.009284
    17  H   -0.006067
    18  H    0.040672
    19  N   -0.117119
    20  C    0.123387
    21  C    0.093504
    22  O   -0.240573
    23  C    0.025260
    24  C    0.038405
    25  C   -0.008130
    26  C    0.008359
    27  N    0.097029
    28  H    0.125128
    29  H   -0.057319
    30  H    0.048330
    31  H    0.009666
    32  H   -0.045948
    33  H    0.034061
    34  H    0.049610
    35  H    0.012689
    36  H    0.067194
    37  H    0.063839
    38  H    0.149019
    39  H    0.176559
    40  H    0.192969
    41  N   -0.170690
    42  C    0.114035
    43  C    0.052080
    44  O   -0.265418
    45  C    0.093961
    46  C    0.111783
    47  O   -0.324160
    48  O   -0.514830
    49  H    0.078567
    50  H    0.041764
    51  H   -0.013630
    52  H    0.027790
    53  N   -0.131568
    54  C    0.155526
    55  C    0.025008
    56  O   -0.241252
    57  H    0.111601
    58  H    0.033363
    59  H    0.009955
    60  N   -0.120545
    61  C    0.018171
    62  C    0.044156
    63  O   -0.262983
    64  C    0.175537
    65  C   -0.029485
    66  N   -0.078123
    67  O   -0.249299
    68  H    0.128457
    69  H   -0.001372
    70  H    0.017257
    71  H    0.018214
    72  H    0.131531
    73  H    0.133809
    74  N   -0.101147
    75  C    0.158492
    76  C    0.045417
    77  O   -0.270199
    78  H    0.123159
    79  H    0.039180
    80  H    0.058708
    81  N   -0.118344
    82  C    0.060974
    83  C    0.123429
    84  O   -0.267607
    85  C    0.149958
    86  C   -0.001570
    87  C    0.016925
    88  C   -0.045151
    89  C    0.002951
    90  C   -0.054299
    91  C    0.132164
    92  O   -0.177100
    93  H    0.110356
    94  H    0.039533
    95  H   -0.007870
    96  H    0.001348
    97  H   -0.019243
    98  H   -0.028232
    99  H   -0.018825
   100  H   -0.033240
   101  H    0.171752
   102  N   -0.150553
   103  C    0.128512
   104  C    0.084627
   105  O   -0.262779
   106  C   -0.108322
   107  C    0.034057
   108  C    0.040777
   109  C    0.026314
   110  H    0.123256
   111  H    0.013827
   112  H    0.003341
   113  H   -0.015376
   114  H   -0.043943
   115  H    0.000569
   116  H   -0.035139
   117  H    0.048791
   118  H    0.037899
   119  H   -0.018727
   120  H    0.006505
   121  N   -0.081782
   122  C    0.088458
   123  C    0.098362
   124  O   -0.292282
   125  C    0.202560
   126  O   -0.291976
   127  H    0.103164
   128  H    0.023120
   129  H   -0.015711
   130  H   -0.003602
   131  H    0.163050
   132  N   -0.098721
   133  C    0.051496
   134  C    0.070186
   135  O   -0.240595
   136  C    0.057423
   137  H    0.122601
   138  H   -0.003915
   139  H    0.028799
   140  H    0.002066
   141  H    0.038060
   142  N   -0.136311
   143  C    0.054530
   144  C    0.092639
   145  O   -0.264727
   146  C    0.086685
   147  H    0.113195
   148  H    0.003805
   149  H   -0.013059
   150  H    0.051170
   151  H    0.011431
   152  N   -0.127874
   153  C    0.122657
   154  C    0.016885
   155  O   -0.282996
   156  C    0.041740
   157  C    0.139884
   158  C    0.109323
   159  O   -0.471741
   160  O   -0.419906
   161  H    0.089398
   162  H    0.032476
   163  H   -0.011524
   164  H    0.027893
   165  H    0.014412
   166  H   -0.003483
   167  N   -0.149636
   168  C    0.141475
   169  H    0.026892
   170  H    0.040512
   171  H    0.017451
   172  H    0.108170
   173  Ca   1.349382
   174  O   -0.293481
   175  H    0.200835
   176  H    0.191796
 Sum of Mulliken charges =  -0.00000

 Dipole moment (field-independent basis, Debye):
    X=            -18.7987    Y=            -16.9738    Z=             31.4388  Tot=             40.3720
 Quadrupole moment (field-independent basis, Debye-Ang):
   XX=           -534.3018   YY=           -352.9147   ZZ=           -630.6993
   XY=           -260.1120   XZ=             91.3561   YZ=            -80.4799

 ESP charges:
               1
     1  C   -0.433376
     2  C    0.654063
     3  O   -0.646303
     4  H    0.098237
     5  H    0.096813
     6  H    0.134833
     7  N   -0.364022
     8  C   -0.039995
     9  C    0.803413
    10  O   -0.633065
    11  C   -0.378508
    12  C    0.812401
    13  O   -0.719397
    14  O   -0.657928
    15  H    0.236192
    16  H    0.122252
    17  H    0.087008
    18  H    0.120589
    19  N   -0.637713
    20  C   -0.024384
    21  C    0.646494
    22  O   -0.523226
    23  C   -0.267941
    24  C    0.116367
    25  C   -0.043490
    26  C    0.003147
    27  N   -0.302002
    28  H    0.362724
    29  H    0.100508
    30  H    0.137677
    31  H    0.079083
    32  H   -0.026516
    33  H    0.008085
    34  H    0.080801
    35  H    0.017368
    36  H    0.084290
    37  H    0.082876
    38  H    0.278636
    39  H    0.318229
    40  H    0.285562
    41  N   -0.491599
    42  C    0.143334
    43  C    0.576490
    44  O   -0.553410
    45  C   -0.314282
    46  C    0.796396
    47  O   -0.634284
    48  O   -0.859737
    49  H    0.205313
    50  H    0.088637
    51  H    0.083313
    52  H    0.086943
    53  N   -0.416305
    54  C   -0.007695
    55  C    0.723475
    56  O   -0.538635
    57  H    0.261285
    58  H    0.122760
    59  H    0.017485
    60  N   -0.797301
    61  C    0.827141
    62  C    0.376484
    63  O   -0.519512
    64  C   -0.630515
    65  C    0.866131
    66  N   -0.926669
    67  O   -0.582210
    68  H    0.331762
    69  H   -0.260361
    70  H    0.140321
    71  H    0.151790
    72  H    0.457394
    73  H    0.394176
    74  N   -0.470734
    75  C    0.081324
    76  C    0.468687
    77  O   -0.488341
    78  H    0.320267
    79  H    0.071061
    80  H    0.025977
    81  N   -0.537494
    82  C    0.324110
    83  C    0.618155
    84  O   -0.539739
    85  C   -0.522610
    86  C    0.137739
    87  C   -0.195690
    88  C   -0.088594
    89  C   -0.231350
    90  C   -0.370984
    91  C    0.366002
    92  O   -0.513876
    93  H    0.303675
    94  H    0.077871
    95  H    0.153130
    96  H    0.151068
    97  H    0.150619
    98  H    0.120737
    99  H    0.165442
   100  H    0.168036
   101  H    0.395171
   102  N   -0.578512
   103  C   -0.216097
   104  C    0.767604
   105  O   -0.589344
   106  C    0.318100
   107  C    0.432979
   108  C   -0.551213
   109  C   -0.439949
   110  H    0.291997
   111  H    0.096630
   112  H   -0.020429
   113  H   -0.079115
   114  H   -0.149901
   115  H    0.114219
   116  H    0.095935
   117  H    0.144013
   118  H    0.111662
   119  H    0.084561
   120  H    0.044735
   121  N   -0.449686
   122  C    0.016545
   123  C    0.584373
   124  O   -0.561515
   125  C    0.231302
   126  O   -0.610187
   127  H    0.276393
   128  H    0.104824
   129  H   -0.006532
   130  H    0.007484
   131  H    0.400708
   132  N   -0.644801
   133  C    0.334868
   134  C    0.485798
   135  O   -0.463722
   136  C   -0.323742
   137  H    0.318807
   138  H    0.007285
   139  H    0.108149
   140  H    0.059519
   141  H    0.103435
   142  N   -0.488847
   143  C    0.234943
   144  C    0.451198
   145  O   -0.497216
   146  C   -0.276191
   147  H    0.262784
   148  H    0.032155
   149  H    0.072548
   150  H    0.118155
   151  H    0.059247
   152  N   -0.145168
   153  C   -0.744469
   154  C    0.740572
   155  O   -0.552371
   156  C    0.376647
   157  C   -0.357726
   158  C    0.756979
   159  O   -0.778545
   160  O   -0.747913
   161  H    0.098519
   162  H    0.267606
   163  H   -0.017065
   164  H    0.068504
   165  H    0.109840
   166  H    0.094344
   167  N   -0.382534
   168  C   -0.210132
   169  H    0.097334
   170  H    0.121366
   171  H    0.102982
   172  H    0.341130
   173  Ca   1.577409
   174  O   -0.869887
   175  H    0.462752
   176  H    0.436315
 Sum of ESP charges =   0.00000

 Normal termination of Gaussian 16 at Wed Sep 18 14:33:47 2019.
