 Gaussian 16, Revision A.03,
 Gaussian 16:  ES64L-G16RevA.03 25-Dec-2016

 ----------------------------------------------------------------------
 #b3lyp/svp scf=(tight,noincore) Test #IOP(5/87=12) Density=Current Pop
 =(MK,readradii) iop(6/33=2) iop(6/42=6)
 ----------------------------------------------------------------------

 ----------------
 Ng-31_loop3_29.0
 ----------------
 Symbolic Z-matrix:
 Charge =  0 Multiplicity = 1

                         Standard orientation:
 ---------------------------------------------------------------------
 Center     Atomic      Atomic             Coordinates (Angstroms)
 Number     Number       Type             X           Y           Z
 ---------------------------------------------------------------------
      1          6           0        8.337739   -1.091240    5.024858
      2          6           0        7.171678   -0.683171    4.136105
      3          8           0        6.147528   -0.198495    4.614755
      4          1           0        9.179983   -1.392404    4.402005
      5          1           0        8.631806   -0.247764    5.649043
      6          1           0        8.037318   -1.925538    5.658136
      7          7           0        7.348089   -0.780895    2.813710
      8          6           0        6.464548   -0.123718    1.876707
      9          6           0        5.484449   -1.125422    1.270905
     10          8           0        4.475831   -0.649060    0.742634
     11          6           0        7.211250    0.604849    0.752329
     12          6           0        8.391340   -0.041886    0.041257
     13          8           0        9.316886   -0.584929    0.688071
     14          8           0        8.397921    0.108332   -1.192352
     15          1           0        8.212430   -1.179029    2.492766
     16          1           0        5.919604    0.682078    2.367347
     17          1           0        7.591824    1.515993    1.214367
     18          1           0        6.589592    1.069391   -0.020937
     19          7           0        5.806266   -2.416309    1.255344
     20          6           0        4.986139   -3.447965    0.646100
     21          6           0        4.973739   -3.483349   -0.871396
     22          8           0        6.014470   -3.410842   -1.505843
     23          6           0        5.439073   -4.778887    1.233038
     24          6           0        5.264674   -4.886347    2.749329
     25          6           0        5.333814   -6.292849    3.326800
     26          6           0        4.947687   -6.430339    4.793396
     27          7           0        3.640104   -5.845297    5.113010
     28          1           0        6.614387   -2.708943    1.790327
     29          1           0        3.955883   -3.332296    1.001476
     30          1           0        6.442287   -5.023553    0.859540
     31          1           0        4.759253   -5.578791    0.944427
     32          1           0        4.243566   -4.540749    2.894590
     33          1           0        6.053869   -4.422492    3.346497
     34          1           0        6.341718   -6.679051    3.153665
     35          1           0        4.643255   -6.988968    2.856219
     36          1           0        5.620616   -5.925248    5.496781
     37          1           0        4.983110   -7.471960    5.102865
     38          1           0        3.586323   -4.873129    4.845245
     39          1           0        2.904031   -6.286013    4.575362
     40          1           0        3.370514   -6.094326    6.051895
     41          7           0        3.798931   -3.576909   -1.520375
     42          6           0        3.581259   -3.407681   -2.940931
     43          6           0        3.071782   -2.010554   -3.274651
     44          8           0        2.605724   -1.715949   -4.372740
     45          6           0        2.753555   -4.533778   -3.545341
     46          6           0        1.405201   -4.693865   -2.849271
     47          8           0        1.084384   -4.069587   -1.809342
     48          8           0        0.504660   -5.407122   -3.342514
     49          1           0        2.976839   -3.719890   -0.947817
     50          1           0        4.515191   -3.419416   -3.506116
     51          1           0        3.255763   -5.479904   -3.348537
     52          1           0        2.586487   -4.385411   -4.611491
     53          7           0        3.196987   -1.099482   -2.304098
     54          6           0        2.902091    0.305667   -2.496430
     55          6           0        3.812594    1.037943   -3.477785
     56          8           0        5.006106    0.745774   -3.570873
     57          1           0        3.381275   -1.327597   -1.341601
     58          1           0        2.943951    0.862600   -1.562475
     59          1           0        1.841265    0.372473   -2.729848
     60          7           0        3.404674    2.048993   -4.244322
     61          6           0        2.145737    2.754911   -4.052076
     62          6           0        2.357151    4.256714   -3.982858
     63          8           0        1.953392    4.914601   -4.940074
     64          6           0        1.076356    2.350790   -5.059156
     65          6           0        0.586702    0.909228   -4.987472
     66          7           0        1.005858    0.049718   -5.917876
     67          8           0       -0.366593    0.574800   -4.285556
     68          1           0        4.159052    2.449564   -4.772579
     69          1           0        1.726996    2.515757   -3.071279
     70          1           0        1.475322    2.694665   -6.010931
     71          1           0        0.180906    2.951497   -4.925285
     72          1           0        1.574239    0.485710   -6.624880
     73          1           0        0.648198   -0.879886   -6.084052
     74          7           0        2.997684    4.937159   -3.028074
     75          6           0        3.719116    4.352611   -1.919183
     76          6           0        2.841557    3.982951   -0.731857
     77          8           0        3.060976    2.894963   -0.212398
     78          1           0        2.947217    5.946877   -3.032820
     79          1           0        4.474688    5.085868   -1.655469
     80          1           0        4.209448    3.398012   -2.113386
     81          7           0        1.831874    4.782997   -0.378636
     82          6           0        0.683041    4.346570    0.403038
     83          6           0       -0.391782    3.731445   -0.473476
     84          8           0       -0.360540    3.949979   -1.678368
     85          6           0        0.072290    5.442494    1.266365
     86          6           0        1.017603    6.016397    2.292971
     87          6           0        1.418302    5.208185    3.370160
     88          6           0        1.534620    7.305433    2.118393
     89          6           0        2.258562    5.747679    4.345972
     90          6           0        2.384890    7.862716    3.085076
     91          6           0        2.804378    7.036360    4.147509
     92          8           0        3.608046    7.525568    5.138565
     93          1           0        1.672877    5.664165   -0.851460
     94          1           0        0.963146    3.518407    1.046223
     95          1           0       -0.696185    4.955475    1.862651
     96          1           0       -0.270352    6.235664    0.606912
     97          1           0        1.127315    4.171015    3.461829
     98          1           0        1.273070    7.869849    1.233561
     99          1           0        2.604601    5.075770    5.124942
    100          1           0        2.599489    8.918745    3.055930
    101          1           0        3.968398    8.413518    5.095081
    102          7           0       -1.186899    2.843729    0.134348
    103          6           0       -2.037447    1.888161   -0.546208
    104          6           0       -3.490070    2.341134   -0.675839
    105          8           0       -4.076989    2.001371   -1.696666
    106          6           0       -1.930188    0.551693    0.176667
    107          6           0       -0.794391   -0.365333   -0.299074
    108          6           0       -2.016886    0.685898    1.690428
    109          6           0        0.565154    0.250531    0.003826
    110          1           0       -1.150367    2.772747    1.142429
    111          1           0       -1.707114    1.648848   -1.559474
    112          1           0       -2.840588    0.019482   -0.084143
    113          1           0       -0.860173   -0.532740   -1.376547
    114          1           0       -0.967813   -1.311834    0.196770
    115          1           0       -1.220072    1.322992    2.063923
    116          1           0       -2.955315    1.116803    2.059714
    117          1           0       -1.848463   -0.325661    2.050960
    118          1           0        0.674375    0.647297    1.017210
    119          1           0        1.269677   -0.566592   -0.147689
    120          1           0        0.744769    1.038915   -0.716653
    121          7           0       -4.112811    3.086891    0.236871
    122          6           0       -5.485217    3.554667    0.191181
    123          6           0       -6.336043    2.447745    0.814654
    124          8           0       -6.073058    1.998555    1.925585
    125          6           0       -5.832996    4.818377    0.979715
    126          8           0       -5.105931    5.918860    0.470880
    127          1           0       -3.648951    3.225369    1.124879
    128          1           0       -5.796702    3.650170   -0.851534
    129          1           0       -5.569940    4.595142    2.016184
    130          1           0       -6.903373    4.926952    0.926754
    131          1           0       -4.457344    6.037169    1.171621
    132          7           0       -7.354008    2.021840    0.062490
    133          6           0       -8.587212    1.386825    0.452317
    134          6           0       -8.545098   -0.106203    0.207181
    135          8           0       -7.893147   -0.618483   -0.711475
    136          6           0       -9.699741    2.051866   -0.358978
    137          1           0       -7.296834    2.330384   -0.894763
    138          1           0       -8.654902    1.569914    1.523530
    139          1           0      -10.509125    1.311128   -0.356706
    140          1           0      -10.126851    2.841086    0.261433
    141          1           0       -9.402851    2.427948   -1.338017
    142          7           0       -9.308656   -0.920804    0.948265
    143          6           0       -9.403301   -2.362431    0.872406
    144          6           0       -8.057845   -3.054682    0.834522
    145          8           0       -7.773271   -3.900555   -0.019713
    146          6           0      -10.350369   -2.770036   -0.259283
    147          1           0       -9.795386   -0.505105    1.728449
    148          1           0       -9.859527   -2.660771    1.817261
    149          1           0       -9.831935   -2.623769   -1.202220
    150          1           0      -10.777682   -3.769518   -0.265566
    151          1           0      -11.168116   -2.050755   -0.334941
    152          7           0       -7.169821   -2.582402    1.709831
    153          6           0       -5.748052   -2.871689    1.741202
    154          6           0       -5.301393   -3.085724    3.183140
    155          8           0       -4.775663   -4.149678    3.493802
    156          6           0       -5.005740   -1.677801    1.157247
    157          6           0       -4.868260   -1.807693   -0.358150
    158          6           0       -3.638880   -2.538836   -0.861989
    159          8           0       -2.858266   -3.130853   -0.075187
    160          8           0       -3.385755   -2.505294   -2.085468
    161          1           0       -7.546016   -1.879435    2.338492
    162          1           0       -5.567003   -3.769165    1.143910
    163          1           0       -3.971127   -1.585125    1.486468
    164          1           0       -5.558608   -0.758195    1.335182
    165          1           0       -4.872409   -0.801226   -0.767549
    166          1           0       -5.768865   -2.241372   -0.788653
    167          7           0       -5.643186   -2.189405    4.105793
    168          6           0       -5.233292   -2.368071    5.477750
    169          1           0       -6.113707   -2.389440    6.119263
    170          1           0       -4.689870   -3.308384    5.575532
    171          1           0       -4.588109   -1.541847    5.775283
    172          1           0       -6.269008   -1.445585    3.817384
    173         20           0       -1.639885   -4.360957   -2.297257
    174          8           0       -3.979551   -5.447104   -2.049978
    175          1           0       -4.809428   -5.382127   -2.515685
    176          1           0       -4.074175   -6.204626   -1.482874
 ---------------------------------------------------------------------

 SCF Done:  E(RB3LYP) =  -5333.35438000     A.U. after  104 cycles

 The electronic state is 1-A.
 Alpha  occ. eigenvalues -- -145.44280 -19.20866 -19.15361 -19.14945 -19.11642
 Alpha  occ. eigenvalues --  -19.11202 -19.09774 -19.08927 -19.08809 -19.08261
 Alpha  occ. eigenvalues --  -19.07937 -19.07848 -19.07830 -19.06792 -19.06430
 Alpha  occ. eigenvalues --  -19.06307 -19.06284 -19.06051 -19.05559 -19.05334
 Alpha  occ. eigenvalues --  -19.05130 -19.03894 -18.95985 -18.95369 -15.50227
 Alpha  occ. eigenvalues --  -14.56565 -14.38381 -14.37018 -14.36220 -14.36172
 Alpha  occ. eigenvalues --  -14.35653 -14.35055 -14.34778 -14.34259 -14.33856
 Alpha  occ. eigenvalues --  -14.32601 -14.31747 -14.30790 -14.30663 -14.30629
 Alpha  occ. eigenvalues --  -12.63860 -12.63820 -12.63695 -10.34410 -10.30167
 Alpha  occ. eigenvalues --  -10.29447 -10.28862 -10.27662 -10.27309 -10.27226
 Alpha  occ. eigenvalues --  -10.26955 -10.26896 -10.26834 -10.26528 -10.26288
 Alpha  occ. eigenvalues --  -10.25702 -10.25627 -10.25621 -10.25354 -10.25102
 Alpha  occ. eigenvalues --  -10.24961 -10.24594 -10.24580 -10.24572 -10.24174
 Alpha  occ. eigenvalues --  -10.24010 -10.23664 -10.23590 -10.22800 -10.22605
 Alpha  occ. eigenvalues --  -10.22363 -10.22279 -10.22152 -10.21364 -10.21342
 Alpha  occ. eigenvalues --  -10.21291 -10.20519 -10.20132 -10.19306 -10.19161
 Alpha  occ. eigenvalues --  -10.19011 -10.19000 -10.18839 -10.18673 -10.17982
 Alpha  occ. eigenvalues --  -10.17901 -10.17741 -10.17637 -10.17323 -10.16978
 Alpha  occ. eigenvalues --  -10.16697 -10.15889 -10.15167 -10.15145 -10.14984
 Alpha  occ. eigenvalues --  -10.14304 -10.10182  -1.86904  -1.14696  -1.14392
 Alpha  occ. eigenvalues --   -1.13612  -1.12407  -1.07004  -1.05024  -1.04286
 Alpha  occ. eigenvalues --   -1.03734  -1.03316  -1.03252  -1.02762  -1.02348
 Alpha  occ. eigenvalues --   -1.01977  -1.01502  -1.01077  -1.00850  -1.00574
 Alpha  occ. eigenvalues --   -1.00378  -0.99104  -0.98573  -0.98197  -0.98004
 Alpha  occ. eigenvalues --   -0.97590  -0.94826  -0.94396  -0.93037  -0.92465
 Alpha  occ. eigenvalues --   -0.91790  -0.91683  -0.91499  -0.91453  -0.90891
 Alpha  occ. eigenvalues --   -0.90269  -0.90150  -0.90052  -0.89457  -0.88566
 Alpha  occ. eigenvalues --   -0.88141  -0.87486  -0.86581  -0.85515  -0.84923
 Alpha  occ. eigenvalues --   -0.82198  -0.81742  -0.80568  -0.80443  -0.79249
 Alpha  occ. eigenvalues --   -0.78677  -0.77494  -0.77219  -0.76598  -0.75417
 Alpha  occ. eigenvalues --   -0.74510  -0.74495  -0.73629  -0.73167  -0.72924
 Alpha  occ. eigenvalues --   -0.72271  -0.71733  -0.70758  -0.70585  -0.69753
 Alpha  occ. eigenvalues --   -0.69653  -0.69547  -0.69054  -0.68612  -0.67763
 Alpha  occ. eigenvalues --   -0.66782  -0.65931  -0.65494  -0.64835  -0.64769
 Alpha  occ. eigenvalues --   -0.63254  -0.62821  -0.62037  -0.61781  -0.61029
 Alpha  occ. eigenvalues --   -0.60562  -0.60320  -0.60191  -0.59973  -0.59633
 Alpha  occ. eigenvalues --   -0.59291  -0.59170  -0.59023  -0.58740  -0.58381
 Alpha  occ. eigenvalues --   -0.58064  -0.57788  -0.57400  -0.57193  -0.56515
 Alpha  occ. eigenvalues --   -0.55549  -0.55406  -0.55173  -0.54996  -0.54927
 Alpha  occ. eigenvalues --   -0.54471  -0.54319  -0.53317  -0.53203  -0.52634
 Alpha  occ. eigenvalues --   -0.52043  -0.51875  -0.51811  -0.51066  -0.50644
 Alpha  occ. eigenvalues --   -0.50296  -0.50118  -0.49857  -0.49787  -0.49700
 Alpha  occ. eigenvalues --   -0.49484  -0.49331  -0.49069  -0.48913  -0.48712
 Alpha  occ. eigenvalues --   -0.48623  -0.48205  -0.47824  -0.47636  -0.47565
 Alpha  occ. eigenvalues --   -0.47391  -0.47109  -0.46856  -0.46765  -0.46673
 Alpha  occ. eigenvalues --   -0.46245  -0.45617  -0.45352  -0.45205  -0.44900
 Alpha  occ. eigenvalues --   -0.44700  -0.44641  -0.44449  -0.44013  -0.43989
 Alpha  occ. eigenvalues --   -0.43941  -0.43850  -0.43715  -0.43650  -0.43418
 Alpha  occ. eigenvalues --   -0.43282  -0.43009  -0.42856  -0.42819  -0.42791
 Alpha  occ. eigenvalues --   -0.42405  -0.42300  -0.42145  -0.41889  -0.41867
 Alpha  occ. eigenvalues --   -0.41822  -0.41803  -0.41720  -0.41405  -0.41289
 Alpha  occ. eigenvalues --   -0.41093  -0.40579  -0.40444  -0.40280  -0.40172
 Alpha  occ. eigenvalues --   -0.40096  -0.39872  -0.39792  -0.39602  -0.39536
 Alpha  occ. eigenvalues --   -0.39346  -0.39320  -0.39206  -0.39109  -0.39034
 Alpha  occ. eigenvalues --   -0.38789  -0.38735  -0.38509  -0.38480  -0.38322
 Alpha  occ. eigenvalues --   -0.38120  -0.38072  -0.38043  -0.37921  -0.37347
 Alpha  occ. eigenvalues --   -0.37258  -0.37189  -0.37157  -0.36761  -0.36730
 Alpha  occ. eigenvalues --   -0.36615  -0.36425  -0.36409  -0.36228  -0.36195
 Alpha  occ. eigenvalues --   -0.36097  -0.35782  -0.35734  -0.35596  -0.35304
 Alpha  occ. eigenvalues --   -0.35184  -0.35019  -0.34917  -0.34740  -0.34647
 Alpha  occ. eigenvalues --   -0.34236  -0.33764  -0.33392  -0.33290  -0.33152
 Alpha  occ. eigenvalues --   -0.32656  -0.32590  -0.32408  -0.32309  -0.32224
 Alpha  occ. eigenvalues --   -0.31558  -0.31542  -0.30923  -0.30719  -0.30643
 Alpha  occ. eigenvalues --   -0.29874  -0.29151  -0.28961  -0.28293  -0.27693
 Alpha  occ. eigenvalues --   -0.27350  -0.27110  -0.27041  -0.27032  -0.26556
 Alpha  occ. eigenvalues --   -0.26154  -0.25934  -0.25848  -0.25794  -0.25503
 Alpha  occ. eigenvalues --   -0.25498  -0.25465  -0.25091  -0.24888  -0.24792
 Alpha  occ. eigenvalues --   -0.24323  -0.24192  -0.24107  -0.23763  -0.23427
 Alpha  occ. eigenvalues --   -0.23330  -0.23016  -0.22713  -0.22552  -0.22204
 Alpha  occ. eigenvalues --   -0.22029  -0.21851  -0.21782  -0.21615  -0.21443
 Alpha  occ. eigenvalues --   -0.21162  -0.21047  -0.20440  -0.20120  -0.19582
 Alpha  occ. eigenvalues --   -0.13134  -0.12825  -0.10602
 Alpha virt. eigenvalues --   -0.09505  -0.05517  -0.03720  -0.02836  -0.01867
 Alpha virt. eigenvalues --   -0.01542  -0.00537  -0.00534  -0.00160   0.00167
 Alpha virt. eigenvalues --    0.00643   0.01062   0.01555   0.01776   0.01959

 Mulliken charges:
               1
     1  C    0.071721
     2  C   -0.020497
     3  O   -0.309761
     4  H    0.013235
     5  H    0.041777
     6  H   -0.007154
     7  N   -0.141556
     8  C    0.138158
     9  C    0.088925
    10  O   -0.290130
    11  C    0.052679
    12  C    0.048898
    13  O   -0.396609
    14  O   -0.318735
    15  H    0.110002
    16  H    0.009888
    17  H   -0.017566
    18  H    0.007382
    19  N   -0.095728
    20  C    0.146573
    21  C    0.081499
    22  O   -0.233808
    23  C    0.008616
    24  C    0.006494
    25  C   -0.015942
    26  C    0.044420
    27  N    0.112316
    28  H    0.113504
    29  H   -0.032202
    30  H    0.047093
    31  H   -0.013988
    32  H   -0.032259
    33  H    0.029549
    34  H    0.057176
    35  H    0.008016
    36  H    0.057238
    37  H    0.059703
    38  H    0.175620
    39  H    0.129698
    40  H    0.135971
    41  N   -0.179777
    42  C    0.151457
    43  C    0.062555
    44  O   -0.290328
    45  C    0.115010
    46  C    0.086986
    47  O   -0.432274
    48  O   -0.458761
    49  H    0.116029
    50  H    0.049632
    51  H    0.013053
    52  H    0.037155
    53  N   -0.120569
    54  C    0.115020
    55  C    0.024166
    56  O   -0.252380
    57  H    0.140927
    58  H    0.062527
    59  H    0.031560
    60  N   -0.113701
    61  C    0.008529
    62  C    0.063146
    63  O   -0.275445
    64  C    0.140752
    65  C    0.013379
    66  N    0.005695
    67  O   -0.283633
    68  H    0.120264
    69  H    0.044841
    70  H   -0.009623
    71  H    0.026624
    72  H    0.100365
    73  H    0.116767
    74  N   -0.111441
    75  C    0.172605
    76  C    0.029661
    77  O   -0.254023
    78  H    0.122240
    79  H    0.030509
    80  H    0.065696
    81  N   -0.089898
    82  C    0.056337
    83  C    0.086446
    84  O   -0.254869
    85  C    0.154065
    86  C    0.011346
    87  C   -0.017272
    88  C   -0.017771
    89  C   -0.008173
    90  C   -0.036359
    91  C    0.185565
    92  O   -0.222692
    93  H    0.102039
    94  H    0.014533
    95  H   -0.024660
    96  H   -0.012759
    97  H   -0.026301
    98  H   -0.037512
    99  H   -0.008965
   100  H   -0.035623
   101  H    0.176711
   102  N   -0.138673
   103  C    0.162258
   104  C    0.066322
   105  O   -0.267929
   106  C   -0.133817
   107  C    0.016056
   108  C    0.021312
   109  C    0.016319
   110  H    0.109677
   111  H    0.038757
   112  H    0.014650
   113  H    0.025440
   114  H   -0.000617
   115  H   -0.017703
   116  H    0.010308
   117  H    0.024184
   118  H   -0.003635
   119  H    0.010976
   120  H    0.033099
   121  N   -0.103512
   122  C    0.090928
   123  C    0.046433
   124  O   -0.300382
   125  C    0.251217
   126  O   -0.283290
   127  H    0.094037
   128  H    0.005911
   129  H   -0.002145
   130  H   -0.003971
   131  H    0.163840
   132  N   -0.099357
   133  C    0.070589
   134  C    0.081329
   135  O   -0.257263
   136  C    0.071358
   137  H    0.133984
   138  H   -0.002663
   139  H    0.010070
   140  H    0.021286
   141  H    0.048210
   142  N   -0.143395
   143  C    0.051939
   144  C    0.083185
   145  O   -0.276987
   146  C    0.090757
   147  H    0.106879
   148  H    0.006273
   149  H    0.034674
   150  H    0.021819
   151  H   -0.015653
   152  N   -0.126418
   153  C    0.138966
   154  C    0.057514
   155  O   -0.273285
   156  C    0.071604
   157  C    0.013215
   158  C    0.134863
   159  O   -0.427577
   160  O   -0.457773
   161  H    0.085092
   162  H    0.006079
   163  H    0.011892
   164  H   -0.020870
   165  H    0.031231
   166  H    0.026042
   167  N   -0.167361
   168  C    0.128450
   169  H    0.011339
   170  H    0.047151
   171  H    0.020623
   172  H    0.109089
   173  Ca   1.355738
   174  O   -0.297831
   175  H    0.204622
   176  H    0.184923
 Sum of Mulliken charges =  -0.00000

 Dipole moment (field-independent basis, Debye):
    X=            -25.2269    Y=            -17.5725    Z=             25.4178  Tot=             39.8905
 Quadrupole moment (field-independent basis, Debye-Ang):
   XX=           -657.9708   YY=           -339.5045   ZZ=           -487.8306
   XY=            -62.1686   XZ=             66.8971   YZ=            -65.7357

 ESP charges:
               1
     1  C   -0.411499
     2  C    0.670463
     3  O   -0.609115
     4  H    0.099534
     5  H    0.140856
     6  H    0.076747
     7  N   -0.546480
     8  C    0.102925
     9  C    0.515880
    10  O   -0.566833
    11  C    0.074335
    12  C    0.640972
    13  O   -0.704232
    14  O   -0.605119
    15  H    0.284539
    16  H    0.093831
    17  H   -0.021778
    18  H   -0.013153
    19  N   -0.651632
    20  C    0.309722
    21  C    0.627378
    22  O   -0.516451
    23  C   -0.289922
    24  C    0.136721
    25  C    0.032205
    26  C   -0.061187
    27  N   -0.149421
    28  H    0.342755
    29  H    0.013653
    30  H    0.110074
    31  H    0.034512
    32  H   -0.014694
    33  H   -0.016224
    34  H    0.055140
    35  H    0.001480
    36  H    0.090309
    37  H    0.081114
    38  H    0.235278
    39  H    0.244501
    40  H    0.236851
    41  N   -0.731015
    42  C    0.302439
    43  C    0.477769
    44  O   -0.555768
    45  C   -0.372056
    46  C    0.918666
    47  O   -0.841165
    48  O   -0.826494
    49  H    0.346732
    50  H    0.083437
    51  H    0.108230
    52  H    0.105290
    53  N   -0.419080
    54  C    0.099561
    55  C    0.664798
    56  O   -0.544158
    57  H    0.294911
    58  H    0.051240
    59  H    0.040841
    60  N   -0.778623
    61  C    0.825752
    62  C    0.343221
    63  O   -0.539159
    64  C   -0.490943
    65  C    0.714061
    66  N   -0.765668
    67  O   -0.562468
    68  H    0.345037
    69  H   -0.149239
    70  H    0.081962
    71  H    0.137961
    72  H    0.330640
    73  H    0.378220
    74  N   -0.431595
    75  C   -0.064459
    76  C    0.623968
    77  O   -0.556696
    78  H    0.320896
    79  H    0.086905
    80  H    0.080283
    81  N   -0.682144
    82  C    0.483627
    83  C    0.537047
    84  O   -0.526765
    85  C   -0.375260
    86  C    0.107164
    87  C   -0.152839
    88  C   -0.140137
    89  C   -0.276631
    90  C   -0.351191
    91  C    0.444526
    92  O   -0.597402
    93  H    0.320244
    94  H    0.009827
    95  H    0.087177
    96  H    0.096129
    97  H    0.133014
    98  H    0.141183
    99  H    0.176636
   100  H    0.158793
   101  H    0.429814
   102  N   -0.687538
   103  C   -0.092497
   104  C    0.942289
   105  O   -0.615338
   106  C    0.531211
   107  C   -0.031080
   108  C   -0.439396
   109  C   -0.155314
   110  H    0.294355
   111  H    0.039772
   112  H   -0.120693
   113  H   -0.001569
   114  H    0.019620
   115  H    0.076632
   116  H    0.071525
   117  H    0.104354
   118  H    0.013477
   119  H    0.028839
   120  H    0.135404
   121  N   -0.802242
   122  C    0.272408
   123  C    0.618181
   124  O   -0.595959
   125  C    0.206397
   126  O   -0.573741
   127  H    0.343426
   128  H    0.046929
   129  H   -0.012788
   130  H    0.002624
   131  H    0.381011
   132  N   -0.628245
   133  C    0.289184
   134  C    0.605216
   135  O   -0.487982
   136  C   -0.427643
   137  H    0.297168
   138  H    0.017678
   139  H    0.086219
   140  H    0.114977
   141  H    0.164022
   142  N   -0.486269
   143  C    0.192671
   144  C    0.524673
   145  O   -0.508405
   146  C   -0.390894
   147  H    0.257249
   148  H    0.056190
   149  H    0.134260
   150  H    0.109588
   151  H    0.092904
   152  N   -0.536949
   153  C    0.007781
   154  C    0.664485
   155  O   -0.574572
   156  C   -0.481512
   157  C    0.190354
   158  C    0.599894
   159  O   -0.718253
   160  O   -0.737794
   161  H    0.205066
   162  H    0.136341
   163  H    0.132675
   164  H    0.138211
   165  H   -0.025832
   166  H    0.048449
   167  N   -0.405041
   168  C   -0.070567
   169  H    0.051760
   170  H    0.095940
   171  H    0.053747
   172  H    0.312568
   173  Ca   1.636369
   174  O   -0.844994
   175  H    0.456452
   176  H    0.421477
 Sum of ESP charges =   0.00000

 Normal termination of Gaussian 16 at Wed Sep 18 15:26:22 2019.
