 Gaussian 16, Revision A.03,
 Gaussian 16:  ES64L-G16RevA.03 25-Dec-2016

 ----------------------------------------------------------------------
 #b3lyp/svp scf=(tight,noincore) Test #IOP(5/87=12) Density=Current Pop
 =(MK,readradii) iop(6/33=2) iop(6/42=6)
 ----------------------------------------------------------------------

 ----------------
 Ng-31_loop3_17.0
 ----------------
 Symbolic Z-matrix:
 Charge =  0 Multiplicity = 1

                         Standard orientation:
 ---------------------------------------------------------------------
 Center     Atomic      Atomic             Coordinates (Angstroms)
 Number     Number       Type             X           Y           Z
 ---------------------------------------------------------------------
      1          6           0        5.021055   -3.899831    4.204308
      2          6           0        5.100185   -2.624727    3.375304
      3          8           0        4.265088   -1.755922    3.563163
      4          1           0        4.356701   -4.611098    3.713900
      5          1           0        6.015285   -4.336350    4.296281
      6          1           0        4.632890   -3.665509    5.195340
      7          7           0        6.220422   -2.398617    2.676703
      8          6           0        6.368615   -1.379738    1.666098
      9          6           0        6.177653   -1.922139    0.256902
     10          8           0        6.112568   -3.118996   -0.012539
     11          6           0        7.700049   -0.640147    1.740176
     12          6           0        8.928033   -1.536614    1.905410
     13          8           0        8.841231   -2.705700    1.484454
     14          8           0        9.988095   -1.093708    2.389044
     15          1           0        6.806559   -3.207864    2.521584
     16          1           0        5.714431   -0.543809    1.905820
     17          1           0        7.646684   -0.110116    2.688448
     18          1           0        7.774678    0.122383    0.966367
     19          7           0        6.052956   -1.059845   -0.757150
     20          6           0        5.795145   -1.407784   -2.139601
     21          6           0        4.370318   -1.273943   -2.643440
     22          8           0        3.993089   -1.690252   -3.737508
     23          6           0        6.722202   -0.621450   -3.072148
     24          6           0        8.194172   -0.668528   -2.670044
     25          6           0        9.083653   -0.197235   -3.810047
     26          6           0       10.474244   -0.809381   -3.933465
     27          7           0       11.309673   -0.557314   -2.758297
     28          1           0        6.214786   -0.083852   -0.550638
     29          1           0        6.122057   -2.437047   -2.326271
     30          1           0        6.462431    0.433039   -3.080558
     31          1           0        6.596760   -1.124999   -4.035477
     32          1           0        8.468514   -1.716085   -2.563453
     33          1           0        8.429285   -0.204523   -1.717142
     34          1           0        9.125377    0.896104   -3.777330
     35          1           0        8.594446   -0.496928   -4.730731
     36          1           0       10.995346   -0.285765   -4.744439
     37          1           0       10.414015   -1.881657   -4.154367
     38          1           0       10.879626   -0.982909   -1.946368
     39          1           0       12.177213   -1.067460   -2.747130
     40          1           0       11.343126    0.427693   -2.545592
     41          7           0        3.442085   -0.779793   -1.822525
     42          6           0        2.018609   -0.795487   -2.080727
     43          6           0        1.475047    0.623577   -2.188876
     44          8           0        0.570628    0.835887   -2.983263
     45          6           0        1.389354   -1.419658   -0.846324
     46          6           0        1.852655   -1.056757    0.559576
     47          8           0        1.403609   -1.671439    1.543509
     48          8           0        2.736417   -0.184900    0.736583
     49          1           0        3.841066   -0.471368   -0.944067
     50          1           0        1.645298   -1.383141   -2.924944
     51          1           0        1.479403   -2.498202   -0.930196
     52          1           0        0.306964   -1.255954   -0.834756
     53          7           0        2.000127    1.592435   -1.433822
     54          6           0        1.498356    2.946938   -1.308336
     55          6           0        2.402584    3.743411   -0.371264
     56          8           0        3.432388    3.234660    0.046559
     57          1           0        2.624693    1.288759   -0.704509
     58          1           0        0.451425    2.921917   -1.013703
     59          1           0        1.377596    3.414426   -2.279815
     60          7           0        2.236399    5.015360    0.000528
     61          6           0        1.170749    5.875267   -0.476493
     62          6           0        0.504751    6.775671    0.554875
     63          8           0        1.194514    7.430080    1.338250
     64          6           0        1.719306    6.665681   -1.655658
     65          6           0        2.709413    7.743474   -1.237030
     66          7           0        2.245829    8.956448   -1.534995
     67          8           0        3.816237    7.579683   -0.741940
     68          1           0        3.028981    5.395538    0.488564
     69          1           0        0.390357    5.248671   -0.918381
     70          1           0        0.848606    7.062367   -2.180846
     71          1           0        2.146593    6.022195   -2.422243
     72          1           0        1.352013    8.978123   -1.993605
     73          1           0        2.840359    9.690055   -1.161692
     74          7           0       -0.809553    6.938230    0.701775
     75          6           0       -1.829692    6.347503   -0.144013
     76          6           0       -2.189176    4.891588    0.109918
     77          8           0       -1.514082    4.127188    0.797044
     78          1           0       -1.134793    7.326672    1.581224
     79          1           0       -1.564953    6.543308   -1.190184
     80          1           0       -2.732373    6.921899    0.056332
     81          7           0       -3.333592    4.474720   -0.448591
     82          6           0       -4.037747    3.213030   -0.355836
     83          6           0       -4.402660    2.699420   -1.747362
     84          8           0       -4.543864    3.387208   -2.752753
     85          6           0       -5.311127    3.467794    0.456813
     86          6           0       -5.218013    3.742291    1.939170
     87          6           0       -5.231220    2.670363    2.854045
     88          6           0       -5.041079    5.040226    2.426264
     89          6           0       -5.125716    2.933441    4.222313
     90          6           0       -4.798945    5.320409    3.776104
     91          6           0       -4.801146    4.222170    4.666758
     92          8           0       -4.489229    4.408247    5.985388
     93          1           0       -3.793388    5.121124   -1.070724
     94          1           0       -3.453398    2.346837   -0.045279
     95          1           0       -5.883124    2.547549    0.337790
     96          1           0       -5.933055    4.202353   -0.037483
     97          1           0       -5.422559    1.680608    2.475661
     98          1           0       -5.120605    5.901822    1.784448
     99          1           0       -5.196854    2.118274    4.935154
    100          1           0       -4.609804    6.331869    4.125781
    101          1           0       -4.136940    5.285414    6.133947
    102          7           0       -4.516086    1.370288   -1.841399
    103          6           0       -4.844248    0.637021   -3.039535
    104          6           0       -5.896582   -0.460019   -2.879236
    105          8           0       -6.486281   -0.847150   -3.882722
    106          6           0       -3.609864   -0.050968   -3.626362
    107          6           0       -2.741585    0.803161   -4.551918
    108          6           0       -2.803308   -0.857936   -2.622683
    109          6           0       -3.552165    1.470030   -5.661217
    110          1           0       -4.235485    0.851662   -1.018363
    111          1           0       -5.402986    1.342588   -3.651162
    112          1           0       -3.925059   -0.864868   -4.276838
    113          1           0       -1.957532    0.223422   -5.039836
    114          1           0       -2.251332    1.587955   -3.992587
    115          1           0       -2.186687   -1.559880   -3.190181
    116          1           0       -2.127101   -0.256598   -2.010772
    117          1           0       -3.426916   -1.416769   -1.931511
    118          1           0       -2.731523    2.027248   -6.124848
    119          1           0       -3.999579    0.800099   -6.387794
    120          1           0       -4.299066    2.177840   -5.316189
    121          7           0       -6.172342   -0.956267   -1.672714
    122          6           0       -7.084204   -2.048888   -1.432740
    123          6           0       -6.525190   -3.413303   -1.810466
    124          8           0       -7.257398   -4.404575   -1.772365
    125          6           0       -7.563094   -2.022151    0.017553
    126          8           0       -6.562224   -2.308201    0.964778
    127          1           0       -5.731261   -0.471635   -0.904613
    128          1           0       -8.013957   -1.844153   -1.966165
    129          1           0       -8.335005   -2.792930    0.058199
    130          1           0       -7.962909   -1.029652    0.248193
    131          1           0       -5.957300   -1.573849    1.003431
    132          7           0       -5.219678   -3.489042   -2.072191
    133          6           0       -4.554116   -4.718197   -2.408058
    134          6           0       -3.286487   -4.920231   -1.591908
    135          8           0       -2.486895   -3.991820   -1.498070
    136          6           0       -4.253756   -4.825518   -3.905611
    137          1           0       -4.646756   -2.660760   -2.026256
    138          1           0       -5.171446   -5.584479   -2.172774
    139          1           0       -3.702258   -3.933180   -4.203242
    140          1           0       -3.651386   -5.720005   -4.084620
    141          1           0       -5.219183   -4.871541   -4.409924
    142          7           0       -3.104989   -6.122754   -1.020596
    143          6           0       -1.972973   -6.632573   -0.290921
    144          6           0       -1.332017   -5.728214    0.747880
    145          8           0       -0.132736   -5.880283    0.962588
    146          6           0       -1.056189   -7.369594   -1.270210
    147          1           0       -3.730984   -6.875369   -1.259554
    148          1           0       -2.335506   -7.522128    0.238193
    149          1           0       -0.370719   -8.032058   -0.726267
    150          1           0       -1.674341   -7.895171   -1.999975
    151          1           0       -0.468811   -6.663986   -1.844147
    152          7           0       -2.019606   -4.712056    1.276223
    153          6           0       -1.431908   -3.701410    2.138200
    154          6           0       -1.924184   -3.840578    3.568584
    155          8           0       -1.131005   -3.814210    4.503181
    156          6           0       -1.765900   -2.308588    1.600526
    157          6           0       -3.219073   -2.062883    1.218273
    158          6           0       -3.551070   -0.621089    0.909066
    159          8           0       -2.776611    0.351342    1.079915
    160          8           0       -4.749429   -0.377578    0.644987
    161          1           0       -3.008816   -4.680189    1.118272
    162          1           0       -0.345660   -3.795586    2.056983
    163          1           0       -1.132467   -2.045040    0.751523
    164          1           0       -1.459713   -1.725082    2.464164
    165          1           0       -3.897435   -2.291550    2.037868
    166          1           0       -3.527012   -2.783447    0.453184
    167          7           0       -3.179539   -4.225459    3.812613
    168          6           0       -3.686661   -4.509034    5.145397
    169          1           0       -3.458220   -5.542307    5.408430
    170          1           0       -3.215607   -3.838748    5.864163
    171          1           0       -4.766768   -4.360366    5.163189
    172          1           0       -3.794203   -4.497997    3.061407
    173         20           0        2.106188   -0.000409    3.451281
    174          8           0        3.180924    0.498389    5.804904
    175          1           0        3.555998   -0.183007    6.368747
    176          1           0        2.804178    1.130176    6.408980
 ---------------------------------------------------------------------

 SCF Done:  E(RB3LYP) =  -5333.37244488     A.U. after   25 cycles

 The electronic state is 1-A.
 Alpha  occ. eigenvalues -- -145.52557 -19.26443 -19.15049 -19.12610 -19.10342
 Alpha  occ. eigenvalues --  -19.09922 -19.09833 -19.09811 -19.09551 -19.08950
 Alpha  occ. eigenvalues --  -19.08466 -19.08263 -19.07576 -19.07533 -19.07111
 Alpha  occ. eigenvalues --  -19.06861 -19.06533 -19.06030 -19.05444 -19.04453
 Alpha  occ. eigenvalues --  -19.03311 -19.02365 -18.99566 -18.99012 -15.58351
 Alpha  occ. eigenvalues --  -14.57725 -14.36848 -14.35934 -14.35647 -14.35545
 Alpha  occ. eigenvalues --  -14.35425 -14.35201 -14.34186 -14.34103 -14.33410
 Alpha  occ. eigenvalues --  -14.33261 -14.32770 -14.32014 -14.31014 -14.29971
 Alpha  occ. eigenvalues --  -12.71969 -12.71949 -12.71873 -10.35171 -10.30342
 Alpha  occ. eigenvalues --  -10.29503 -10.29117 -10.28824 -10.28684 -10.28086
 Alpha  occ. eigenvalues --  -10.27575 -10.27433 -10.27093 -10.26699 -10.26600
 Alpha  occ. eigenvalues --  -10.26181 -10.25636 -10.25526 -10.24913 -10.24880
 Alpha  occ. eigenvalues --  -10.24404 -10.24276 -10.24193 -10.23633 -10.23172
 Alpha  occ. eigenvalues --  -10.22882 -10.22797 -10.22544 -10.22382 -10.22283
 Alpha  occ. eigenvalues --  -10.21786 -10.21310 -10.21102 -10.20790 -10.20639
 Alpha  occ. eigenvalues --  -10.20227 -10.19764 -10.19586 -10.18960 -10.18427
 Alpha  occ. eigenvalues --  -10.18414 -10.17790 -10.17764 -10.17601 -10.17185
 Alpha  occ. eigenvalues --  -10.17080 -10.16878 -10.16811 -10.16809 -10.16441
 Alpha  occ. eigenvalues --  -10.16288 -10.15304 -10.14528 -10.14286 -10.13193
 Alpha  occ. eigenvalues --  -10.13096 -10.12560  -1.94704  -1.22122  -1.21902
 Alpha  occ. eigenvalues --   -1.21485  -1.13421  -1.12216  -1.05218  -1.05140
 Alpha  occ. eigenvalues --   -1.04265  -1.03715  -1.03606  -1.02676  -1.02240
 Alpha  occ. eigenvalues --   -1.01836  -1.01666  -1.01154  -1.01110  -1.00149
 Alpha  occ. eigenvalues --   -1.00070  -0.99697  -0.98741  -0.98033  -0.97602
 Alpha  occ. eigenvalues --   -0.95075  -0.94614  -0.94470  -0.92727  -0.92655
 Alpha  occ. eigenvalues --   -0.92550  -0.92284  -0.92036  -0.91024  -0.90865
 Alpha  occ. eigenvalues --   -0.90780  -0.90466  -0.89284  -0.89179  -0.89090
 Alpha  occ. eigenvalues --   -0.88918  -0.88589  -0.87105  -0.86690  -0.84209
 Alpha  occ. eigenvalues --   -0.82997  -0.82652  -0.79461  -0.78758  -0.77991
 Alpha  occ. eigenvalues --   -0.77609  -0.77277  -0.76300  -0.76206  -0.76016
 Alpha  occ. eigenvalues --   -0.74042  -0.74036  -0.73907  -0.72957  -0.72733
 Alpha  occ. eigenvalues --   -0.72667  -0.71984  -0.70816  -0.70727  -0.70142
 Alpha  occ. eigenvalues --   -0.69645  -0.69311  -0.68900  -0.67927  -0.66645
 Alpha  occ. eigenvalues --   -0.66019  -0.65296  -0.65014  -0.64906  -0.63729
 Alpha  occ. eigenvalues --   -0.63049  -0.63044  -0.61767  -0.61043  -0.61041
 Alpha  occ. eigenvalues --   -0.60543  -0.60377  -0.60306  -0.59097  -0.58680
 Alpha  occ. eigenvalues --   -0.58268  -0.58206  -0.58102  -0.57533  -0.57454
 Alpha  occ. eigenvalues --   -0.57397  -0.57138  -0.56803  -0.56637  -0.56547
 Alpha  occ. eigenvalues --   -0.55899  -0.55463  -0.55301  -0.55277  -0.54636
 Alpha  occ. eigenvalues --   -0.54140  -0.53616  -0.53377  -0.53318  -0.53255
 Alpha  occ. eigenvalues --   -0.52938  -0.52308  -0.52166  -0.52017  -0.51692
 Alpha  occ. eigenvalues --   -0.50975  -0.50611  -0.50428  -0.50176  -0.50039
 Alpha  occ. eigenvalues --   -0.49744  -0.49183  -0.48855  -0.48291  -0.48222
 Alpha  occ. eigenvalues --   -0.47780  -0.47393  -0.47350  -0.47016  -0.46877
 Alpha  occ. eigenvalues --   -0.46721  -0.46450  -0.46300  -0.46249  -0.45938
 Alpha  occ. eigenvalues --   -0.45754  -0.45628  -0.45325  -0.45128  -0.45012
 Alpha  occ. eigenvalues --   -0.44896  -0.44740  -0.44605  -0.44364  -0.44112
 Alpha  occ. eigenvalues --   -0.43970  -0.43955  -0.43840  -0.43686  -0.43350
 Alpha  occ. eigenvalues --   -0.43326  -0.42778  -0.42770  -0.42628  -0.42438
 Alpha  occ. eigenvalues --   -0.42176  -0.42137  -0.42089  -0.41783  -0.41383
 Alpha  occ. eigenvalues --   -0.41303  -0.41138  -0.40986  -0.40789  -0.40715
 Alpha  occ. eigenvalues --   -0.40634  -0.40505  -0.40351  -0.40226  -0.40120
 Alpha  occ. eigenvalues --   -0.40059  -0.40004  -0.39796  -0.39700  -0.39659
 Alpha  occ. eigenvalues --   -0.39616  -0.39187  -0.39111  -0.38669  -0.38554
 Alpha  occ. eigenvalues --   -0.38434  -0.38340  -0.38301  -0.38244  -0.38177
 Alpha  occ. eigenvalues --   -0.38140  -0.38098  -0.37956  -0.37666  -0.37594
 Alpha  occ. eigenvalues --   -0.37460  -0.37435  -0.37307  -0.37101  -0.36914
 Alpha  occ. eigenvalues --   -0.36785  -0.36631  -0.36476  -0.35937  -0.35683
 Alpha  occ. eigenvalues --   -0.35550  -0.35180  -0.35081  -0.35031  -0.34867
 Alpha  occ. eigenvalues --   -0.34805  -0.34799  -0.34358  -0.34216  -0.33978
 Alpha  occ. eigenvalues --   -0.33810  -0.33580  -0.33479  -0.33361  -0.32892
 Alpha  occ. eigenvalues --   -0.32608  -0.32176  -0.31666  -0.31589  -0.31294
 Alpha  occ. eigenvalues --   -0.31181  -0.31079  -0.30416  -0.29983  -0.29389
 Alpha  occ. eigenvalues --   -0.28591  -0.28380  -0.27826  -0.27809  -0.27780
 Alpha  occ. eigenvalues --   -0.27618  -0.27507  -0.27465  -0.27046  -0.27025
 Alpha  occ. eigenvalues --   -0.26920  -0.26375  -0.26328  -0.25720  -0.25465
 Alpha  occ. eigenvalues --   -0.25309  -0.25178  -0.25157  -0.24982  -0.24598
 Alpha  occ. eigenvalues --   -0.24313  -0.24141  -0.24016  -0.23995  -0.23640
 Alpha  occ. eigenvalues --   -0.23585  -0.23256  -0.23183  -0.23118  -0.22489
 Alpha  occ. eigenvalues --   -0.22457  -0.21994  -0.21637  -0.21361  -0.20935
 Alpha  occ. eigenvalues --   -0.20453  -0.20432  -0.20035  -0.19558  -0.17696
 Alpha  occ. eigenvalues --   -0.17437  -0.17169  -0.14670
 Alpha virt. eigenvalues --   -0.13110  -0.09477  -0.04738  -0.03735  -0.02372
 Alpha virt. eigenvalues --   -0.02304  -0.01163  -0.01122   0.00298   0.00468
 Alpha virt. eigenvalues --    0.01187   0.01577   0.01635   0.01762   0.01920

 Mulliken charges:
               1
     1  C    0.052653
     2  C    0.079313
     3  O   -0.405107
     4  H    0.069735
     5  H    0.031071
     6  H    0.011645
     7  N   -0.085488
     8  C    0.110577
     9  C    0.094147
    10  O   -0.248248
    11  C    0.038016
    12  C   -0.006342
    13  O   -0.382002
    14  O   -0.372315
    15  H    0.144302
    16  H   -0.014427
    17  H   -0.016491
    18  H   -0.033130
    19  N   -0.171083
    20  C    0.153899
    21  C    0.053479
    22  O   -0.286113
    23  C   -0.032749
    24  C    0.021526
    25  C   -0.030079
    26  C    0.025713
    27  N    0.076940
    28  H    0.116166
    29  H    0.034219
    30  H    0.005956
    31  H    0.035595
    32  H    0.004650
    33  H    0.014395
    34  H    0.029274
    35  H    0.045468
    36  H    0.063916
    37  H    0.089765
    38  H    0.199800
    39  H    0.194117
    40  H    0.196892
    41  N   -0.127428
    42  C    0.192145
    43  C    0.036348
    44  O   -0.267956
    45  C    0.009072
    46  C    0.124810
    47  O   -0.404296
    48  O   -0.439295
    49  H    0.134653
    50  H    0.027378
    51  H    0.050150
    52  H    0.075303
    53  N   -0.141989
    54  C    0.177088
    55  C    0.013773
    56  O   -0.298408
    57  H    0.114135
    58  H    0.050730
    59  H    0.019423
    60  N   -0.071001
    61  C    0.055557
    62  C    0.082802
    63  O   -0.277335
    64  C    0.061518
    65  C    0.020498
    66  N   -0.040244
    67  O   -0.255643
    68  H    0.136202
    69  H    0.014334
    70  H   -0.021182
    71  H    0.030731
    72  H    0.115778
    73  H    0.133190
    74  N   -0.098348
    75  C    0.124222
    76  C    0.059535
    77  O   -0.276400
    78  H    0.134773
    79  H    0.038785
    80  H    0.020730
    81  N   -0.120783
    82  C    0.127134
    83  C    0.042184
    84  O   -0.291691
    85  C    0.148890
    86  C    0.001039
    87  C    0.029687
    88  C   -0.011056
    89  C   -0.015399
    90  C   -0.052497
    91  C    0.154350
    92  O   -0.209231
    93  H    0.103771
    94  H    0.035340
    95  H   -0.006597
    96  H   -0.024078
    97  H   -0.005570
    98  H   -0.056563
    99  H   -0.029652
   100  H   -0.054831
   101  H    0.164931
   102  N   -0.164148
   103  C    0.176360
   104  C   -0.010497
   105  O   -0.285047
   106  C   -0.087331
   107  C    0.063410
   108  C    0.033121
   109  C    0.019225
   110  H    0.167519
   111  H    0.020577
   112  H   -0.009649
   113  H   -0.011888
   114  H   -0.009845
   115  H    0.010282
   116  H    0.014576
   117  H    0.006609
   118  H   -0.017436
   119  H   -0.000791
   120  H    0.022179
   121  N   -0.153501
   122  C    0.116654
   123  C    0.092739
   124  O   -0.297870
   125  C    0.238255
   126  O   -0.359128
   127  H    0.123932
   128  H    0.009050
   129  H    0.002085
   130  H   -0.009989
   131  H    0.154808
   132  N   -0.129864
   133  C    0.089367
   134  C    0.061303
   135  O   -0.277315
   136  C    0.074485
   137  H    0.139589
   138  H   -0.018109
   139  H    0.026823
   140  H   -0.006319
   141  H    0.038156
   142  N   -0.125864
   143  C    0.041625
   144  C    0.077147
   145  O   -0.270763
   146  C    0.067534
   147  H    0.124228
   148  H    0.014213
   149  H    0.029459
   150  H   -0.013829
   151  H    0.025054
   152  N   -0.123843
   153  C    0.119791
   154  C    0.063717
   155  O   -0.297096
   156  C    0.119132
   157  C   -0.015698
   158  C    0.145127
   159  O   -0.357864
   160  O   -0.455325
   161  H    0.118077
   162  H    0.020539
   163  H    0.020997
   164  H   -0.054425
   165  H   -0.011141
   166  H    0.002259
   167  N   -0.156260
   168  C    0.131243
   169  H    0.020270
   170  H    0.029130
   171  H    0.023292
   172  H    0.111580
   173  Ca   1.456688
   174  O   -0.317738
   175  H    0.216556
   176  H    0.196642
 Sum of Mulliken charges =  -0.00000

 Dipole moment (field-independent basis, Debye):
    X=             29.6010    Y=             10.5394    Z=              2.7362  Tot=             31.5402
 Quadrupole moment (field-independent basis, Debye-Ang):
   XX=           -433.1834   YY=           -526.8218   ZZ=           -483.9089
   XY=             11.0070   XZ=           -178.8339   YZ=             10.1907

 ESP charges:
               1
     1  C   -0.594351
     2  C    0.873336
     3  O   -0.751771
     4  H    0.174020
     5  H    0.160202
     6  H    0.155026
     7  N   -0.600175
     8  C    0.642162
     9  C    0.113471
    10  O   -0.470669
    11  C   -0.548044
    12  C    0.725819
    13  O   -0.686222
    14  O   -0.692644
    15  H    0.313937
    16  H   -0.071766
    17  H    0.103339
    18  H    0.103704
    19  N   -0.033400
    20  C   -0.043972
    21  C    0.508065
    22  O   -0.549358
    23  C   -0.319153
    24  C    0.331714
    25  C   -0.141795
    26  C    0.061069
    27  N   -0.362501
    28  H    0.183396
    29  H    0.122555
    30  H    0.074565
    31  H    0.106141
    32  H   -0.020741
    33  H   -0.080355
    34  H    0.040614
    35  H    0.063526
    36  H    0.061958
    37  H    0.091910
    38  H    0.310229
    39  H    0.339563
    40  H    0.346831
    41  N   -0.314481
    42  C   -0.212627
    43  C    0.862068
    44  O   -0.668286
    45  C    0.132022
    46  C    0.743455
    47  O   -0.786428
    48  O   -0.783112
    49  H    0.172993
    50  H    0.160855
    51  H    0.083452
    52  H   -0.089382
    53  N   -0.677014
    54  C    0.157224
    55  C    0.605288
    56  O   -0.555386
    57  H    0.281397
    58  H    0.045721
    59  H    0.073302
    60  N   -0.676151
    61  C    0.342651
    62  C    0.513383
    63  O   -0.533867
    64  C   -0.217241
    65  C    0.629535
    66  N   -0.792430
    67  O   -0.539818
    68  H    0.365870
    69  H   -0.045150
    70  H    0.050083
    71  H    0.074196
    72  H    0.361454
    73  H    0.386294
    74  N   -0.558109
    75  C   -0.060435
    76  C    0.730135
    77  O   -0.579190
    78  H    0.359549
    79  H    0.069458
    80  H    0.090327
    81  N   -0.693283
    82  C    0.390380
    83  C    0.471888
    84  O   -0.547882
    85  C   -0.103063
    86  C   -0.071059
    87  C    0.003157
    88  C   -0.031632
    89  C   -0.332201
    90  C   -0.421479
    91  C    0.449728
    92  O   -0.573516
    93  H    0.256635
    94  H    0.078327
    95  H    0.028258
    96  H    0.041653
    97  H    0.102346
    98  H    0.100691
    99  H    0.167310
   100  H    0.158407
   101  H    0.402309
   102  N   -0.339221
   103  C   -0.196000
   104  C    0.502351
   105  O   -0.559399
   106  C   -0.111102
   107  C    0.258659
   108  C   -0.170294
   109  C   -0.315547
   110  H    0.143295
   111  H    0.187382
   112  H    0.079294
   113  H   -0.012122
   114  H    0.015881
   115  H    0.051596
   116  H    0.134344
   117  H   -0.090146
   118  H    0.035647
   119  H    0.062015
   120  H    0.085132
   121  N   -0.117009
   122  C   -0.306312
   123  C    0.709539
   124  O   -0.567006
   125  C    0.172061
   126  O   -0.566166
   127  H    0.136465
   128  H    0.121136
   129  H    0.057061
   130  H    0.026769
   131  H    0.286539
   132  N   -0.639067
   133  C    0.394515
   134  C    0.575050
   135  O   -0.478144
   136  C   -0.409421
   137  H    0.400964
   138  H   -0.032920
   139  H    0.110938
   140  H    0.081500
   141  H    0.129561
   142  N   -0.728895
   143  C    0.436560
   144  C    0.366441
   145  O   -0.495959
   146  C   -0.224323
   147  H    0.348292
   148  H   -0.015025
   149  H    0.052575
   150  H    0.055154
   151  H    0.071750
   152  N   -0.486661
   153  C    0.207143
   154  C    0.509592
   155  O   -0.588844
   156  C   -0.349717
   157  C    0.380103
   158  C    0.507706
   159  O   -0.663867
   160  O   -0.465783
   161  H    0.211690
   162  H    0.100490
   163  H    0.157850
   164  H    0.000866
   165  H   -0.119356
   166  H   -0.075404
   167  N   -0.247357
   168  C   -0.197053
   169  H    0.089566
   170  H    0.112352
   171  H    0.085864
   172  H    0.259469
   173  Ca   1.685976
   174  O   -0.814191
   175  H    0.432896
   176  H    0.433467
 Sum of ESP charges =   0.00000

 Normal termination of Gaussian 16 at Wed Sep 18 14:28:11 2019.
