 Gaussian 16, Revision A.03,
 Gaussian 16:  ES64L-G16RevA.03 25-Dec-2016

 ----------------------------------------------------------------------
 #b3lyp/svp scf=(tight,noincore,xqc) Test #IOP(5/87=12) Density=Current
  Pop=(MK,readradii) iop(6/33=2) iop(6/42=6)
 ----------------------------------------------------------------------

 ----------------
 Ng-31_loop3_35.0
 ----------------
 Symbolic Z-matrix:
 Charge =  0 Multiplicity = 1

                         Standard orientation:
 ---------------------------------------------------------------------
 Center     Atomic      Atomic             Coordinates (Angstroms)
 Number     Number       Type             X           Y           Z
 ---------------------------------------------------------------------
      1          6           0        8.204671   -1.104736    3.977999
      2          6           0        7.047456   -0.569328    3.145598
      3          8           0        5.997298   -0.209636    3.665588
      4          1           0        9.042500   -1.343348    3.323178
      5          1           0        8.512932   -0.349626    4.701638
      6          1           0        7.888392   -2.005362    4.503997
      7          7           0        7.289788   -0.428323    1.837052
      8          6           0        6.353978    0.061632    0.846494
      9          6           0        5.441340   -1.043637    0.319642
     10          8           0        4.420384   -0.787839   -0.305510
     11          6           0        7.096465    0.602264   -0.368014
     12          6           0        8.245611   -0.206681   -0.937723
     13          8           0        8.606877   -1.244770   -0.327756
     14          8           0        8.846867    0.079285   -1.994755
     15          1           0        8.196147   -0.800082    1.600392
     16          1           0        5.716370    0.849014    1.245725
     17          1           0        7.410936    1.631378   -0.138816
     18          1           0        6.485308    0.948678   -1.199209
     19          7           0        5.740600   -2.328596    0.516681
     20          6           0        4.851055   -3.446074    0.307033
     21          6           0        4.542357   -3.587147   -1.180954
     22          8           0        5.413237   -3.392241   -2.022786
     23          6           0        5.427975   -4.779435    0.780227
     24          6           0        5.638873   -4.766829    2.288989
     25          6           0        6.284387   -6.042985    2.808255
     26          6           0        6.837936   -6.034604    4.228858
     27          7           0        5.786389   -5.950318    5.253477
     28          1           0        6.679966   -2.552198    0.841324
     29          1           0        3.891511   -3.293020    0.798917
     30          1           0        6.320101   -5.051607    0.206699
     31          1           0        4.737118   -5.588182    0.531742
     32          1           0        4.723404   -4.784170    2.887751
     33          1           0        6.284844   -3.955326    2.646458
     34          1           0        7.123100   -6.260568    2.137944
     35          1           0        5.596898   -6.866975    2.625773
     36          1           0        7.630533   -5.338037    4.512907
     37          1           0        7.279898   -7.015209    4.423755
     38          1           0        5.519123   -4.987069    5.080503
     39          1           0        4.989691   -6.537306    5.093427
     40          1           0        6.180601   -6.165924    6.156257
     41          7           0        3.265744   -3.820241   -1.469619
     42          6           0        2.512952   -3.733306   -2.714105
     43          6           0        2.205609   -2.332489   -3.233962
     44          8           0        1.433045   -2.184878   -4.177072
     45          6           0        1.302148   -4.666764   -2.754255
     46          6           0        0.370953   -4.546377   -1.560780
     47          8           0        0.811434   -4.885708   -0.449550
     48          8           0       -0.836005   -4.316110   -1.818712
     49          1           0        2.686724   -4.064332   -0.684345
     50          1           0        3.141047   -4.188549   -3.472491
     51          1           0        1.694420   -5.683051   -2.816569
     52          1           0        0.694823   -4.485809   -3.637494
     53          7           0        2.930783   -1.393758   -2.631462
     54          6           0        2.797131    0.028160   -2.867442
     55          6           0        4.035774    0.669645   -3.476427
     56          8           0        4.898380    0.004361   -4.030150
     57          1           0        3.534480   -1.706668   -1.878510
     58          1           0        2.626305    0.444103   -1.879358
     59          1           0        1.932347    0.257377   -3.494584
     60          7           0        4.308120    1.978874   -3.460680
     61          6           0        3.531263    2.978597   -2.755311
     62          6           0        4.401915    3.920030   -1.927802
     63          8           0        5.052872    4.813207   -2.471390
     64          6           0        2.801014    3.790538   -3.824417
     65          6           0        1.955930    2.879731   -4.712822
     66          7           0        2.385225    2.647033   -5.955101
     67          8           0        0.893517    2.385513   -4.351538
     68          1           0        5.228861    2.186004   -3.818917
     69          1           0        2.792417    2.541806   -2.089714
     70          1           0        3.509604    4.353041   -4.423074
     71          1           0        2.178498    4.519058   -3.313797
     72          1           0        3.262640    3.077264   -6.211118
     73          1           0        1.662573    2.287069   -6.552847
     74          7           0        4.627619    3.670852   -0.634795
     75          6           0        4.143355    2.650460    0.267862
     76          6           0        2.706511    2.756291    0.767141
     77          8           0        2.290606    1.764832    1.371485
     78          1           0        5.336775    4.306029   -0.300061
     79          1           0        4.876631    2.564642    1.071192
     80          1           0        4.231675    1.686568   -0.227429
     81          7           0        2.042240    3.900142    0.694017
     82          6           0        0.631931    4.002136    1.015304
     83          6           0       -0.103792    3.076713    0.060368
     84          8           0        0.287869    2.840719   -1.076210
     85          6           0        0.188411    5.456847    0.948163
     86          6           0        0.584481    6.267638    2.156073
     87          6           0        0.048621    6.030661    3.419558
     88          6           0        1.556936    7.275030    2.051226
     89          6           0        0.387162    6.826977    4.527065
     90          6           0        1.846364    8.080224    3.155715
     91          6           0        1.206081    7.971646    4.408731
     92          8           0        1.628390    8.635395    5.519223
     93          1           0        2.352271    4.724469    0.194352
     94          1           0        0.587797    3.569906    2.019211
     95          1           0       -0.896522    5.475488    0.832091
     96          1           0        0.558451    5.945598    0.042187
     97          1           0       -0.692831    5.240820    3.420438
     98          1           0        2.062154    7.323857    1.097355
     99          1           0       -0.125190    6.617696    5.456365
    100          1           0        2.628340    8.829689    3.105564
    101          1           0        2.204640    9.387898    5.313613
    102          7           0       -1.261307    2.616453    0.544950
    103          6           0       -1.845236    1.384979    0.063081
    104          6           0       -3.132401    1.589679   -0.720886
    105          8           0       -3.644561    0.637865   -1.316068
    106          6           0       -1.942467    0.210249    1.039122
    107          6           0       -0.579136   -0.375617    1.384214
    108          6           0       -2.649641    0.578517    2.331440
    109          6           0        0.165386   -1.006715    0.202012
    110          1           0       -1.506777    3.006654    1.446054
    111          1           0       -1.162231    1.043762   -0.723288
    112          1           0       -2.473992   -0.581268    0.501646
    113          1           0       -0.726025   -1.197138    2.086800
    114          1           0        0.117159    0.329498    1.835753
    115          1           0       -2.312790    1.507120    2.795365
    116          1           0       -3.726573    0.675414    2.149702
    117          1           0       -2.595103   -0.200330    3.095719
    118          1           0        0.971236   -1.641250    0.562802
    119          1           0       -0.499680   -1.570439   -0.441186
    120          1           0        0.766943   -0.339183   -0.400258
    121          7           0       -3.691168    2.797048   -0.799876
    122          6           0       -4.927000    3.126867   -1.487873
    123          6           0       -6.191012    2.550227   -0.871708
    124          8           0       -6.407473    2.884619    0.287744
    125          6           0       -5.071663    4.649104   -1.415284
    126          8           0       -5.679460    5.134799   -2.587198
    127          1           0       -3.146293    3.424136   -0.234392
    128          1           0       -4.844890    2.852631   -2.537183
    129          1           0       -4.096854    5.076578   -1.176925
    130          1           0       -5.682560    4.953101   -0.553315
    131          1           0       -5.094899    4.930108   -3.324890
    132          7           0       -6.973212    1.712775   -1.573660
    133          6           0       -8.270813    1.273096   -1.101416
    134          6           0       -8.184584   -0.209026   -0.767832
    135          8           0       -7.278329   -0.898483   -1.241489
    136          6           0       -9.329620    1.707574   -2.109114
    137          1           0       -6.655915    1.352395   -2.462451
    138          1           0       -8.592699    1.837548   -0.233439
    139          1           0       -9.155323    2.681421   -2.544593
    140          1           0       -9.303384    0.929287   -2.870481
    141          1           0      -10.295439    1.709296   -1.595800
    142          7           0       -9.176690   -0.659400    0.003005
    143          6           0       -9.445595   -2.055064    0.306503
    144          6           0       -8.173778   -2.740986    0.786183
    145          8           0       -7.781875   -3.797683    0.279721
    146          6           0      -10.046824   -2.695335   -0.937915
    147          1           0       -9.815561    0.050843    0.328427
    148          1           0      -10.282328   -2.064925    1.004485
    149          1           0      -10.458050   -3.688608   -0.746336
    150          1           0      -10.855357   -2.044580   -1.273611
    151          1           0       -9.332673   -2.764252   -1.761467
    152          7           0       -7.409712   -2.054987    1.635894
    153          6           0       -6.240945   -2.610557    2.287298
    154          6           0       -6.072255   -2.186927    3.737084
    155          8           0       -5.726445   -2.999805    4.598331
    156          6           0       -5.023062   -2.290938    1.433831
    157          6           0       -3.786556   -3.159707    1.685212
    158          6           0       -3.868284   -4.528550    1.042959
    159          8           0       -4.224527   -5.510592    1.731278
    160          8           0       -3.401058   -4.646349   -0.114117
    161          1           0       -7.809361   -1.199311    2.008450
    162          1           0       -6.269094   -3.696165    2.368306
    163          1           0       -4.764405   -1.258056    1.654627
    164          1           0       -5.237204   -2.216446    0.366547
    165          1           0       -3.762263   -3.241313    2.772664
    166          1           0       -2.886708   -2.623734    1.375202
    167          7           0       -6.353922   -0.925479    4.079154
    168          6           0       -6.247024   -0.506208    5.461393
    169          1           0       -7.243268   -0.437802    5.897269
    170          1           0       -5.656817   -1.234280    6.017792
    171          1           0       -5.761939    0.468968    5.508977
    172          1           0       -6.726553   -0.343288    3.340235
    173         20           0       -3.178860   -4.057102   -2.658978
    174          8           0       -3.275270   -1.402325   -2.922726
    175          1           0       -2.926732   -1.049785   -3.746945
    176          1           0       -3.398422   -0.624455   -2.374683
 ---------------------------------------------------------------------

 SCF Done:  E(RB3LYP) =  -5332.28353006     A.U. after   33 cycles
 SCF Done:  E(RB3LYP) =  -5333.29938061     a.u. after    7 cycles

 The electronic state is 1-A.
 Alpha  occ. eigenvalues -- -145.48179 -19.17906 -19.16766 -19.15514 -19.12292
 Alpha  occ. eigenvalues --  -19.12182 -19.11310 -19.11221 -19.09056 -19.09010
 Alpha  occ. eigenvalues --  -19.08237 -19.07968 -19.06970 -19.06789 -19.05698
 Alpha  occ. eigenvalues --  -19.05062 -19.04819 -19.04497 -19.03736 -19.03106
 Alpha  occ. eigenvalues --  -19.02721 -19.00402 -18.96563 -18.95407 -15.54040
 Alpha  occ. eigenvalues --  -14.56614 -14.38666 -14.38028 -14.37655 -14.37504
 Alpha  occ. eigenvalues --  -14.36009 -14.35517 -14.35506 -14.34699 -14.32960
 Alpha  occ. eigenvalues --  -14.32149 -14.31665 -14.30801 -14.30657 -14.29586
 Alpha  occ. eigenvalues --  -12.67633 -12.67611 -12.67585 -10.34161 -10.30694
 Alpha  occ. eigenvalues --  -10.30512 -10.30197 -10.29410 -10.28230 -10.28042
 Alpha  occ. eigenvalues --  -10.27091 -10.26949 -10.26639 -10.26212 -10.25930
 Alpha  occ. eigenvalues --  -10.25811 -10.25573 -10.25528 -10.25454 -10.25037
 Alpha  occ. eigenvalues --  -10.24880 -10.24574 -10.23995 -10.23751 -10.23507
 Alpha  occ. eigenvalues --  -10.23424 -10.22911 -10.22778 -10.22285 -10.21955
 Alpha  occ. eigenvalues --  -10.21927 -10.21660 -10.21654 -10.21556 -10.20991
 Alpha  occ. eigenvalues --  -10.20949 -10.20735 -10.20607 -10.20487 -10.20429
 Alpha  occ. eigenvalues --  -10.20428 -10.20238 -10.19851 -10.19114 -10.18908
 Alpha  occ. eigenvalues --  -10.18697 -10.18250 -10.18174 -10.17830 -10.17254
 Alpha  occ. eigenvalues --  -10.16417 -10.15944 -10.15422 -10.14004 -10.13361
 Alpha  occ. eigenvalues --  -10.13240 -10.12743  -1.90526  -1.17816  -1.17654
 Alpha  occ. eigenvalues --   -1.17324  -1.12582  -1.06126  -1.05847  -1.05214
 Alpha  occ. eigenvalues --   -1.04542  -1.04243  -1.03454  -1.02634  -1.02086
 Alpha  occ. eigenvalues --   -1.01936  -1.01488  -1.01085  -1.00584  -1.00069
 Alpha  occ. eigenvalues --   -0.98785  -0.98463  -0.98115  -0.97692  -0.96807
 Alpha  occ. eigenvalues --   -0.95686  -0.95498  -0.95242  -0.94172  -0.93735
 Alpha  occ. eigenvalues --   -0.93086  -0.92180  -0.91196  -0.90851  -0.90620
 Alpha  occ. eigenvalues --   -0.89416  -0.88972  -0.88467  -0.88023  -0.87944
 Alpha  occ. eigenvalues --   -0.87611  -0.87232  -0.86410  -0.86072  -0.85775
 Alpha  occ. eigenvalues --   -0.81955  -0.81400  -0.80931  -0.80069  -0.80040
 Alpha  occ. eigenvalues --   -0.79086  -0.77708  -0.76727  -0.76190  -0.75421
 Alpha  occ. eigenvalues --   -0.75315  -0.75028  -0.74587  -0.73553  -0.72795
 Alpha  occ. eigenvalues --   -0.72689  -0.71663  -0.71619  -0.70976  -0.70489
 Alpha  occ. eigenvalues --   -0.70092  -0.69256  -0.69050  -0.68446  -0.67410
 Alpha  occ. eigenvalues --   -0.66958  -0.66618  -0.66358  -0.65053  -0.63387
 Alpha  occ. eigenvalues --   -0.63220  -0.62665  -0.62529  -0.62324  -0.61819
 Alpha  occ. eigenvalues --   -0.61055  -0.60849  -0.60420  -0.60154  -0.59997
 Alpha  occ. eigenvalues --   -0.59940  -0.59072  -0.58840  -0.57967  -0.57816
 Alpha  occ. eigenvalues --   -0.57476  -0.57421  -0.57324  -0.56313  -0.56073
 Alpha  occ. eigenvalues --   -0.55882  -0.55817  -0.55499  -0.54780  -0.54583
 Alpha  occ. eigenvalues --   -0.54260  -0.53831  -0.53660  -0.53034  -0.53005
 Alpha  occ. eigenvalues --   -0.52633  -0.52502  -0.52174  -0.51736  -0.51446
 Alpha  occ. eigenvalues --   -0.51218  -0.50937  -0.50616  -0.50425  -0.49901
 Alpha  occ. eigenvalues --   -0.49612  -0.49462  -0.49038  -0.48901  -0.48781
 Alpha  occ. eigenvalues --   -0.48519  -0.48385  -0.47950  -0.47725  -0.47457
 Alpha  occ. eigenvalues --   -0.47314  -0.46929  -0.46561  -0.46196  -0.46095
 Alpha  occ. eigenvalues --   -0.45992  -0.45654  -0.45281  -0.45002  -0.44933
 Alpha  occ. eigenvalues --   -0.44559  -0.44437  -0.44400  -0.44158  -0.44100
 Alpha  occ. eigenvalues --   -0.43972  -0.43730  -0.43580  -0.43563  -0.43475
 Alpha  occ. eigenvalues --   -0.43279  -0.43228  -0.43084  -0.42969  -0.42899
 Alpha  occ. eigenvalues --   -0.42632  -0.42501  -0.42215  -0.41891  -0.41821
 Alpha  occ. eigenvalues --   -0.41783  -0.41517  -0.41450  -0.41301  -0.41140
 Alpha  occ. eigenvalues --   -0.40829  -0.40684  -0.40677  -0.40418  -0.40217
 Alpha  occ. eigenvalues --   -0.39902  -0.39729  -0.39621  -0.39554  -0.39474
 Alpha  occ. eigenvalues --   -0.39428  -0.39210  -0.39085  -0.38867  -0.38737
 Alpha  occ. eigenvalues --   -0.38696  -0.38588  -0.38455  -0.38266  -0.38219
 Alpha  occ. eigenvalues --   -0.38123  -0.38099  -0.37868  -0.37769  -0.37558
 Alpha  occ. eigenvalues --   -0.37499  -0.37195  -0.37150  -0.36857  -0.36725
 Alpha  occ. eigenvalues --   -0.36524  -0.36250  -0.36058  -0.35824  -0.35722
 Alpha  occ. eigenvalues --   -0.35589  -0.35547  -0.35405  -0.35286  -0.35085
 Alpha  occ. eigenvalues --   -0.34789  -0.34729  -0.34656  -0.34603  -0.34517
 Alpha  occ. eigenvalues --   -0.34234  -0.33884  -0.33845  -0.33364  -0.32973
 Alpha  occ. eigenvalues --   -0.32246  -0.32158  -0.32066  -0.32045  -0.31644
 Alpha  occ. eigenvalues --   -0.31440  -0.31289  -0.30997  -0.30525  -0.30335
 Alpha  occ. eigenvalues --   -0.30311  -0.30026  -0.29821  -0.29749  -0.29292
 Alpha  occ. eigenvalues --   -0.27900  -0.27670  -0.27618  -0.27450  -0.26977
 Alpha  occ. eigenvalues --   -0.26836  -0.26708  -0.26500  -0.26198  -0.25996
 Alpha  occ. eigenvalues --   -0.25586  -0.24965  -0.24945  -0.24845  -0.24776
 Alpha  occ. eigenvalues --   -0.24660  -0.23963  -0.23835  -0.23457  -0.23199
 Alpha  occ. eigenvalues --   -0.23111  -0.22644  -0.21913  -0.21676  -0.21430
 Alpha  occ. eigenvalues --   -0.21223  -0.20930  -0.20729  -0.20368  -0.19655
 Alpha  occ. eigenvalues --   -0.19241  -0.19229  -0.18950  -0.18499  -0.16026
 Alpha  occ. eigenvalues --   -0.14648  -0.13336  -0.10725
 Alpha virt. eigenvalues --   -0.11647  -0.09469  -0.03435  -0.02872  -0.02599
 Alpha virt. eigenvalues --   -0.02029  -0.01406  -0.01094  -0.00120  -0.00022
 Alpha virt. eigenvalues --    0.00089   0.00197   0.00718   0.00853   0.01391

 Mulliken charges:
               1
     1  C    0.069199
     2  C   -0.037408
     3  O   -0.303654
     4  H    0.012890
     5  H    0.039982
     6  H   -0.029050
     7  N   -0.122850
     8  C    0.183883
     9  C    0.109535
    10  O   -0.305972
    11  C    0.008838
    12  C    0.075119
    13  O   -0.407897
    14  O   -0.334861
    15  H    0.113610
    16  H   -0.015102
    17  H   -0.026307
    18  H    0.000943
    19  N   -0.085553
    20  C    0.121531
    21  C    0.025613
    22  O   -0.240839
    23  C    0.027496
    24  C    0.025411
    25  C   -0.037692
    26  C    0.026956
    27  N    0.086646
    28  H    0.112560
    29  H   -0.004758
    30  H    0.035579
    31  H    0.013255
    32  H   -0.018850
    33  H    0.018115
    34  H    0.049178
    35  H    0.025128
    36  H    0.081992
    37  H    0.045354
    38  H    0.190818
    39  H    0.173466
    40  H    0.171102
    41  N   -0.160210
    42  C    0.103486
    43  C    0.074726
    44  O   -0.300492
    45  C    0.071187
    46  C    0.164608
    47  O   -0.348097
    48  O   -0.492606
    49  H    0.113857
    50  H    0.021067
    51  H   -0.007142
    52  H   -0.036428
    53  N   -0.122956
    54  C    0.192439
    55  C   -0.004157
    56  O   -0.241782
    57  H    0.148167
    58  H    0.040323
    59  H    0.046831
    60  N   -0.125657
    61  C    0.040369
    62  C    0.048996
    63  O   -0.276534
    64  C    0.151812
    65  C   -0.030711
    66  N   -0.018663
    67  O   -0.272033
    68  H    0.134478
    69  H    0.031553
    70  H   -0.008143
    71  H   -0.013171
    72  H    0.117367
    73  H    0.123060
    74  N   -0.125823
    75  C    0.131955
    76  C    0.054713
    77  O   -0.270644
    78  H    0.122743
    79  H    0.069565
    80  H    0.072609
    81  N   -0.101379
    82  C    0.054076
    83  C    0.075747
    84  O   -0.228317
    85  C    0.149441
    86  C   -0.049972
    87  C    0.021949
    88  C    0.018757
    89  C   -0.028300
    90  C   -0.048180
    91  C    0.190950
    92  O   -0.199138
    93  H    0.112443
    94  H    0.021491
    95  H   -0.004447
    96  H    0.004593
    97  H   -0.046090
    98  H   -0.032796
    99  H   -0.013777
   100  H   -0.035500
   101  H    0.186499
   102  N   -0.168393
   103  C    0.150343
   104  C    0.088887
   105  O   -0.342086
   106  C   -0.076090
   107  C    0.003462
   108  C    0.064244
   109  C    0.012857
   110  H    0.125476
   111  H    0.048346
   112  H    0.011777
   113  H    0.007037
   114  H    0.008631
   115  H   -0.026103
   116  H    0.010212
   117  H    0.020671
   118  H    0.005993
   119  H    0.010681
   120  H    0.016854
   121  N   -0.085973
   122  C    0.097333
   123  C    0.092416
   124  O   -0.291223
   125  C    0.246731
   126  O   -0.310334
   127  H    0.111829
   128  H   -0.026891
   129  H   -0.022186
   130  H    0.031464
   131  H    0.164407
   132  N   -0.101586
   133  C    0.032866
   134  C    0.095632
   135  O   -0.262711
   136  C    0.069295
   137  H    0.124682
   138  H    0.013469
   139  H    0.039276
   140  H    0.011578
   141  H    0.007424
   142  N   -0.142459
   143  C    0.054819
   144  C    0.100745
   145  O   -0.255680
   146  C    0.075787
   147  H    0.115787
   148  H    0.015619
   149  H    0.029785
   150  H   -0.017108
   151  H    0.026192
   152  N   -0.112918
   153  C    0.118989
   154  C    0.024000
   155  O   -0.259330
   156  C    0.061995
   157  C    0.059757
   158  C    0.132201
   159  O   -0.325840
   160  O   -0.467791
   161  H    0.088326
   162  H    0.040607
   163  H   -0.065970
   164  H   -0.009646
   165  H   -0.009964
   166  H   -0.001623
   167  N   -0.164366
   168  C    0.130805
   169  H    0.015103
   170  H    0.058309
   171  H    0.015102
   172  H    0.102788
   173  Ca   1.396904
   174  O   -0.352433
   175  H    0.184172
   176  H    0.184920
 Sum of Mulliken charges =   0.00000

 Dipole moment (field-independent basis, Debye):
    X=            -15.6034    Y=             -2.0174    Z=             14.2106  Tot=             21.2009
 Quadrupole moment (field-independent basis, Debye-Ang):
   XX=           -571.8247   YY=           -436.2734   ZZ=           -448.2293
   XY=           -135.9503   XZ=            234.2860   YZ=            -56.9773

 ESP charges:
               1
     1  C   -0.444619
     2  C    0.708954
     3  O   -0.625571
     4  H    0.106937
     5  H    0.134304
     6  H    0.082966
     7  N   -0.548580
     8  C    0.302166
     9  C    0.537931
    10  O   -0.546163
    11  C   -0.252166
    12  C    0.724921
    13  O   -0.705569
    14  O   -0.651010
    15  H    0.259477
    16  H   -0.011141
    17  H    0.014519
    18  H    0.083189
    19  N   -0.498546
    20  C   -0.095281
    21  C    0.648791
    22  O   -0.510060
    23  C   -0.194957
    24  C    0.248711
    25  C   -0.106813
    26  C    0.164442
    27  N   -0.365839
    28  H    0.338339
    29  H    0.112326
    30  H    0.111287
    31  H    0.082421
    32  H   -0.045696
    33  H   -0.077300
    34  H    0.038528
    35  H    0.035272
    36  H    0.066300
    37  H    0.019999
    38  H    0.289747
    39  H    0.328554
    40  H    0.311828
    41  N   -0.634101
    42  C    0.330332
    43  C    0.527754
    44  O   -0.564643
    45  C   -0.386422
    46  C    0.825774
    47  O   -0.618159
    48  O   -0.780578
    49  H    0.255211
    50  H    0.039860
    51  H    0.101205
    52  H    0.031842
    53  N   -0.755429
    54  C    0.501849
    55  C    0.478196
    56  O   -0.503500
    57  H    0.422264
    58  H   -0.017864
    59  H   -0.017436
    60  N   -0.676812
    61  C    0.786762
    62  C    0.238584
    63  O   -0.529291
    64  C   -0.372889
    65  C    0.626064
    66  N   -0.783986
    67  O   -0.550793
    68  H    0.337873
    69  H   -0.200569
    70  H    0.066525
    71  H    0.079897
    72  H    0.367538
    73  H    0.377429
    74  N   -0.153425
    75  C   -0.469038
    76  C    0.715589
    77  O   -0.529001
    78  H    0.247561
    79  H    0.235313
    80  H    0.146858
    81  N   -0.657216
    82  C    0.555557
    83  C    0.413582
    84  O   -0.492461
    85  C   -0.350837
    86  C    0.204397
    87  C   -0.327596
    88  C   -0.256942
    89  C   -0.015979
    90  C   -0.139975
    91  C    0.172359
    92  O   -0.491899
    93  H    0.277665
    94  H   -0.017111
    95  H    0.088128
    96  H    0.111909
    97  H    0.134221
    98  H    0.149005
    99  H    0.107671
   100  H    0.108982
   101  H    0.409471
   102  N   -0.611232
   103  C    0.408172
   104  C    0.545986
   105  O   -0.587039
   106  C   -0.179648
   107  C    0.051714
   108  C   -0.347324
   109  C   -0.080818
   110  H    0.277389
   111  H   -0.003970
   112  H    0.113620
   113  H    0.008166
   114  H    0.015018
   115  H    0.086056
   116  H    0.043109
   117  H    0.131056
   118  H    0.041966
   119  H   -0.032438
   120  H    0.061407
   121  N   -0.392301
   122  C   -0.155012
   123  C    0.869952
   124  O   -0.621932
   125  C    0.322304
   126  O   -0.631098
   127  H    0.234683
   128  H    0.094478
   129  H   -0.025039
   130  H    0.048983
   131  H    0.393450
   132  N   -0.953880
   133  C    0.734051
   134  C    0.371954
   135  O   -0.456459
   136  C   -0.308076
   137  H    0.375784
   138  H   -0.078778
   139  H    0.112156
   140  H    0.045839
   141  H    0.041643
   142  N   -0.530217
   143  C    0.225386
   144  C    0.428523
   145  O   -0.488627
   146  C   -0.273551
   147  H    0.297183
   148  H    0.054998
   149  H    0.082710
   150  H    0.056023
   151  H    0.101712
   152  N   -0.340385
   153  C   -0.094100
   154  C    0.577567
   155  O   -0.526849
   156  C   -0.167143
   157  C   -0.461592
   158  C    0.943682
   159  O   -0.644566
   160  O   -0.873729
   161  H    0.136514
   162  H    0.141995
   163  H    0.073229
   164  H    0.128344
   165  H    0.109268
   166  H    0.179143
   167  N   -0.310349
   168  C   -0.154138
   169  H    0.066683
   170  H    0.124838
   171  H    0.068922
   172  H    0.289442
   173  Ca   1.585235
   174  O   -0.893019
   175  H    0.424739
   176  H    0.446362
 Sum of ESP charges =  -0.00000

 Normal termination of Gaussian 16 at Thu Sep 19 18:54:33 2019.
