 Gaussian 16, Revision A.03,
 Gaussian 16:  ES64L-G16RevA.03 25-Dec-2016

 ----------------------------------------------------------------------
 #b3lyp/svp scf=(tight,noincore) Test #IOP(5/87=12) Density=Current Pop
 =(MK,readradii) iop(6/33=2) iop(6/42=6)
 ----------------------------------------------------------------------

 ----------------
 Ng-31_loop3_52.0
 ----------------
 Symbolic Z-matrix:
 Charge =  0 Multiplicity = 1

                         Standard orientation:
 ---------------------------------------------------------------------
 Center     Atomic      Atomic             Coordinates (Angstroms)
 Number     Number       Type             X           Y           Z
 ---------------------------------------------------------------------
      1          6           0        5.105224    1.223289    5.555364
      2          6           0        4.739404    1.184836    4.071081
      3          8           0        3.574704    1.335427    3.711365
      4          1           0        4.292576    0.791989    6.140528
      5          1           0        6.016535    0.647851    5.720327
      6          1           0        5.265388    2.256249    5.864084
      7          7           0        5.741806    1.073990    3.197638
      8          6           0        5.558412    1.024715    1.759223
      9          6           0        4.907977   -0.245621    1.220910
     10          8           0        3.807518   -0.224513    0.675433
     11          6           0        6.777828    1.410381    0.935581
     12          6           0        7.997357    0.532749    1.182582
     13          8           0        8.584806    0.083610    0.176959
     14          8           0        8.279460    0.209789    2.349893
     15          1           0        6.609289    0.745771    3.607451
     16          1           0        4.738615    1.727412    1.594751
     17          1           0        6.953139    2.446568    1.226242
     18          1           0        6.534040    1.466971   -0.126476
     19          7           0        5.532502   -1.421975    1.298099
     20          6           0        5.080733   -2.645860    0.673911
     21          6           0        5.200661   -2.497846   -0.836423
     22          8           0        6.229723   -2.140571   -1.408948
     23          6           0        5.864981   -3.827987    1.235100
     24          6           0        5.176826   -5.185072    1.107581
     25          6           0        6.225299   -6.279653    1.299146
     26          6           0        5.753686   -7.720157    1.230371
     27          7           0        4.745267   -8.111533    2.231628
     28          1           0        6.483164   -1.386758    1.641615
     29          1           0        4.058085   -2.868264    0.980226
     30          1           0        6.128837   -3.708239    2.282926
     31          1           0        6.870890   -3.946200    0.823429
     32          1           0        4.809745   -5.222659    0.081989
     33          1           0        4.322073   -5.237973    1.769395
     34          1           0        6.625122   -6.134142    2.302823
     35          1           0        7.059182   -6.113979    0.613952
     36          1           0        6.670710   -8.308351    1.355652
     37          1           0        5.435628   -7.877914    0.197292
     38          1           0        4.309594   -9.005588    2.042013
     39          1           0        5.013154   -7.973835    3.191355
     40          1           0        3.944872   -7.546193    1.994653
     41          7           0        4.141290   -3.081711   -1.406805
     42          6           0        3.856153   -3.013022   -2.826974
     43          6           0        3.337690   -1.678786   -3.327984
     44          8           0        3.363601   -1.514558   -4.552140
     45          6           0        2.802515   -4.029004   -3.262666
     46          6           0        1.508515   -3.825707   -2.469991
     47          8           0        1.659048   -3.869825   -1.230316
     48          8           0        0.372958   -4.083955   -2.928703
     49          1           0        3.397064   -3.254079   -0.748386
     50          1           0        4.775126   -3.188996   -3.388330
     51          1           0        3.171272   -5.024858   -2.989002
     52          1           0        2.649277   -3.986162   -4.339273
     53          7           0        3.022234   -0.764601   -2.409260
     54          6           0        2.915191    0.650778   -2.680817
     55          6           0        4.252033    1.362365   -2.490562
     56          8           0        5.343481    0.860500   -2.729044
     57          1           0        2.924337   -1.154407   -1.481808
     58          1           0        2.288167    1.086688   -1.908986
     59          1           0        2.550149    0.823316   -3.699824
     60          7           0        4.229351    2.588842   -1.969276
     61          6           0        3.171759    3.547274   -1.731563
     62          6           0        3.487411    4.330287   -0.452010
     63          8           0        4.324910    5.227460   -0.486285
     64          6           0        3.026239    4.483838   -2.931051
     65          6           0        2.528598    3.658424   -4.107250
     66          7           0        1.231199    3.804946   -4.402355
     67          8           0        3.231623    2.932281   -4.798532
     68          1           0        5.138421    3.022639   -1.924431
     69          1           0        2.198797    3.072805   -1.688866
     70          1           0        3.974659    4.971147   -3.193595
     71          1           0        2.341447    5.317156   -2.825500
     72          1           0        0.696343    4.424725   -3.801103
     73          1           0        0.847646    3.343169   -5.205255
     74          7           0        2.904870    4.014484    0.708987
     75          6           0        2.146903    2.842150    1.085842
     76          6           0        0.649262    2.701313    0.819507
     77          8           0        0.081778    1.631011    0.979553
     78          1           0        3.036405    4.747065    1.392086
     79          1           0        2.443443    2.656303    2.110354
     80          1           0        2.679404    2.050939    0.549439
     81          7           0        0.113842    3.861777    0.432144
     82          6           0       -1.289429    3.980160    0.095815
     83          6           0       -1.584571    3.485385   -1.321572
     84          8           0       -0.896360    3.930439   -2.235734
     85          6           0       -1.643897    5.462636    0.159190
     86          6           0       -1.400156    6.125784    1.489350
     87          6           0       -1.794259    5.536764    2.699780
     88          6           0       -0.880702    7.437353    1.496585
     89          6           0       -1.703008    6.266180    3.891176
     90          6           0       -0.801217    8.162396    2.694498
     91          6           0       -1.267106    7.604104    3.903364
     92          8           0       -1.208903    8.275508    5.088240
     93          1           0        0.666473    4.705506    0.338761
     94          1           0       -1.877960    3.426651    0.825582
     95          1           0       -2.734136    5.396213    0.110537
     96          1           0       -1.180593    6.005120   -0.665953
     97          1           0       -2.201657    4.543830    2.786432
     98          1           0       -0.566888    7.909298    0.584396
     99          1           0       -1.940268    5.755275    4.808010
    100          1           0       -0.498669    9.193777    2.613154
    101          1           0       -0.942786    9.164763    4.845735
    102          7           0       -2.499316    2.533113   -1.509778
    103          6           0       -2.748284    1.908982   -2.792499
    104          6           0       -4.225056    1.655372   -3.035455
    105          8           0       -4.537638    1.759784   -4.220314
    106          6           0       -2.040594    0.562302   -2.909663
    107          6           0       -1.901621    0.055449   -4.349380
    108          6           0       -0.714693    0.518694   -2.156413
    109          6           0       -1.252900   -1.321007   -4.454876
    110          1           0       -2.978755    2.226633   -0.678148
    111          1           0       -2.275319    2.508640   -3.577174
    112          1           0       -2.678358   -0.138562   -2.367679
    113          1           0       -1.271893    0.742852   -4.914906
    114          1           0       -2.837545    0.184384   -4.893736
    115          1           0       -0.815556    0.656775   -1.079538
    116          1           0       -0.284970   -0.474435   -2.261927
    117          1           0       -0.107991    1.403743   -2.385330
    118          1           0       -1.156643   -1.508676   -5.527311
    119          1           0       -0.295249   -1.361355   -3.934609
    120          1           0       -1.859514   -2.089123   -3.978520
    121          7           0       -5.019916    1.251653   -2.040564
    122          6           0       -6.410164    0.889393   -2.123492
    123          6           0       -6.921089   -0.010029   -1.010031
    124          8           0       -6.682450    0.243234    0.173950
    125          6           0       -7.253781    2.167018   -2.175313
    126          8           0       -7.156693    2.999838   -3.313331
    127          1           0       -4.706344    1.587366   -1.141692
    128          1           0       -6.550495    0.389169   -3.080876
    129          1           0       -7.011744    2.757692   -1.295869
    130          1           0       -8.296619    1.859760   -2.161901
    131          1           0       -7.333077    2.413287   -4.056128
    132          7           0       -7.671525   -1.056267   -1.378993
    133          6           0       -8.100511   -2.014536   -0.387281
    134          6           0       -6.995289   -2.808494    0.292655
    135          8           0       -5.963093   -3.190830   -0.248816
    136          6           0       -9.070284   -3.018613   -0.985838
    137          1           0       -7.656906   -1.158050   -2.387718
    138          1           0       -8.701487   -1.533221    0.400669
    139          1           0       -8.597981   -3.409094   -1.883754
    140          1           0       -9.364781   -3.821798   -0.307114
    141          1           0       -9.951684   -2.444771   -1.301972
    142          7           0       -7.280781   -2.977018    1.582381
    143          6           0       -6.473010   -3.716028    2.544811
    144          6           0       -5.010098   -3.325818    2.654919
    145          8           0       -4.186738   -4.144905    3.054637
    146          6           0       -6.733715   -5.202222    2.319733
    147          1           0       -8.107746   -2.559353    1.965636
    148          1           0       -6.856991   -3.437086    3.527333
    149          1           0       -6.461805   -5.734238    3.236261
    150          1           0       -7.792184   -5.424503    2.162456
    151          1           0       -6.160308   -5.556331    1.459959
    152          7           0       -4.626413   -2.064173    2.414214
    153          6           0       -3.311883   -1.560983    2.731249
    154          6           0       -3.067193   -1.255989    4.206412
    155          8           0       -1.951079   -1.339634    4.722836
    156          6           0       -3.053491   -0.327904    1.861509
    157          6           0       -3.015531   -0.589073    0.358262
    158          6           0       -2.150413   -1.737830   -0.155187
    159          8           0       -1.140880   -2.120016    0.474874
    160          8           0       -2.526301   -2.395848   -1.137338
    161          1           0       -5.340309   -1.387848    2.177703
    162          1           0       -2.513332   -2.283658    2.583072
    163          1           0       -2.044201   -0.004583    2.105228
    164          1           0       -3.749167    0.482766    2.085670
    165          1           0       -2.568145    0.303035   -0.092169
    166          1           0       -4.035267   -0.746190    0.023071
    167          7           0       -4.145424   -0.901511    4.906957
    168          6           0       -4.197099   -0.495832    6.298271
    169          1           0       -4.723581   -1.254033    6.878385
    170          1           0       -3.183213   -0.384369    6.682803
    171          1           0       -4.724487    0.454125    6.381099
    172          1           0       -5.022503   -0.893393    4.403105
    173         20           0       -0.880271   -4.431684   -0.523160
    174          8           0       -3.338586   -5.297935    0.089130
    175          1           0       -3.987170   -4.601236    0.260441
    176          1           0       -3.777034   -6.095465    0.388979
 ---------------------------------------------------------------------

 SCF Done:  E(RB3LYP) =  -5333.38718844     A.U. after   32 cycles

 The electronic state is 1-A.
 Alpha  occ. eigenvalues -- -145.45419 -19.20676 -19.16432 -19.14485 -19.14206
 Alpha  occ. eigenvalues --  -19.14147 -19.12344 -19.09651 -19.09310 -19.08469
 Alpha  occ. eigenvalues --  -19.08302 -19.08107 -19.07402 -19.06791 -19.06683
 Alpha  occ. eigenvalues --  -19.06467 -19.05216 -19.04973 -19.04773 -19.04066
 Alpha  occ. eigenvalues --  -19.03675 -19.02722 -18.97397 -18.96542 -15.51335
 Alpha  occ. eigenvalues --  -14.57563 -14.40405 -14.40216 -14.37738 -14.37049
 Alpha  occ. eigenvalues --  -14.36109 -14.35717 -14.34439 -14.33083 -14.30993
 Alpha  occ. eigenvalues --  -14.30789 -14.30499 -14.30085 -14.30036 -14.29261
 Alpha  occ. eigenvalues --  -12.64934 -12.64900 -12.64855 -10.34158 -10.32646
 Alpha  occ. eigenvalues --  -10.32512 -10.31285 -10.28299 -10.28168 -10.28139
 Alpha  occ. eigenvalues --  -10.28050 -10.27424 -10.26592 -10.26534 -10.26377
 Alpha  occ. eigenvalues --  -10.26268 -10.25710 -10.25622 -10.25275 -10.25002
 Alpha  occ. eigenvalues --  -10.23969 -10.23709 -10.23522 -10.23126 -10.23052
 Alpha  occ. eigenvalues --  -10.23012 -10.22960 -10.22802 -10.22632 -10.22483
 Alpha  occ. eigenvalues --  -10.22381 -10.22095 -10.21529 -10.20999 -10.20917
 Alpha  occ. eigenvalues --  -10.19872 -10.19510 -10.19278 -10.19174 -10.19088
 Alpha  occ. eigenvalues --  -10.19085 -10.19035 -10.18612 -10.18517 -10.18253
 Alpha  occ. eigenvalues --  -10.17444 -10.17189 -10.17154 -10.16993 -10.16281
 Alpha  occ. eigenvalues --  -10.16078 -10.15629 -10.15400 -10.14050 -10.13195
 Alpha  occ. eigenvalues --  -10.12863 -10.10449  -1.88054  -1.15439  -1.15280
 Alpha  occ. eigenvalues --   -1.14970  -1.13043  -1.07652  -1.06571  -1.06099
 Alpha  occ. eigenvalues --   -1.05431  -1.05319  -1.03307  -1.03054  -1.02790
 Alpha  occ. eigenvalues --   -1.02108  -1.01869  -1.01362  -1.00866  -1.00050
 Alpha  occ. eigenvalues --   -0.98766  -0.98029  -0.97588  -0.97480  -0.96936
 Alpha  occ. eigenvalues --   -0.96787  -0.96619  -0.95826  -0.94308  -0.94174
 Alpha  occ. eigenvalues --   -0.92511  -0.91937  -0.91928  -0.91692  -0.91357
 Alpha  occ. eigenvalues --   -0.91001  -0.89152  -0.88689  -0.88270  -0.87415
 Alpha  occ. eigenvalues --   -0.87227  -0.86211  -0.86111  -0.85631  -0.84736
 Alpha  occ. eigenvalues --   -0.84278  -0.81712  -0.80999  -0.80892  -0.79667
 Alpha  occ. eigenvalues --   -0.78874  -0.78471  -0.77669  -0.75928  -0.74343
 Alpha  occ. eigenvalues --   -0.74321  -0.74145  -0.73601  -0.73371  -0.73365
 Alpha  occ. eigenvalues --   -0.71922  -0.71219  -0.71116  -0.69939  -0.69652
 Alpha  occ. eigenvalues --   -0.69215  -0.68856  -0.68529  -0.68072  -0.67374
 Alpha  occ. eigenvalues --   -0.67155  -0.66310  -0.65419  -0.65039  -0.64513
 Alpha  occ. eigenvalues --   -0.63900  -0.62908  -0.61954  -0.61743  -0.61348
 Alpha  occ. eigenvalues --   -0.61118  -0.60830  -0.60496  -0.60328  -0.59833
 Alpha  occ. eigenvalues --   -0.59117  -0.58911  -0.58859  -0.58776  -0.58757
 Alpha  occ. eigenvalues --   -0.58448  -0.56746  -0.56666  -0.56048  -0.55889
 Alpha  occ. eigenvalues --   -0.55116  -0.54825  -0.54353  -0.54314  -0.54286
 Alpha  occ. eigenvalues --   -0.53911  -0.53658  -0.53219  -0.52776  -0.52622
 Alpha  occ. eigenvalues --   -0.52437  -0.52219  -0.51696  -0.51367  -0.51019
 Alpha  occ. eigenvalues --   -0.50695  -0.50603  -0.50420  -0.50216  -0.50196
 Alpha  occ. eigenvalues --   -0.49752  -0.49721  -0.49310  -0.48382  -0.48241
 Alpha  occ. eigenvalues --   -0.47986  -0.47958  -0.47831  -0.47544  -0.47381
 Alpha  occ. eigenvalues --   -0.47024  -0.46802  -0.46432  -0.46365  -0.46177
 Alpha  occ. eigenvalues --   -0.46080  -0.45590  -0.45548  -0.45529  -0.45335
 Alpha  occ. eigenvalues --   -0.45153  -0.44951  -0.44481  -0.44024  -0.43895
 Alpha  occ. eigenvalues --   -0.43785  -0.43659  -0.43610  -0.43250  -0.43203
 Alpha  occ. eigenvalues --   -0.43123  -0.43048  -0.42799  -0.42676  -0.42606
 Alpha  occ. eigenvalues --   -0.42452  -0.42279  -0.42222  -0.42092  -0.42009
 Alpha  occ. eigenvalues --   -0.41896  -0.41562  -0.41462  -0.41292  -0.41140
 Alpha  occ. eigenvalues --   -0.40892  -0.40847  -0.40830  -0.40574  -0.40477
 Alpha  occ. eigenvalues --   -0.40218  -0.40132  -0.39870  -0.39687  -0.39623
 Alpha  occ. eigenvalues --   -0.39382  -0.39326  -0.39209  -0.38949  -0.38660
 Alpha  occ. eigenvalues --   -0.38572  -0.38474  -0.38212  -0.38179  -0.38125
 Alpha  occ. eigenvalues --   -0.37919  -0.37751  -0.37677  -0.37453  -0.37393
 Alpha  occ. eigenvalues --   -0.37095  -0.37004  -0.36686  -0.36404  -0.36320
 Alpha  occ. eigenvalues --   -0.35938  -0.35798  -0.35699  -0.35614  -0.35603
 Alpha  occ. eigenvalues --   -0.35367  -0.34956  -0.34750  -0.34548  -0.34451
 Alpha  occ. eigenvalues --   -0.34395  -0.34285  -0.34150  -0.33827  -0.33566
 Alpha  occ. eigenvalues --   -0.33395  -0.33208  -0.32986  -0.32890  -0.32746
 Alpha  occ. eigenvalues --   -0.32672  -0.32625  -0.32273  -0.32056  -0.31888
 Alpha  occ. eigenvalues --   -0.31727  -0.31473  -0.31148  -0.31079  -0.30605
 Alpha  occ. eigenvalues --   -0.30278  -0.29960  -0.29775  -0.29692  -0.29214
 Alpha  occ. eigenvalues --   -0.29178  -0.28376  -0.28032  -0.27931  -0.27071
 Alpha  occ. eigenvalues --   -0.26543  -0.26482  -0.26434  -0.25815  -0.25708
 Alpha  occ. eigenvalues --   -0.25498  -0.25333  -0.25300  -0.25012  -0.24761
 Alpha  occ. eigenvalues --   -0.24178  -0.23748  -0.23707  -0.23293  -0.23223
 Alpha  occ. eigenvalues --   -0.23158  -0.22733  -0.22690  -0.22230  -0.22104
 Alpha  occ. eigenvalues --   -0.21934  -0.21772  -0.21281  -0.20883  -0.20232
 Alpha  occ. eigenvalues --   -0.20124  -0.19329  -0.18973  -0.18822  -0.18041
 Alpha  occ. eigenvalues --   -0.14489  -0.14157  -0.11718
 Alpha virt. eigenvalues --   -0.10612  -0.09378  -0.04017  -0.03887  -0.03258
 Alpha virt. eigenvalues --   -0.03116  -0.01810  -0.01654  -0.00692  -0.00500
 Alpha virt. eigenvalues --    0.00098   0.00690   0.01045   0.01285   0.01620

 Mulliken charges:
               1
     1  C    0.062485
     2  C   -0.002165
     3  O   -0.295520
     4  H    0.016957
     5  H    0.002460
     6  H    0.035586
     7  N   -0.114720
     8  C    0.116469
     9  C    0.078519
    10  O   -0.302315
    11  C    0.104328
    12  C    0.036878
    13  O   -0.307864
    14  O   -0.394813
    15  H    0.107537
    16  H   -0.030762
    17  H   -0.009053
    18  H    0.011492
    19  N   -0.123683
    20  C    0.129993
    21  C    0.087103
    22  O   -0.219770
    23  C    0.034897
    24  C   -0.007122
    25  C   -0.061798
    26  C    0.050341
    27  N    0.129520
    28  H    0.137893
    29  H   -0.017474
    30  H   -0.002507
    31  H    0.021348
    32  H    0.008814
    33  H   -0.023930
    34  H    0.012542
    35  H    0.070003
    36  H    0.067341
    37  H    0.071018
    38  H    0.135421
    39  H    0.161639
    40  H    0.133958
    41  N   -0.161469
    42  C    0.081701
    43  C    0.053748
    44  O   -0.279530
    45  C    0.120040
    46  C    0.135280
    47  O   -0.466904
    48  O   -0.401351
    49  H    0.130225
    50  H    0.029895
    51  H   -0.013070
    52  H    0.030549
    53  N   -0.137387
    54  C    0.197261
    55  C    0.044486
    56  O   -0.234765
    57  H    0.128625
    58  H    0.005141
    59  H    0.065972
    60  N   -0.112324
    61  C    0.021870
    62  C    0.083949
    63  O   -0.268456
    64  C    0.158303
    65  C   -0.053208
    66  N   -0.035543
    67  O   -0.256289
    68  H    0.132156
    69  H    0.004411
    70  H    0.024658
    71  H   -0.028730
    72  H    0.123622
    73  H    0.121328
    74  N   -0.160937
    75  C    0.129375
    76  C    0.093244
    77  O   -0.247473
    78  H    0.123597
    79  H    0.062419
    80  H    0.068522
    81  N   -0.117484
    82  C    0.077206
    83  C    0.098776
    84  O   -0.299571
    85  C    0.134470
    86  C   -0.011485
    87  C   -0.003487
    88  C   -0.013314
    89  C   -0.031431
    90  C   -0.055315
    91  C    0.181537
    92  O   -0.182347
    93  H    0.121430
    94  H   -0.018529
    95  H    0.002075
    96  H    0.013331
    97  H   -0.030671
    98  H   -0.030493
    99  H   -0.025855
   100  H   -0.037768
   101  H    0.170905
   102  N   -0.126096
   103  C    0.170901
   104  C    0.087366
   105  O   -0.270783
   106  C   -0.155574
   107  C    0.039533
   108  C    0.043896
   109  C    0.043738
   110  H    0.127006
   111  H    0.012808
   112  H   -0.009171
   113  H   -0.029244
   114  H   -0.014259
   115  H    0.021820
   116  H    0.033587
   117  H    0.010455
   118  H   -0.003610
   119  H    0.032849
   120  H    0.004736
   121  N   -0.115131
   122  C    0.078087
   123  C    0.109619
   124  O   -0.305900
   125  C    0.252442
   126  O   -0.280784
   127  H    0.110809
   128  H   -0.013565
   129  H    0.008339
   130  H   -0.026026
   131  H    0.161192
   132  N   -0.106819
   133  C    0.060133
   134  C    0.096401
   135  O   -0.256528
   136  C    0.044989
   137  H    0.134485
   138  H    0.005830
   139  H    0.027513
   140  H    0.024743
   141  H    0.033426
   142  N   -0.141936
   143  C    0.049898
   144  C    0.043190
   145  O   -0.277717
   146  C    0.079172
   147  H    0.123742
   148  H    0.023182
   149  H    0.029248
   150  H    0.005569
   151  H   -0.000498
   152  N   -0.118679
   153  C    0.110636
   154  C    0.042435
   155  O   -0.257947
   156  C    0.031764
   157  C    0.095481
   158  C    0.087574
   159  O   -0.440980
   160  O   -0.404857
   161  H    0.125390
   162  H    0.015371
   163  H    0.049984
   164  H   -0.030383
   165  H   -0.024129
   166  H    0.006683
   167  N   -0.156452
   168  C    0.125866
   169  H    0.014795
   170  H    0.053982
   171  H    0.017945
   172  H    0.084241
   173  Ca   1.344956
   174  O   -0.342894
   175  H    0.220663
   176  H    0.185520
 Sum of Mulliken charges =  -0.00000

 Dipole moment (field-independent basis, Debye):
    X=            -31.1851    Y=            -35.3672    Z=             17.8089  Tot=             50.4034
 Quadrupole moment (field-independent basis, Debye-Ang):
   XX=           -593.3907   YY=           -224.6400   ZZ=           -611.8563
   XY=           -102.2809   XZ=             42.2566   YZ=            -56.6052

 ESP charges:
               1
     1  C   -0.452379
     2  C    0.755460
     3  O   -0.628799
     4  H    0.115947
     5  H    0.093188
     6  H    0.131220
     7  N   -0.639312
     8  C    0.116695
     9  C    0.776404
    10  O   -0.611099
    11  C   -0.164021
    12  C    0.678537
    13  O   -0.608026
    14  O   -0.698868
    15  H    0.323620
    16  H    0.111862
    17  H    0.051443
    18  H    0.030217
    19  N   -0.869418
    20  C    0.561334
    21  C    0.362979
    22  O   -0.447187
    23  C   -0.239653
    24  C    0.043051
    25  C    0.020644
    26  C    0.044471
    27  N   -0.323625
    28  H    0.368497
    29  H   -0.015924
    30  H    0.066806
    31  H    0.078629
    32  H   -0.027259
    33  H   -0.027413
    34  H    0.004646
    35  H    0.071154
    36  H    0.057121
    37  H    0.070919
    38  H    0.271263
    39  H    0.320642
    40  H    0.255720
    41  N   -0.444953
    42  C    0.152701
    43  C    0.452489
    44  O   -0.524412
    45  C   -0.301459
    46  C    0.845965
    47  O   -0.862235
    48  O   -0.761399
    49  H    0.286950
    50  H    0.083245
    51  H    0.074550
    52  H    0.100927
    53  N   -0.384585
    54  C    0.024864
    55  C    0.703982
    56  O   -0.507122
    57  H    0.259730
    58  H    0.111649
    59  H    0.082191
    60  N   -0.835783
    61  C    0.393096
    62  C    0.424157
    63  O   -0.526422
    64  C   -0.400222
    65  C    0.682225
    66  N   -0.789966
    67  O   -0.539407
    68  H    0.409247
    69  H   -0.029777
    70  H    0.137300
    71  H    0.090480
    72  H    0.348103
    73  H    0.378337
    74  N   -0.395049
    75  C   -0.164742
    76  C    0.600967
    77  O   -0.541046
    78  H    0.287763
    79  H    0.165872
    80  H    0.081195
    81  N   -0.490840
    82  C    0.166617
    83  C    0.605958
    84  O   -0.528448
    85  C   -0.367163
    86  C    0.242769
    87  C   -0.261304
    88  C   -0.231603
    89  C   -0.191228
    90  C   -0.256719
    91  C    0.306067
    92  O   -0.508931
    93  H    0.280551
    94  H    0.054172
    95  H    0.088893
    96  H    0.117767
    97  H    0.157562
    98  H    0.163016
    99  H    0.156900
   100  H    0.135589
   101  H    0.392188
   102  N   -0.574493
   103  C    0.024262
   104  C    0.502612
   105  O   -0.541894
   106  C    0.237667
   107  C    0.123240
   108  C   -0.503380
   109  C   -0.267685
   110  H    0.278054
   111  H    0.091836
   112  H   -0.121185
   113  H   -0.017841
   114  H   -0.014498
   115  H    0.187865
   116  H    0.130041
   117  H    0.087454
   118  H    0.060813
   119  H    0.090835
   120  H    0.062936
   121  N   -0.255559
   122  C   -0.039540
   123  C    0.439629
   124  O   -0.527820
   125  C    0.247950
   126  O   -0.566354
   127  H    0.220934
   128  H    0.074750
   129  H    0.052672
   130  H   -0.033208
   131  H    0.386869
   132  N   -0.507025
   133  C    0.297636
   134  C    0.719554
   135  O   -0.578125
   136  C   -0.383281
   137  H    0.323152
   138  H    0.032901
   139  H    0.103008
   140  H    0.110276
   141  H    0.103007
   142  N   -0.818633
   143  C    0.554615
   144  C    0.199689
   145  O   -0.497664
   146  C   -0.403745
   147  H    0.338183
   148  H    0.013096
   149  H    0.090243
   150  H    0.116640
   151  H    0.099000
   152  N   -0.338206
   153  C    0.089563
   154  C    0.550441
   155  O   -0.527148
   156  C   -0.522788
   157  C    0.665882
   158  C    0.681638
   159  O   -0.790427
   160  O   -0.739888
   161  H    0.260744
   162  H    0.062337
   163  H    0.152430
   164  H    0.081808
   165  H   -0.168456
   166  H   -0.171936
   167  N   -0.278682
   168  C   -0.131035
   169  H    0.064204
   170  H    0.108475
   171  H    0.065686
   172  H    0.219198
   173  Ca   1.663802
   174  O   -0.857187
   175  H    0.440045
   176  H    0.439308
 Sum of ESP charges =   0.00000

 Normal termination of Gaussian 16 at Wed Sep 18 20:18:44 2019.
