 Gaussian 16, Revision A.03,
 Gaussian 16:  ES64L-G16RevA.03 25-Dec-2016

 ----------------------------------------------------------------------
 #b3lyp/svp scf=(tight,noincore) Test #IOP(5/87=12) Density=Current Pop
 =(MK,readradii) iop(6/33=2) iop(6/42=6)
 ----------------------------------------------------------------------

 ----------------
 Ng-31_loop3_46.0
 ----------------
 Symbolic Z-matrix:
 Charge =  0 Multiplicity = 1

                         Standard orientation:
 ---------------------------------------------------------------------
 Center     Atomic      Atomic             Coordinates (Angstroms)
 Number     Number       Type             X           Y           Z
 ---------------------------------------------------------------------
      1          6           0        8.804189    0.043427    3.803671
      2          6           0        7.529345    0.172169    2.978566
      3          8           0        6.453874    0.139759    3.565261
      4          1           0        9.618922   -0.291440    3.162348
      5          1           0        9.056820    1.011434    4.235735
      6          1           0        8.648893   -0.682270    4.602031
      7          7           0        7.590425    0.333304    1.649617
      8          6           0        6.433805    0.627572    0.829473
      9          6           0        5.669676   -0.630400    0.419091
     10          8           0        4.525266   -0.485046   -0.017027
     11          6           0        6.795452    1.393418   -0.444847
     12          6           0        7.949863    0.788327   -1.235163
     13          8           0        8.528757   -0.267875   -0.894693
     14          8           0        8.529686    1.419945   -2.141676
     15          1           0        8.442234    0.144298    1.141977
     16          1           0        5.833602    1.291821    1.435798
     17          1           0        7.123934    2.374098   -0.114596
     18          1           0        5.905833    1.572264   -1.055494
     19          7           0        6.218332   -1.800384    0.741139
     20          6           0        5.467653   -3.034122    0.652986
     21          6           0        5.202510   -3.510877   -0.765818
     22          8           0        6.157931   -3.517671   -1.537584
     23          6           0        6.216031   -4.093235    1.466072
     24          6           0        6.290347   -3.764983    2.953664
     25          6           0        6.707965   -4.986566    3.766086
     26          6           0        6.833232   -4.627187    5.238347
     27          7           0        7.303125   -5.689703    6.149588
     28          1           0        7.150505   -1.804042    1.144426
     29          1           0        4.512587   -2.913166    1.175019
     30          1           0        7.191149   -4.290376    1.012551
     31          1           0        5.644771   -5.004298    1.272613
     32          1           0        5.263338   -3.594009    3.279425
     33          1           0        6.849125   -2.864378    3.188774
     34          1           0        7.627686   -5.365121    3.308038
     35          1           0        5.926428   -5.732130    3.666403
     36          1           0        5.816109   -4.404888    5.551147
     37          1           0        7.565361   -3.820773    5.271276
     38          1           0        6.940048   -5.439233    7.049610
     39          1           0        6.751968   -6.521084    5.962952
     40          1           0        8.297520   -5.868138    6.124294
     41          7           0        3.912786   -3.603747   -1.098818
     42          6           0        3.342416   -3.642287   -2.427047
     43          6           0        2.618972   -2.338701   -2.739124
     44          8           0        1.959013   -2.276673   -3.776045
     45          6           0        2.454841   -4.861904   -2.687130
     46          6           0        1.379596   -5.088136   -1.625637
     47          8           0        1.163675   -4.188477   -0.797028
     48          8           0        0.880642   -6.233792   -1.520202
     49          1           0        3.282273   -3.526622   -0.317662
     50          1           0        4.286322   -3.606296   -2.961039
     51          1           0        3.110449   -5.722410   -2.601058
     52          1           0        2.020343   -4.762983   -3.676032
     53          7           0        2.843118   -1.250010   -2.014477
     54          6           0        2.435110    0.083338   -2.431025
     55          6           0        3.433325    0.674126   -3.419274
     56          8           0        4.483732    0.154078   -3.782448
     57          1           0        3.410149   -1.440151   -1.200830
     58          1           0        2.537062    0.724099   -1.567353
     59          1           0        1.378055    0.125297   -2.708466
     60          7           0        3.227777    1.906377   -3.896565
     61          6           0        2.130691    2.776878   -3.531420
     62          6           0        2.727598    4.160741   -3.336417
     63          8           0        2.606038    5.002716   -4.222646
     64          6           0        0.991143    2.762049   -4.544095
     65          6           0        0.299207    1.397370   -4.565888
     66          7           0        0.754706    0.372024   -5.277427
     67          8           0       -0.604926    1.192513   -3.759863
     68          1           0        3.978912    2.267882   -4.469025
     69          1           0        1.744290    2.433241   -2.571469
     70          1           0        1.365175    2.967344   -5.552090
     71          1           0        0.248906    3.497677   -4.264927
     72          1           0        1.387921    0.526300   -6.042892
     73          1           0        0.125725   -0.418799   -5.385970
     74          7           0        3.260790    4.507624   -2.157995
     75          6           0        3.420049    3.600865   -1.036645
     76          6           0        2.293433    3.592026   -0.017598
     77          8           0        2.166473    2.639109    0.756696
     78          1           0        3.640169    5.442494   -2.116900
     79          1           0        4.301869    4.023707   -0.541369
     80          1           0        3.548595    2.588542   -1.405937
     81          7           0        1.360801    4.546848   -0.095787
     82          6           0        0.034489    4.485339    0.485257
     83          6           0       -0.911456    3.907231   -0.557997
     84          8           0       -0.611820    3.913916   -1.753394
     85          6           0       -0.432036    5.857222    0.963578
     86          6           0        0.485045    6.644819    1.873113
     87          6           0        0.772271    6.204940    3.174039
     88          6           0        1.077507    7.816445    1.394072
     89          6           0        1.750441    6.877419    3.928927
     90          6           0        1.969678    8.558650    2.174305
     91          6           0        2.315922    8.068270    3.451428
     92          8           0        3.281832    8.654865    4.219493
     93          1           0        1.630846    5.335005   -0.657287
     94          1           0        0.015366    3.861418    1.379269
     95          1           0       -1.435428    5.784040    1.374370
     96          1           0       -0.613824    6.454407    0.065067
     97          1           0        0.209544    5.401357    3.605540
     98          1           0        1.005169    8.150697    0.371114
     99          1           0        1.928965    6.547381    4.941549
    100          1           0        2.529974    9.391617    1.787866
    101          1           0        3.494434    9.564772    3.988260
    102          7           0       -1.932593    3.251640   -0.005839
    103          6           0       -2.546491    2.109181   -0.654313
    104          6           0       -4.052704    2.234783   -0.819677
    105          8           0       -4.509003    1.514098   -1.699168
    106          6           0       -2.061792    0.794934   -0.041924
    107          6           0       -0.603327    0.553394   -0.433766
    108          6           0       -2.287218    0.680866    1.456065
    109          6           0       -0.025311   -0.821066   -0.096634
    110          1           0       -2.197685    3.437828    0.945823
    111          1           0       -2.218768    2.080197   -1.691789
    112          1           0       -2.693839   -0.003249   -0.436537
    113          1           0        0.091083    1.169066    0.149794
    114          1           0       -0.466079    0.670416   -1.501272
    115          1           0       -1.501506    1.197536    2.018122
    116          1           0       -3.267007    1.062423    1.733606
    117          1           0       -2.249859   -0.337855    1.840527
    118          1           0       -0.682406   -1.634421   -0.416132
    119          1           0        0.965960   -0.903452   -0.530909
    120          1           0       -0.058582   -0.979916    0.977125
    121          7           0       -4.835097    3.068328   -0.129413
    122          6           0       -6.200029    3.472968   -0.393658
    123          6           0       -7.127348    2.604319    0.435636
    124          8           0       -7.047863    2.612289    1.661898
    125          6           0       -6.298124    4.963267   -0.068100
    126          8           0       -5.413552    5.649476   -0.927199
    127          1           0       -4.346428    3.554425    0.609649
    128          1           0       -6.375892    3.258575   -1.446135
    129          1           0       -5.971060    5.126604    0.959251
    130          1           0       -7.338005    5.148744   -0.342775
    131          1           0       -5.194760    6.470696   -0.463380
    132          7           0       -8.143105    1.970153   -0.157636
    133          6           0       -9.104944    1.085226    0.465155
    134          6           0       -8.754903   -0.392417    0.304712
    135          8           0       -7.972438   -0.752619   -0.578805
    136          6           0      -10.504454    1.537532    0.039255
    137          1           0       -8.173185    2.081677   -1.166228
    138          1           0       -9.019276    1.201834    1.547681
    139          1           0      -10.807783    2.424184    0.603117
    140          1           0      -10.489689    1.825080   -1.017343
    141          1           0      -11.203166    0.724374    0.221123
    142          7           0       -9.361177   -1.341750    1.013089
    143          6           0       -9.106580   -2.771500    0.984922
    144          6           0       -7.673046   -3.274493    1.081773
    145          8           0       -7.403517   -4.326764    0.499812
    146          6           0       -9.976525   -3.303308   -0.148778
    147          1           0      -10.101195   -1.078628    1.644865
    148          1           0       -9.578729   -3.242982    1.843863
    149          1           0       -9.635000   -2.974085   -1.130600
    150          1           0       -9.796444   -4.364163   -0.308335
    151          1           0      -11.001715   -2.959916    0.004737
    152          7           0       -6.793774   -2.474571    1.694966
    153          6           0       -5.444223   -2.947977    1.898922
    154          6           0       -4.986392   -2.790994    3.348007
    155          8           0       -3.954236   -3.357430    3.697585
    156          6           0       -4.541509   -2.205888    0.920039
    157          6           0       -4.570694   -2.756761   -0.504281
    158          6           0       -3.977049   -4.141631   -0.736489
    159          8           0       -2.968564   -4.478898   -0.091578
    160          8           0       -4.110292   -4.723864   -1.839734
    161          1           0       -7.150181   -1.631366    2.131176
    162          1           0       -5.383999   -4.001318    1.623703
    163          1           0       -3.524829   -2.215383    1.318376
    164          1           0       -4.973728   -1.204406    0.845074
    165          1           0       -3.949418   -2.091372   -1.106587
    166          1           0       -5.585632   -2.828381   -0.898452
    167          7           0       -5.589800   -1.963005    4.191353
    168          6           0       -5.126009   -1.621959    5.525176
    169          1           0       -5.981206   -1.538187    6.196010
    170          1           0       -4.454986   -2.401357    5.887844
    171          1           0       -4.594943   -0.670185    5.493529
    172          1           0       -6.364459   -1.390950    3.867535
    173         20           0       -1.593751   -6.254244   -1.436174
    174          8           0       -0.697546   -8.690149   -1.687930
    175          1           0       -0.979936   -9.518984   -1.289197
    176          1           0       -0.546068   -8.903060   -2.608323
 ---------------------------------------------------------------------

 SCF Done:  E(RB3LYP) =  -5333.30824710     A.U. after   43 cycles

 The electronic state is 1-A.
 Alpha  occ. eigenvalues -- -145.45692 -19.22907 -19.15697 -19.13791 -19.09489
 Alpha  occ. eigenvalues --  -19.09478 -19.08866 -19.08282 -19.07156 -19.07047
 Alpha  occ. eigenvalues --  -19.06826 -19.06418 -19.06212 -19.06082 -19.05759
 Alpha  occ. eigenvalues --  -19.05485 -19.04895 -19.04839 -19.04273 -19.04248
 Alpha  occ. eigenvalues --  -19.03819 -19.02896 -18.97412 -18.96243 -15.51658
 Alpha  occ. eigenvalues --  -14.55677 -14.37033 -14.36140 -14.35259 -14.35198
 Alpha  occ. eigenvalues --  -14.34120 -14.33847 -14.33795 -14.33368 -14.32090
 Alpha  occ. eigenvalues --  -14.31311 -14.31203 -14.31012 -14.30814 -14.28266
 Alpha  occ. eigenvalues --  -12.65293 -12.65241 -12.65125 -10.32945 -10.28861
 Alpha  occ. eigenvalues --  -10.28323 -10.27938 -10.26618 -10.26547 -10.25956
 Alpha  occ. eigenvalues --  -10.25740 -10.25539 -10.25297 -10.25058 -10.24938
 Alpha  occ. eigenvalues --  -10.24834 -10.24684 -10.24213 -10.24188 -10.24170
 Alpha  occ. eigenvalues --  -10.24149 -10.23893 -10.23403 -10.23339 -10.23244
 Alpha  occ. eigenvalues --  -10.22087 -10.22034 -10.21992 -10.21620 -10.21466
 Alpha  occ. eigenvalues --  -10.21076 -10.21057 -10.20981 -10.20535 -10.19762
 Alpha  occ. eigenvalues --  -10.19515 -10.19283 -10.19017 -10.18982 -10.18948
 Alpha  occ. eigenvalues --  -10.18745 -10.18446 -10.18380 -10.17976 -10.17963
 Alpha  occ. eigenvalues --  -10.17804 -10.17378 -10.16686 -10.15602 -10.15424
 Alpha  occ. eigenvalues --  -10.15335 -10.14899 -10.14795 -10.14718 -10.12461
 Alpha  occ. eigenvalues --  -10.11988 -10.11000  -1.88306  -1.16104  -1.15718
 Alpha  occ. eigenvalues --   -1.14931  -1.11419  -1.08745  -1.04090  -1.03650
 Alpha  occ. eigenvalues --   -1.02862  -1.02032  -1.01669  -1.01123  -1.00830
 Alpha  occ. eigenvalues --   -1.00403  -1.00162  -1.00068  -0.99829  -0.99568
 Alpha  occ. eigenvalues --   -0.99417  -0.98878  -0.98360  -0.97960  -0.97750
 Alpha  occ. eigenvalues --   -0.96001  -0.93255  -0.92372  -0.92269  -0.92118
 Alpha  occ. eigenvalues --   -0.91274  -0.90806  -0.90414  -0.90388  -0.90198
 Alpha  occ. eigenvalues --   -0.89574  -0.89497  -0.88593  -0.88030  -0.87859
 Alpha  occ. eigenvalues --   -0.87615  -0.86924  -0.85840  -0.84858  -0.84578
 Alpha  occ. eigenvalues --   -0.80429  -0.79997  -0.79676  -0.78795  -0.77656
 Alpha  occ. eigenvalues --   -0.77083  -0.76166  -0.75388  -0.75059  -0.74133
 Alpha  occ. eigenvalues --   -0.73840  -0.73526  -0.73181  -0.72815  -0.72055
 Alpha  occ. eigenvalues --   -0.71859  -0.70696  -0.69798  -0.69257  -0.69232
 Alpha  occ. eigenvalues --   -0.69044  -0.68373  -0.67746  -0.67263  -0.65820
 Alpha  occ. eigenvalues --   -0.65518  -0.65489  -0.64724  -0.63773  -0.62923
 Alpha  occ. eigenvalues --   -0.61994  -0.61956  -0.61590  -0.61546  -0.60028
 Alpha  occ. eigenvalues --   -0.59942  -0.59638  -0.59336  -0.58980  -0.58408
 Alpha  occ. eigenvalues --   -0.58320  -0.58051  -0.57788  -0.57435  -0.56890
 Alpha  occ. eigenvalues --   -0.56806  -0.56539  -0.56171  -0.56080  -0.55743
 Alpha  occ. eigenvalues --   -0.54958  -0.54896  -0.54860  -0.54542  -0.54518
 Alpha  occ. eigenvalues --   -0.53794  -0.53077  -0.51608  -0.51601  -0.51264
 Alpha  occ. eigenvalues --   -0.51062  -0.50514  -0.50310  -0.50040  -0.49767
 Alpha  occ. eigenvalues --   -0.49536  -0.49333  -0.48705  -0.48622  -0.48440
 Alpha  occ. eigenvalues --   -0.48199  -0.47802  -0.47720  -0.47674  -0.47354
 Alpha  occ. eigenvalues --   -0.47313  -0.47195  -0.47082  -0.46703  -0.46350
 Alpha  occ. eigenvalues --   -0.46222  -0.46041  -0.45956  -0.45229  -0.45168
 Alpha  occ. eigenvalues --   -0.44754  -0.44623  -0.44361  -0.44206  -0.44078
 Alpha  occ. eigenvalues --   -0.43976  -0.43452  -0.43221  -0.43124  -0.42933
 Alpha  occ. eigenvalues --   -0.42850  -0.42763  -0.42615  -0.42535  -0.42390
 Alpha  occ. eigenvalues --   -0.42357  -0.42209  -0.42150  -0.41697  -0.41336
 Alpha  occ. eigenvalues --   -0.41247  -0.41209  -0.41152  -0.41004  -0.40785
 Alpha  occ. eigenvalues --   -0.40747  -0.40584  -0.40380  -0.40346  -0.40315
 Alpha  occ. eigenvalues --   -0.40141  -0.40125  -0.39871  -0.39626  -0.39587
 Alpha  occ. eigenvalues --   -0.39397  -0.38951  -0.38878  -0.38864  -0.38532
 Alpha  occ. eigenvalues --   -0.38382  -0.38141  -0.38037  -0.37842  -0.37748
 Alpha  occ. eigenvalues --   -0.37553  -0.37532  -0.37405  -0.37317  -0.37162
 Alpha  occ. eigenvalues --   -0.37156  -0.37013  -0.36875  -0.36778  -0.36497
 Alpha  occ. eigenvalues --   -0.36211  -0.36145  -0.35994  -0.35856  -0.35714
 Alpha  occ. eigenvalues --   -0.35607  -0.35473  -0.35240  -0.35125  -0.35047
 Alpha  occ. eigenvalues --   -0.34784  -0.34736  -0.34470  -0.34419  -0.34283
 Alpha  occ. eigenvalues --   -0.34171  -0.34073  -0.33610  -0.33461  -0.33411
 Alpha  occ. eigenvalues --   -0.33333  -0.33068  -0.32617  -0.32553  -0.32372
 Alpha  occ. eigenvalues --   -0.32234  -0.32096  -0.31811  -0.31548  -0.31337
 Alpha  occ. eigenvalues --   -0.31097  -0.30675  -0.30355  -0.29070  -0.28399
 Alpha  occ. eigenvalues --   -0.28054  -0.27851  -0.27330  -0.26888  -0.26862
 Alpha  occ. eigenvalues --   -0.26569  -0.26095  -0.26064  -0.25608  -0.25576
 Alpha  occ. eigenvalues --   -0.25376  -0.24986  -0.24881  -0.24682  -0.24447
 Alpha  occ. eigenvalues --   -0.24191  -0.24168  -0.24072  -0.23721  -0.23628
 Alpha  occ. eigenvalues --   -0.23539  -0.23293  -0.23191  -0.23147  -0.22655
 Alpha  occ. eigenvalues --   -0.22448  -0.22046  -0.21786  -0.21774  -0.21721
 Alpha  occ. eigenvalues --   -0.21029  -0.20859  -0.20795  -0.20490  -0.20393
 Alpha  occ. eigenvalues --   -0.20204  -0.20099  -0.19212  -0.19062  -0.18373
 Alpha  occ. eigenvalues --   -0.15434  -0.13858  -0.10448
 Alpha virt. eigenvalues --   -0.09413  -0.07614  -0.02948  -0.02637  -0.01624
 Alpha virt. eigenvalues --   -0.00800  -0.00162   0.00161   0.00503   0.00836
 Alpha virt. eigenvalues --    0.00911   0.01118   0.02092   0.02487   0.02807

 Mulliken charges:
               1
     1  C    0.081004
     2  C   -0.014435
     3  O   -0.309902
     4  H    0.004743
     5  H    0.043625
     6  H   -0.013968
     7  N   -0.151285
     8  C    0.125544
     9  C    0.130845
    10  O   -0.309317
    11  C    0.040011
    12  C    0.048648
    13  O   -0.368362
    14  O   -0.325778
    15  H    0.117437
    16  H    0.011413
    17  H   -0.011198
    18  H    0.028339
    19  N   -0.084027
    20  C    0.123295
    21  C    0.074635
    22  O   -0.254137
    23  C   -0.014064
    24  C    0.024052
    25  C   -0.022416
    26  C    0.023350
    27  N    0.154716
    28  H    0.117623
    29  H   -0.015245
    30  H    0.028945
    31  H   -0.009554
    32  H    0.006855
    33  H    0.030170
    34  H    0.023680
    35  H    0.010881
    36  H    0.058155
    37  H    0.072374
    38  H    0.124019
    39  H    0.123586
    40  H    0.140468
    41  N   -0.185991
    42  C    0.142903
    43  C    0.050910
    44  O   -0.320605
    45  C    0.139856
    46  C    0.039681
    47  O   -0.326580
    48  O   -0.502841
    49  H    0.128205
    50  H    0.033467
    51  H   -0.008926
    52  H    0.017638
    53  N   -0.127238
    54  C    0.170194
    55  C    0.025429
    56  O   -0.243045
    57  H    0.135407
    58  H    0.018786
    59  H    0.070334
    60  N   -0.142383
    61  C   -0.032050
    62  C    0.086213
    63  O   -0.264359
    64  C    0.241585
    65  C   -0.064552
    66  N   -0.003217
    67  O   -0.263805
    68  H    0.126935
    69  H    0.040513
    70  H   -0.018860
    71  H    0.023828
    72  H    0.109734
    73  H    0.132704
    74  N   -0.153165
    75  C    0.184402
    76  C    0.026534
    77  O   -0.276503
    78  H    0.122416
    79  H    0.037735
    80  H    0.078541
    81  N   -0.092322
    82  C    0.080130
    83  C    0.105727
    84  O   -0.248170
    85  C    0.124404
    86  C    0.025350
    87  C    0.005968
    88  C   -0.021728
    89  C   -0.011951
    90  C   -0.036069
    91  C    0.162536
    92  O   -0.213278
    93  H    0.102770
    94  H    0.016380
    95  H   -0.020697
    96  H   -0.020207
    97  H   -0.030940
    98  H   -0.026300
    99  H   -0.020701
   100  H   -0.042481
   101  H    0.177713
   102  N   -0.150357
   103  C    0.136700
   104  C    0.051928
   105  O   -0.276159
   106  C   -0.061516
   107  C   -0.052563
   108  C    0.027249
   109  C    0.047515
   110  H    0.111794
   111  H    0.057923
   112  H    0.004695
   113  H    0.019693
   114  H    0.037466
   115  H   -0.008104
   116  H   -0.023408
   117  H    0.021287
   118  H   -0.007668
   119  H    0.023255
   120  H   -0.027052
   121  N   -0.105811
   122  C    0.109679
   123  C    0.072656
   124  O   -0.303229
   125  C    0.233657
   126  O   -0.293550
   127  H    0.086931
   128  H    0.004310
   129  H    0.005579
   130  H   -0.003852
   131  H    0.166781
   132  N   -0.112722
   133  C    0.106865
   134  C    0.039586
   135  O   -0.250125
   136  C    0.065804
   137  H    0.129145
   138  H    0.002613
   139  H    0.030892
   140  H    0.020140
   141  H    0.002140
   142  N   -0.129918
   143  C    0.055145
   144  C    0.095450
   145  O   -0.270533
   146  C    0.069699
   147  H    0.106621
   148  H    0.015068
   149  H    0.026175
   150  H    0.021131
   151  H   -0.009519
   152  N   -0.140465
   153  C    0.086964
   154  C    0.056743
   155  O   -0.281807
   156  C    0.066134
   157  C    0.058659
   158  C    0.108126
   159  O   -0.453879
   160  O   -0.412199
   161  H    0.115559
   162  H    0.035348
   163  H    0.036473
   164  H   -0.009339
   165  H    0.051907
   166  H    0.029966
   167  N   -0.151225
   168  C    0.123866
   169  H    0.011383
   170  H    0.046895
   171  H    0.028753
   172  H    0.093820
   173  Ca   1.359740
   174  O   -0.295470
   175  H    0.191884
   176  H    0.191991
 Sum of Mulliken charges =  -0.00000

 Dipole moment (field-independent basis, Debye):
    X=            -10.0978    Y=            -20.8101    Z=             29.8030  Tot=             37.7259
 Quadrupole moment (field-independent basis, Debye-Ang):
   XX=           -514.4046   YY=           -271.7860   ZZ=           -456.2050
   XY=           -134.6734   XZ=            178.0342   YZ=            -64.9203

 ESP charges:
               1
     1  C   -0.423521
     2  C    0.777468
     3  O   -0.652092
     4  H    0.088517
     5  H    0.121132
     6  H    0.088861
     7  N   -0.514193
     8  C    0.119617
     9  C    0.676988
    10  O   -0.660281
    11  C   -0.443940
    12  C    0.861958
    13  O   -0.681049
    14  O   -0.664754
    15  H    0.257008
    16  H    0.097416
    17  H    0.091906
    18  H    0.107391
    19  N   -0.527466
    20  C    0.172777
    21  C    0.501087
    22  O   -0.504154
    23  C   -0.216057
    24  C    0.216000
    25  C    0.102378
    26  C   -0.085915
    27  N   -0.348353
    28  H    0.306901
    29  H    0.029396
    30  H    0.080398
    31  H    0.017788
    32  H   -0.016749
    33  H   -0.081421
    34  H   -0.018356
    35  H   -0.001149
    36  H    0.101891
    37  H    0.115595
    38  H    0.276443
    39  H    0.266262
    40  H    0.302762
    41  N   -0.520236
    42  C    0.451611
    43  C    0.334318
    44  O   -0.555789
    45  C   -0.571350
    46  C    0.896364
    47  O   -0.721028
    48  O   -0.786958
    49  H    0.296563
    50  H    0.026428
    51  H    0.123356
    52  H    0.124577
    53  N   -0.566474
    54  C    0.762271
    55  C    0.373220
    56  O   -0.508581
    57  H    0.354566
    58  H   -0.060022
    59  H   -0.018541
    60  N   -0.548005
    61  C    0.520063
    62  C    0.430121
    63  O   -0.539556
    64  C   -0.440078
    65  C    0.670013
    66  N   -0.792120
    67  O   -0.558526
    68  H    0.315933
    69  H   -0.145741
    70  H    0.081098
    71  H    0.163723
    72  H    0.353599
    73  H    0.379461
    74  N   -0.466232
    75  C   -0.030327
    76  C    0.448071
    77  O   -0.523065
    78  H    0.315916
    79  H    0.117990
    80  H    0.053629
    81  N   -0.363886
    82  C    0.248325
    83  C    0.618789
    84  O   -0.531778
    85  C   -0.215840
    86  C    0.099529
    87  C   -0.257153
    88  C   -0.185501
    89  C   -0.091793
    90  C   -0.261789
    91  C    0.278511
    92  O   -0.533983
    93  H    0.240424
    94  H    0.047367
    95  H    0.073629
    96  H    0.046181
    97  H    0.153645
    98  H    0.145636
    99  H    0.119427
   100  H    0.146728
   101  H    0.405492
   102  N   -0.844519
   103  C    0.353503
   104  C    0.660887
   105  O   -0.612402
   106  C   -0.166874
   107  C    0.206107
   108  C   -0.258149
   109  C   -0.142703
   110  H    0.335270
   111  H    0.061944
   112  H    0.036226
   113  H    0.023098
   114  H   -0.038250
   115  H    0.057356
   116  H    0.014468
   117  H    0.108034
   118  H    0.072478
   119  H   -0.031980
   120  H    0.023642
   121  N   -0.605165
   122  C    0.211354
   123  C    0.451442
   124  O   -0.542733
   125  C    0.025769
   126  O   -0.553218
   127  H    0.326109
   128  H    0.124740
   129  H    0.052552
   130  H    0.036931
   131  H    0.394809
   132  N   -0.501230
   133  C    0.472302
   134  C    0.624339
   135  O   -0.543979
   136  C   -0.544655
   137  H    0.244734
   138  H   -0.025532
   139  H    0.145004
   140  H    0.151177
   141  H    0.121585
   142  N   -0.781820
   143  C    0.544279
   144  C    0.466071
   145  O   -0.491887
   146  C   -0.388037
   147  H    0.327028
   148  H   -0.037023
   149  H    0.138407
   150  H    0.070960
   151  H    0.089446
   152  N   -0.700642
   153  C    0.159266
   154  C    0.474907
   155  O   -0.526546
   156  C   -0.252806
   157  C   -0.114678
   158  C    0.776714
   159  O   -0.800510
   160  O   -0.762803
   161  H    0.290499
   162  H    0.091735
   163  H    0.121728
   164  H    0.154834
   165  H    0.095434
   166  H    0.097133
   167  N   -0.338661
   168  C   -0.086508
   169  H    0.050317
   170  H    0.100464
   171  H    0.070714
   172  H    0.274297
   173  Ca   1.545783
   174  O   -0.746545
   175  H    0.410989
   176  H    0.392284
 Sum of ESP charges =  -0.00000

 Normal termination of Gaussian 16 at Wed Sep 18 20:01:24 2019.
