 Gaussian 16, Revision A.03,
 Gaussian 16:  ES64L-G16RevA.03 25-Dec-2016

 ----------------------------------------------------------------------
 #b3lyp/svp scf=(tight,noincore) Test #IOP(5/87=12) Density=Current Pop
 =(MK,readradii) iop(6/33=2) iop(6/42=6)
 ----------------------------------------------------------------------

 ---------------
 Ng-31_loop3_3.0
 ---------------
 Symbolic Z-matrix:
 Charge =  0 Multiplicity = 1

                         Standard orientation:
 ---------------------------------------------------------------------
 Center     Atomic      Atomic             Coordinates (Angstroms)
 Number     Number       Type             X           Y           Z
 ---------------------------------------------------------------------
      1          6           0        6.254661   -0.489550    5.276822
      2          6           0        6.415812   -0.141429    3.803648
      3          8           0        5.480443    0.190112    3.069642
      4          1           0        5.441043    0.098508    5.701559
      5          1           0        6.026242   -1.550332    5.377536
      6          1           0        7.180197   -0.264298    5.807694
      7          7           0        7.634042   -0.055814    3.269714
      8          6           0        7.948867    0.084694    1.861971
      9          6           0        7.573407   -1.184930    1.104023
     10          8           0        7.652883   -2.260000    1.683080
     11          6           0        9.430825    0.366448    1.616788
     12          6           0       10.553585   -0.229717    2.448051
     13          8           0       10.307298   -0.693612    3.587237
     14          8           0       11.677179   -0.230681    1.890705
     15          1           0        8.397616   -0.178588    3.921851
     16          1           0        7.361163    0.921704    1.479716
     17          1           0        9.480810    1.433415    1.812956
     18          1           0        9.674547    0.177935    0.568473
     19          7           0        7.213406   -1.092334   -0.183659
     20          6           0        7.059580   -2.187810   -1.118952
     21          6           0        5.827024   -2.199489   -2.017822
     22          8           0        5.408505   -3.247352   -2.512013
     23          6           0        8.374350   -2.279462   -1.887313
     24          6           0        8.582349   -3.676647   -2.451857
     25          6           0       10.040418   -4.082525   -2.244499
     26          6           0       10.316506   -5.520186   -2.674041
     27          7           0        9.844251   -5.961109   -3.990993
     28          1           0        7.192952   -0.188954   -0.626927
     29          1           0        6.977271   -3.105406   -0.545156
     30          1           0        9.268760   -2.112870   -1.292184
     31          1           0        8.371723   -1.547177   -2.696789
     32          1           0        8.393228   -3.692902   -3.527993
     33          1           0        7.942699   -4.372261   -1.911146
     34          1           0       10.224570   -3.976109   -1.186972
     35          1           0       10.692337   -3.442991   -2.845248
     36          1           0        9.806963   -6.159639   -1.944338
     37          1           0       11.346488   -5.844969   -2.518310
     38          1           0        8.828779   -5.991405   -3.968653
     39          1           0       10.071597   -5.349707   -4.770480
     40          1           0       10.125730   -6.907802   -4.203462
     41          7           0        5.174109   -1.038869   -2.056094
     42          6           0        3.981579   -0.909549   -2.873619
     43          6           0        3.671167    0.560785   -3.109551
     44          8           0        3.600326    1.146029   -4.188704
     45          6           0        2.765854   -1.660665   -2.340481
     46          6           0        2.758617   -1.881277   -0.833372
     47          8           0        2.944563   -0.926892   -0.052876
     48          8           0        2.526937   -3.018549   -0.359731
     49          1           0        5.619522   -0.254558   -1.610040
     50          1           0        4.213263   -1.163481   -3.913255
     51          1           0        2.668474   -2.615029   -2.859719
     52          1           0        1.836706   -1.168271   -2.613850
     53          7           0        3.425584    1.224763   -1.971078
     54          6           0        2.849881    2.534610   -1.779850
     55          6           0        2.843352    3.055788   -0.349210
     56          8           0        2.989540    2.283158    0.597242
     57          1           0        3.624837    0.758205   -1.098139
     58          1           0        1.829371    2.496076   -2.172248
     59          1           0        3.283935    3.296433   -2.417755
     60          7           0        2.559728    4.347916   -0.128387
     61          6           0        1.840117    5.307264   -0.946685
     62          6           0        0.844167    6.017841   -0.048373
     63          8           0        1.232155    6.417538    1.048352
     64          6           0        2.769304    6.276629   -1.683939
     65          6           0        2.055099    7.573815   -2.022199
     66          7           0        2.774153    8.680206   -1.776109
     67          8           0        0.912033    7.695193   -2.450765
     68          1           0        2.755059    4.708786    0.788684
     69          1           0        1.184253    4.826929   -1.674710
     70          1           0        3.056083    5.835726   -2.639273
     71          1           0        3.657330    6.502265   -1.101961
     72          1           0        3.758679    8.547584   -1.617615
     73          1           0        2.282953    9.554323   -1.848509
     74          7           0       -0.461398    6.134029   -0.292095
     75          6           0       -1.178693    5.532203   -1.398890
     76          6           0       -1.492653    4.065756   -1.100960
     77          8           0       -0.646831    3.318998   -0.613684
     78          1           0       -0.985746    6.684834    0.367126
     79          1           0       -0.723637    5.601515   -2.388344
     80          1           0       -2.136704    6.036883   -1.481429
     81          7           0       -2.717099    3.656874   -1.422280
     82          6           0       -3.336908    2.419625   -0.996191
     83          6           0       -4.303284    1.910724   -2.059128
     84          8           0       -5.191834    2.641767   -2.482159
     85          6           0       -4.154894    2.637717    0.273587
     86          6           0       -3.664690    3.481147    1.434762
     87          6           0       -2.760195    2.922677    2.351113
     88          6           0       -3.981945    4.836812    1.569377
     89          6           0       -2.302892    3.646134    3.461060
     90          6           0       -3.541651    5.585011    2.669395
     91          6           0       -2.714127    4.988766    3.643611
     92          8           0       -2.169656    5.782298    4.607643
     93          1           0       -3.289406    4.314523   -1.925334
     94          1           0       -2.476446    1.759607   -0.871767
     95          1           0       -4.418349    1.667642    0.684496
     96          1           0       -5.069247    3.128736   -0.058766
     97          1           0       -2.500437    1.886795    2.265819
     98          1           0       -4.618168    5.306215    0.837679
     99          1           0       -1.544829    3.270869    4.138051
    100          1           0       -3.707042    6.647981    2.640403
    101          1           0       -2.604190    6.636117    4.599095
    102          7           0       -4.059944    0.681688   -2.517010
    103          6           0       -4.837260    0.151900   -3.613415
    104          6           0       -6.299185    0.031141   -3.233032
    105          8           0       -7.151852    0.074823   -4.120979
    106          6           0       -4.288387   -1.191361   -4.093716
    107          6           0       -4.598314   -2.363138   -3.159112
    108          6           0       -4.568427   -1.442329   -5.578806
    109          6           0       -4.067563   -3.705245   -3.655853
    110          1           0       -3.371894    0.114210   -2.037889
    111          1           0       -4.812239    0.771245   -4.509956
    112          1           0       -3.206726   -1.100108   -4.117829
    113          1           0       -5.679762   -2.453389   -3.092585
    114          1           0       -4.177693   -2.096001   -2.186736
    115          1           0       -4.234137   -0.619438   -6.205862
    116          1           0       -3.923167   -2.286334   -5.826185
    117          1           0       -5.574212   -1.834940   -5.750720
    118          1           0       -4.617609   -4.037589   -4.538801
    119          1           0       -3.021659   -3.520563   -3.889472
    120          1           0       -4.106305   -4.480618   -2.882874
    121          7           0       -6.598015   -0.080629   -1.932144
    122          6           0       -7.897160   -0.096796   -1.298061
    123          6           0       -8.317857   -1.418276   -0.677654
    124          8           0       -9.401865   -1.541897   -0.105775
    125          6           0       -8.017149    1.080260   -0.335024
    126          8           0       -6.885683    0.935376    0.487893
    127          1           0       -5.884726    0.143935   -1.254951
    128          1           0       -8.606696    0.097579   -2.095982
    129          1           0       -8.944786    1.009824    0.232452
    130          1           0       -7.986337    2.051498   -0.817876
    131          1           0       -7.032812    1.614866    1.153962
    132          7           0       -7.456619   -2.436267   -0.761687
    133          6           0       -7.619497   -3.675023   -0.024290
    134          6           0       -6.325155   -4.257285    0.527570
    135          8           0       -5.334639   -4.248617   -0.210876
    136          6           0       -8.237739   -4.693624   -0.989707
    137          1           0       -6.500438   -2.293772   -1.057515
    138          1           0       -8.320307   -3.427517    0.765587
    139          1           0       -9.269649   -4.408487   -1.170426
    140          1           0       -7.734702   -4.568728   -1.942993
    141          1           0       -8.157833   -5.736061   -0.682559
    142          7           0       -6.277733   -4.899823    1.695430
    143          6           0       -5.115787   -5.481498    2.344609
    144          6           0       -3.923261   -4.584350    2.638053
    145          8           0       -2.796072   -4.972943    2.931548
    146          6           0       -4.826690   -6.895167    1.871997
    147          1           0       -7.160929   -4.915900    2.181235
    148          1           0       -5.280335   -5.542158    3.421988
    149          1           0       -5.698594   -7.544933    1.917677
    150          1           0       -4.493302   -6.906939    0.828486
    151          1           0       -4.111196   -7.343633    2.560362
    152          7           0       -4.258908   -3.287021    2.618529
    153          6           0       -3.265439   -2.247154    2.812938
    154          6           0       -3.195310   -1.766270    4.253574
    155          8           0       -2.184430   -1.499974    4.897631
    156          6           0       -3.507383   -1.005565    1.950199
    157          6           0       -3.680161   -1.353059    0.473922
    158          6           0       -2.454599   -1.671410   -0.364082
    159          8           0       -1.882385   -2.761580   -0.183247
    160          8           0       -2.003208   -0.785719   -1.115812
    161          1           0       -5.223512   -3.110382    2.404668
    162          1           0       -2.251490   -2.557994    2.567610
    163          1           0       -2.641062   -0.351235    1.965740
    164          1           0       -4.448489   -0.633321    2.344603
    165          1           0       -4.174099   -0.504018    0.001317
    166          1           0       -4.472864   -2.110917    0.436878
    167          7           0       -4.338026   -1.863804    4.940660
    168          6           0       -4.635348   -1.288266    6.239450
    169          1           0       -4.393608   -2.010195    7.019655
    170          1           0       -4.039925   -0.386424    6.383013
    171          1           0       -5.694786   -1.037623    6.292862
    172          1           0       -5.123304   -1.952722    4.321927
    173         20           0        1.605572    0.168643    1.888667
    174          8           0        0.437168   -2.000921    1.163049
    175          1           0        0.946248   -2.794603    1.002403
    176          1           0       -0.436351   -2.195552    0.834898
 ---------------------------------------------------------------------

 SCF Done:  E(RB3LYP) =  -5333.33108846     A.U. after   25 cycles

 The electronic state is 1-A.
 Alpha  occ. eigenvalues -- -145.50603 -19.17429 -19.14820 -19.14695 -19.11928
 Alpha  occ. eigenvalues --  -19.11668 -19.11119 -19.10833 -19.10231 -19.09897
 Alpha  occ. eigenvalues --  -19.09208 -19.08952 -19.08934 -19.08620 -19.08605
 Alpha  occ. eigenvalues --  -19.07076 -19.06710 -19.05659 -19.05529 -19.03057
 Alpha  occ. eigenvalues --  -19.02408 -19.01815 -18.97861 -18.97101 -15.56370
 Alpha  occ. eigenvalues --  -14.58700 -14.38320 -14.37830 -14.37221 -14.36899
 Alpha  occ. eigenvalues --  -14.36278 -14.35936 -14.34911 -14.34717 -14.34684
 Alpha  occ. eigenvalues --  -14.34609 -14.34084 -14.33379 -14.33126 -14.29484
 Alpha  occ. eigenvalues --  -12.69998 -12.69940 -12.69916 -10.34385 -10.33245
 Alpha  occ. eigenvalues --  -10.30594 -10.30082 -10.29476 -10.29333 -10.28445
 Alpha  occ. eigenvalues --  -10.27871 -10.27751 -10.27534 -10.27141 -10.26893
 Alpha  occ. eigenvalues --  -10.26857 -10.26580 -10.26487 -10.25942 -10.25506
 Alpha  occ. eigenvalues --  -10.24798 -10.24492 -10.24384 -10.24343 -10.23808
 Alpha  occ. eigenvalues --  -10.23555 -10.23480 -10.23435 -10.23363 -10.22825
 Alpha  occ. eigenvalues --  -10.22554 -10.22441 -10.22367 -10.22143 -10.22079
 Alpha  occ. eigenvalues --  -10.22034 -10.21476 -10.20368 -10.20333 -10.20319
 Alpha  occ. eigenvalues --  -10.20293 -10.20252 -10.20037 -10.19426 -10.19221
 Alpha  occ. eigenvalues --  -10.18823 -10.18031 -10.17812 -10.17546 -10.16798
 Alpha  occ. eigenvalues --  -10.16505 -10.15899 -10.15183 -10.15035 -10.15015
 Alpha  occ. eigenvalues --  -10.14152 -10.13075  -1.92633  -1.20112  -1.19600
 Alpha  occ. eigenvalues --   -1.19443  -1.13647  -1.07104  -1.06275  -1.05053
 Alpha  occ. eigenvalues --   -1.04368  -1.03920  -1.03746  -1.03618  -1.02842
 Alpha  occ. eigenvalues --   -1.02226  -1.02162  -1.01732  -1.01581  -1.01193
 Alpha  occ. eigenvalues --   -1.00314  -0.99684  -0.99066  -0.98352  -0.98053
 Alpha  occ. eigenvalues --   -0.97166  -0.95423  -0.93967  -0.93267  -0.93239
 Alpha  occ. eigenvalues --   -0.93181  -0.92175  -0.91888  -0.91886  -0.91649
 Alpha  occ. eigenvalues --   -0.91455  -0.91178  -0.90617  -0.90307  -0.89707
 Alpha  occ. eigenvalues --   -0.88530  -0.87846  -0.87487  -0.86440  -0.85860
 Alpha  occ. eigenvalues --   -0.82361  -0.82218  -0.81306  -0.80117  -0.79838
 Alpha  occ. eigenvalues --   -0.78595  -0.78257  -0.78175  -0.76530  -0.76272
 Alpha  occ. eigenvalues --   -0.75616  -0.75447  -0.74671  -0.74124  -0.73890
 Alpha  occ. eigenvalues --   -0.72809  -0.72670  -0.72332  -0.71725  -0.71491
 Alpha  occ. eigenvalues --   -0.70751  -0.69661  -0.68843  -0.68678  -0.67875
 Alpha  occ. eigenvalues --   -0.66571  -0.66125  -0.65915  -0.65482  -0.64015
 Alpha  occ. eigenvalues --   -0.63484  -0.63274  -0.63055  -0.61859  -0.61601
 Alpha  occ. eigenvalues --   -0.61570  -0.60955  -0.60607  -0.60227  -0.60002
 Alpha  occ. eigenvalues --   -0.59704  -0.59477  -0.59182  -0.58932  -0.58479
 Alpha  occ. eigenvalues --   -0.58071  -0.57869  -0.57850  -0.57772  -0.57132
 Alpha  occ. eigenvalues --   -0.56887  -0.56750  -0.56393  -0.56161  -0.55659
 Alpha  occ. eigenvalues --   -0.54788  -0.54477  -0.54107  -0.53712  -0.53246
 Alpha  occ. eigenvalues --   -0.52745  -0.52177  -0.52014  -0.51984  -0.51787
 Alpha  occ. eigenvalues --   -0.51511  -0.51204  -0.50783  -0.50527  -0.50264
 Alpha  occ. eigenvalues --   -0.49960  -0.49931  -0.49742  -0.49632  -0.49305
 Alpha  occ. eigenvalues --   -0.48972  -0.48261  -0.48112  -0.48046  -0.47826
 Alpha  occ. eigenvalues --   -0.47426  -0.47124  -0.47014  -0.46775  -0.46759
 Alpha  occ. eigenvalues --   -0.46475  -0.46400  -0.46012  -0.45926  -0.45784
 Alpha  occ. eigenvalues --   -0.45474  -0.45260  -0.45066  -0.44932  -0.44562
 Alpha  occ. eigenvalues --   -0.44376  -0.44205  -0.44044  -0.44033  -0.43890
 Alpha  occ. eigenvalues --   -0.43810  -0.43616  -0.43224  -0.43120  -0.42925
 Alpha  occ. eigenvalues --   -0.42508  -0.42409  -0.42328  -0.42206  -0.42033
 Alpha  occ. eigenvalues --   -0.41986  -0.41808  -0.41685  -0.41444  -0.41392
 Alpha  occ. eigenvalues --   -0.41347  -0.41083  -0.40930  -0.40852  -0.40785
 Alpha  occ. eigenvalues --   -0.40640  -0.40380  -0.40346  -0.40101  -0.40080
 Alpha  occ. eigenvalues --   -0.39914  -0.39672  -0.39646  -0.39572  -0.39314
 Alpha  occ. eigenvalues --   -0.39254  -0.39072  -0.38914  -0.38792  -0.38588
 Alpha  occ. eigenvalues --   -0.38416  -0.38390  -0.38266  -0.38179  -0.37925
 Alpha  occ. eigenvalues --   -0.37872  -0.37684  -0.37409  -0.37376  -0.37188
 Alpha  occ. eigenvalues --   -0.37016  -0.36837  -0.36711  -0.36631  -0.36375
 Alpha  occ. eigenvalues --   -0.36006  -0.35924  -0.35865  -0.35802  -0.35672
 Alpha  occ. eigenvalues --   -0.35668  -0.35416  -0.35294  -0.34933  -0.34661
 Alpha  occ. eigenvalues --   -0.34430  -0.34357  -0.34129  -0.33963  -0.33561
 Alpha  occ. eigenvalues --   -0.33555  -0.32840  -0.32657  -0.32645  -0.32240
 Alpha  occ. eigenvalues --   -0.31855  -0.31548  -0.30867  -0.30632  -0.29914
 Alpha  occ. eigenvalues --   -0.29902  -0.29827  -0.29358  -0.29323  -0.28956
 Alpha  occ. eigenvalues --   -0.28865  -0.28550  -0.28108  -0.27667  -0.27303
 Alpha  occ. eigenvalues --   -0.27254  -0.27097  -0.27010  -0.26983  -0.26813
 Alpha  occ. eigenvalues --   -0.26802  -0.26607  -0.26228  -0.25962  -0.25743
 Alpha  occ. eigenvalues --   -0.25410  -0.25168  -0.25030  -0.24859  -0.24793
 Alpha  occ. eigenvalues --   -0.24171  -0.23757  -0.23438  -0.23214  -0.23149
 Alpha  occ. eigenvalues --   -0.22531  -0.22514  -0.22053  -0.21790  -0.21446
 Alpha  occ. eigenvalues --   -0.21077  -0.20591  -0.19929  -0.18231  -0.17655
 Alpha  occ. eigenvalues --   -0.14929  -0.14714  -0.13084
 Alpha virt. eigenvalues --   -0.11661  -0.10394  -0.04525  -0.03991  -0.03533
 Alpha virt. eigenvalues --   -0.02908  -0.01504  -0.01035  -0.00474  -0.00186
 Alpha virt. eigenvalues --   -0.00022   0.00333   0.00883   0.01049   0.01777

 Mulliken charges:
               1
     1  C    0.069502
     2  C    0.016385
     3  O   -0.355725
     4  H    0.002571
     5  H    0.045015
     6  H    0.026208
     7  N   -0.095625
     8  C    0.147461
     9  C    0.061432
    10  O   -0.265911
    11  C    0.028898
    12  C    0.088790
    13  O   -0.375671
    14  O   -0.385131
    15  H    0.110564
    16  H   -0.037442
    17  H    0.001203
    18  H   -0.034333
    19  N   -0.127089
    20  C    0.069296
    21  C    0.112436
    22  O   -0.277704
    23  C    0.069767
    24  C   -0.030258
    25  C   -0.015559
    26  C    0.012817
    27  N    0.065675
    28  H    0.106113
    29  H    0.034947
    30  H    0.040526
    31  H   -0.006496
    32  H   -0.026771
    33  H    0.027557
    34  H    0.083768
    35  H    0.035463
    36  H    0.066035
    37  H    0.071739
    38  H    0.200713
    39  H    0.193646
    40  H    0.193305
    41  N   -0.125675
    42  C    0.148000
    43  C   -0.013770
    44  O   -0.263108
    45  C    0.114537
    46  C    0.120424
    47  O   -0.488386
    48  O   -0.347717
    49  H    0.105441
    50  H    0.006017
    51  H    0.010846
    52  H    0.028255
    53  N   -0.162319
    54  C    0.179686
    55  C    0.080403
    56  O   -0.349271
    57  H    0.121617
    58  H    0.054997
    59  H    0.006325
    60  N   -0.097928
    61  C    0.074442
    62  C    0.049762
    63  O   -0.289566
    64  C    0.149803
    65  C   -0.028498
    66  N   -0.045834
    67  O   -0.263574
    68  H    0.133104
    69  H    0.014370
    70  H    0.045313
    71  H   -0.002862
    72  H    0.121825
    73  H    0.133383
    74  N   -0.083342
    75  C    0.183241
    76  C    0.044053
    77  O   -0.310815
    78  H    0.132229
    79  H    0.066086
    80  H   -0.006321
    81  N   -0.118372
    82  C    0.155502
    83  C    0.046230
    84  O   -0.292634
    85  C    0.137483
    86  C   -0.020238
    87  C    0.024162
    88  C   -0.042737
    89  C   -0.016105
    90  C   -0.050609
    91  C    0.167973
    92  O   -0.187749
    93  H    0.113460
    94  H    0.005371
    95  H    0.016506
    96  H   -0.022497
    97  H   -0.070987
    98  H   -0.033623
    99  H   -0.032132
   100  H   -0.038755
   101  H    0.174704
   102  N   -0.136120
   103  C    0.186901
   104  C    0.049975
   105  O   -0.264450
   106  C   -0.131015
   107  C   -0.023409
   108  C    0.082289
   109  C    0.038678
   110  H    0.145392
   111  H    0.000254
   112  H    0.002159
   113  H    0.010726
   114  H    0.021366
   115  H   -0.000040
   116  H   -0.010771
   117  H    0.016195
   118  H   -0.001691
   119  H    0.010831
   120  H    0.026386
   121  N   -0.194903
   122  C    0.126164
   123  C    0.074957
   124  O   -0.289599
   125  C    0.199212
   126  O   -0.308226
   127  H    0.162529
   128  H    0.028799
   129  H    0.011065
   130  H    0.011626
   131  H    0.166846
   132  N   -0.143111
   133  C    0.096381
   134  C    0.040477
   135  O   -0.263583
   136  C    0.074802
   137  H    0.147629
   138  H   -0.011149
   139  H    0.028413
   140  H    0.026950
   141  H    0.008155
   142  N   -0.124800
   143  C    0.031788
   144  C    0.093990
   145  O   -0.242304
   146  C    0.093845
   147  H    0.121570
   148  H    0.023738
   149  H   -0.011175
   150  H    0.049690
   151  H    0.026562
   152  N   -0.146175
   153  C    0.136628
   154  C    0.046059
   155  O   -0.280830
   156  C    0.002019
   157  C    0.080832
   158  C    0.097420
   159  O   -0.373113
   160  O   -0.378728
   161  H    0.105006
   162  H    0.008911
   163  H    0.001041
   164  H   -0.031670
   165  H   -0.069435
   166  H   -0.014847
   167  N   -0.137473
   168  C    0.130369
   169  H    0.032666
   170  H    0.027751
   171  H    0.010949
   172  H    0.082150
   173  Ca   1.469851
   174  O   -0.371794
   175  H    0.197864
   176  H    0.186311
 Sum of Mulliken charges =  -0.00000

 Dipole moment (field-independent basis, Debye):
    X=              6.9001    Y=             -3.8318    Z=            -11.1874  Tot=             13.6914
 Quadrupole moment (field-independent basis, Debye-Ang):
   XX=           -555.3218   YY=           -370.8374   ZZ=           -539.4665
   XY=           -161.8512   XZ=           -311.3766   YZ=             96.4893

 ESP charges:
               1
     1  C   -0.478040
     2  C    0.718831
     3  O   -0.671799
     4  H    0.109108
     5  H    0.145386
     6  H    0.133433
     7  N   -0.510319
     8  C    0.243517
     9  C    0.625015
    10  O   -0.545482
    11  C   -0.291035
    12  C    0.761908
    13  O   -0.693388
    14  O   -0.687796
    15  H    0.287374
    16  H    0.009373
    17  H    0.059615
    18  H    0.010317
    19  N   -0.652573
    20  C    0.455401
    21  C    0.528633
    22  O   -0.565635
    23  C   -0.317383
    24  C    0.254141
    25  C   -0.172602
    26  C    0.137383
    27  N   -0.379165
    28  H    0.263534
    29  H    0.033964
    30  H    0.124484
    31  H    0.050906
    32  H   -0.065467
    33  H   -0.056968
    34  H    0.105038
    35  H    0.045560
    36  H    0.071755
    37  H    0.044596
    38  H    0.301126
    39  H    0.347994
    40  H    0.333716
    41  N   -0.628753
    42  C    0.435711
    43  C    0.403713
    44  O   -0.526087
    45  C   -0.470277
    46  C    0.831039
    47  O   -0.804694
    48  O   -0.638573
    49  H    0.278772
    50  H   -0.019694
    51  H    0.135622
    52  H    0.122274
    53  N   -0.237412
    54  C   -0.329192
    55  C    0.861316
    56  O   -0.655939
    57  H    0.206868
    58  H    0.176781
    59  H    0.130956
    60  N   -0.761545
    61  C    0.468430
    62  C    0.439858
    63  O   -0.556702
    64  C   -0.435137
    65  C    0.717960
    66  N   -0.822402
    67  O   -0.567799
    68  H    0.365046
    69  H   -0.021935
    70  H    0.119535
    71  H    0.126579
    72  H    0.372108
    73  H    0.393382
    74  N   -0.346291
    75  C   -0.149225
    76  C    0.733789
    77  O   -0.624306
    78  H    0.308053
    79  H    0.102140
    80  H    0.091177
    81  N   -0.719014
    82  C    0.407668
    83  C    0.598792
    84  O   -0.575376
    85  C   -0.306367
    86  C    0.003633
    87  C   -0.069355
    88  C   -0.002815
    89  C   -0.317382
    90  C   -0.449380
    91  C    0.441304
    92  O   -0.535317
    93  H    0.315490
    94  H    0.025642
    95  H    0.125780
    96  H    0.059485
    97  H    0.106919
    98  H    0.104935
    99  H    0.157447
   100  H    0.173094
   101  H    0.402877
   102  N   -0.629564
   103  C    0.195495
   104  C    0.227930
   105  O   -0.512351
   106  C    0.022195
   107  C    0.549480
   108  C   -0.430174
   109  C   -0.426816
   110  H    0.276854
   111  H    0.072957
   112  H    0.048043
   113  H   -0.079757
   114  H   -0.138480
   115  H    0.116823
   116  H    0.089942
   117  H    0.101184
   118  H    0.073660
   119  H    0.077801
   120  H    0.112996
   121  N    0.112182
   122  C   -0.365663
   123  C    0.624256
   124  O   -0.541702
   125  C    0.237687
   126  O   -0.606457
   127  H    0.347147
   128  H    0.145327
   129  H    0.020345
   130  H    0.013082
   131  H    0.386454
   132  N   -0.290122
   133  C    0.083582
   134  C    0.780194
   135  O   -0.551514
   136  C   -0.280487
   137  H   -0.020590
   138  H    0.009430
   139  H    0.101930
   140  H    0.095187
   141  H    0.065745
   142  N   -0.667542
   143  C    0.344397
   144  C    0.499333
   145  O   -0.473488
   146  C   -0.344052
   147  H    0.299598
   148  H    0.031016
   149  H    0.090808
   150  H    0.122343
   151  H    0.081269
   152  N   -0.695329
   153  C    0.165990
   154  C    0.637253
   155  O   -0.580153
   156  C   -0.757038
   157  C    0.862462
   158  C    0.559520
   159  O   -0.663281
   160  O   -0.702812
   161  H    0.272376
   162  H    0.048897
   163  H    0.142779
   164  H    0.161965
   165  H   -0.432787
   166  H   -0.075731
   167  N   -0.307651
   168  C   -0.217133
   169  H    0.116618
   170  H    0.099912
   171  H    0.090828
   172  H    0.259616
   173  Ca   1.647831
   174  O   -1.036337
   175  H    0.467187
   176  H    0.549445
 Sum of ESP charges =  -0.00000

 Normal termination of Gaussian 16 at Wed Sep 18 16:42:22 2019.
