 Gaussian 16, Revision A.03,
 Gaussian 16:  ES64L-G16RevA.03 25-Dec-2016

 ----------------------------------------------------------------------
 #b3lyp/svp scf=(tight,noincore) Test #IOP(5/87=12) Density=Current Pop
 =(MK,readradii) iop(6/33=2) iop(6/42=6)
 ----------------------------------------------------------------------

 ----------------
 Ng-31_loop3_51.0
 ----------------
 Symbolic Z-matrix:
 Charge =  0 Multiplicity = 1

                         Standard orientation:
 ---------------------------------------------------------------------
 Center     Atomic      Atomic             Coordinates (Angstroms)
 Number     Number       Type             X           Y           Z
 ---------------------------------------------------------------------
      1          6           0        2.611196   -5.311115    4.271496
      2          6           0        2.679194   -3.793214    4.239052
      3          8           0        1.799429   -3.091269    4.743322
      4          1           0        1.681902   -5.642770    3.808873
      5          1           0        3.457229   -5.724903    3.722516
      6          1           0        2.644908   -5.655353    5.305654
      7          7           0        3.707820   -3.278386    3.560980
      8          6           0        3.477081   -2.324996    2.490277
      9          6           0        3.828864   -3.022013    1.183940
     10          8           0        2.942022   -2.992484    0.330746
     11          6           0        4.125453   -0.970389    2.725976
     12          6           0        5.625287   -0.842073    2.986612
     13          8           0        6.122304    0.231964    3.371214
     14          8           0        6.383739   -1.776656    2.631214
     15          1           0        4.488986   -3.918248    3.489173
     16          1           0        2.412463   -2.133430    2.462152
     17          1           0        3.599602   -0.465027    3.534549
     18          1           0        3.958698   -0.482630    1.768383
     19          7           0        5.001534   -3.640255    1.042438
     20          6           0        5.247224   -4.462628   -0.131120
     21          6           0        5.691479   -3.615259   -1.319902
     22          8           0        6.807777   -3.697706   -1.832816
     23          6           0        6.262715   -5.574597    0.127538
     24          6           0        6.176130   -6.764384   -0.826931
     25          6           0        4.919377   -7.637369   -0.801072
     26          6           0        4.265955   -7.886198    0.563488
     27          7           0        5.041891   -8.889429    1.308036
     28          1           0        5.770253   -3.445683    1.674666
     29          1           0        4.325613   -4.986700   -0.345552
     30          1           0        6.075496   -5.990693    1.116230
     31          1           0        7.283499   -5.212927    0.185796
     32          1           0        7.034653   -7.377408   -0.572095
     33          1           0        6.297388   -6.382070   -1.842230
     34          1           0        5.140584   -8.535797   -1.373867
     35          1           0        4.202128   -7.121483   -1.433143
     36          1           0        3.273727   -8.282557    0.350695
     37          1           0        4.132242   -6.967504    1.130430
     38          1           0        4.445118   -9.257638    2.029760
     39          1           0        5.216179   -9.616655    0.626666
     40          1           0        5.869607   -8.514984    1.753543
     41          7           0        4.757487   -2.779820   -1.779032
     42          6           0        5.032390   -1.558965   -2.514792
     43          6           0        4.956633   -0.317563   -1.655617
     44          8           0        3.924729    0.329318   -1.463472
     45          6           0        4.151763   -1.308257   -3.739390
     46          6           0        2.655788   -1.438655   -3.488283
     47          8           0        2.280571   -2.504970   -2.948112
     48          8           0        1.825352   -0.576257   -3.843735
     49          1           0        3.803768   -2.874497   -1.448038
     50          1           0        6.001434   -1.665937   -3.007349
     51          1           0        4.404236   -2.042818   -4.507556
     52          1           0        4.347859   -0.313170   -4.128424
     53          7           0        6.125944   -0.123718   -1.034620
     54          6           0        6.548839    1.055410   -0.317811
     55          6           0        7.035342    2.085051   -1.320334
     56          8           0        8.216355    1.953819   -1.649858
     57          1           0        6.826518   -0.813307   -1.253166
     58          1           0        7.382055    0.800662    0.337898
     59          1           0        5.708716    1.432138    0.268082
     60          7           0        6.323275    3.123562   -1.756863
     61          6           0        4.939388    3.415316   -1.443916
     62          6           0        4.841012    4.754245   -0.738940
     63          8           0        5.215954    5.678741   -1.466693
     64          6           0        4.172677    3.369246   -2.762033
     65          6           0        2.662080    3.381513   -2.543064
     66          7           0        1.896313    2.284218   -2.566374
     67          8           0        2.026998    4.388949   -2.243992
     68          1           0        6.687766    3.628961   -2.554245
     69          1           0        4.464933    2.611510   -0.863238
     70          1           0        4.444068    2.447746   -3.279608
     71          1           0        4.475747    4.180277   -3.419358
     72          1           0        2.223675    1.394516   -2.906028
     73          1           0        0.906356    2.495721   -2.639534
     74          7           0        4.203122    4.912804    0.423152
     75          6           0        3.656035    3.946122    1.353109
     76          6           0        2.141651    4.002452    1.514249
     77          8           0        1.645443    3.654891    2.580588
     78          1           0        4.030648    5.847303    0.772958
     79          1           0        4.159427    4.048507    2.312909
     80          1           0        3.953134    2.958541    0.991009
     81          7           0        1.399397    4.525434    0.533001
     82          6           0       -0.052625    4.584313    0.558846
     83          6           0       -0.592133    3.311427   -0.073048
     84          8           0       -0.695908    3.142003   -1.288213
     85          6           0       -0.617736    5.889487    0.013255
     86          6           0       -0.498321    7.033679    0.993085
     87          6           0       -1.598962    7.915438    0.970971
     88          6           0        0.617913    7.285942    1.791762
     89          6           0       -1.485543    9.129946    1.643360
     90          6           0        0.749998    8.505434    2.452892
     91          6           0       -0.311124    9.420799    2.369062
     92          8           0       -0.239866   10.686672    2.896592
     93          1           0        1.880692    4.682185   -0.340546
     94          1           0       -0.323418    4.637901    1.616910
     95          1           0       -1.652040    5.778129   -0.302997
     96          1           0       -0.024218    6.284700   -0.817373
     97          1           0       -2.517738    7.614736    0.495967
     98          1           0        1.427775    6.569788    1.884745
     99          1           0       -2.241133    9.903940    1.639309
    100          1           0        1.669474    8.730629    2.984448
    101          1           0        0.480125   10.861697    3.501555
    102          7           0       -1.054738    2.408591    0.803185
    103          6           0       -1.781381    1.194793    0.500060
    104          6           0       -3.072684    1.544673   -0.215706
    105          8           0       -3.578196    2.671007   -0.182104
    106          6           0       -2.097458    0.392312    1.761337
    107          6           0       -0.844937   -0.275506    2.334234
    108          6           0       -2.752193    1.262359    2.828549
    109          6           0        0.462619    0.407350    2.716995
    110          1           0       -0.734421    2.542258    1.748664
    111          1           0       -1.173927    0.596645   -0.178776
    112          1           0       -2.789008   -0.417828    1.535213
    113          1           0       -0.602142   -1.079055    1.643830
    114          1           0       -1.189850   -0.960091    3.111394
    115          1           0       -2.957865    0.732615    3.762985
    116          1           0       -2.141061    2.122933    3.103555
    117          1           0       -3.713460    1.622595    2.469110
    118          1           0        1.203337   -0.273603    3.128381
    119          1           0        0.862551    1.024053    1.912177
    120          1           0        0.272940    1.069220    3.557084
    121          7           0       -3.562352    0.557591   -0.958197
    122          6           0       -4.886142    0.644191   -1.533507
    123          6           0       -5.996570    0.631509   -0.493416
    124          8           0       -5.841682    0.051123    0.581136
    125          6           0       -4.989525    1.709688   -2.618785
    126          8           0       -6.012020    1.456998   -3.555348
    127          1           0       -2.981889   -0.215331   -1.261766
    128          1           0       -5.062659   -0.272012   -2.116272
    129          1           0       -4.049469    1.712645   -3.164023
    130          1           0       -5.175144    2.710863   -2.234607
    131          1           0       -5.821204    1.904326   -4.382141
    132          7           0       -7.147900    1.185965   -0.868805
    133          6           0       -8.385730    0.635239   -0.366930
    134          6           0       -8.584731   -0.734239   -1.009992
    135          8           0       -7.973908   -1.126076   -2.000476
    136          6           0       -9.508965    1.597679   -0.754940
    137          1           0       -7.110904    1.554379   -1.807901
    138          1           0       -8.314105    0.457530    0.703439
    139          1           0       -9.564108    2.500536   -0.144688
    140          1           0       -9.231586    1.932223   -1.754611
    141          1           0      -10.473375    1.083849   -0.804863
    142          7           0       -9.433115   -1.487196   -0.307282
    143          6           0       -9.461493   -2.929833   -0.344592
    144          6           0       -8.159440   -3.595430    0.053829
    145          8           0       -8.152784   -4.759329    0.428923
    146          6           0      -10.010696   -3.471070   -1.663432
    147          1           0       -9.968375   -1.051091    0.428388
    148          1           0      -10.213943   -3.150380    0.406459
    149          1           0       -9.250500   -3.380572   -2.441451
    150          1           0      -10.089774   -4.556357   -1.528900
    151          1           0      -10.922691   -2.949735   -1.958688
    152          7           0       -7.013524   -2.919943    0.147594
    153          6           0       -5.900161   -3.525489    0.854869
    154          6           0       -5.978865   -3.458471    2.370558
    155          8           0       -6.021053   -4.508120    3.026118
    156          6           0       -4.583591   -3.032524    0.253678
    157          6           0       -4.365021   -3.078711   -1.251843
    158          6           0       -3.017679   -2.488081   -1.669964
    159          8           0       -2.099162   -2.028501   -0.956302
    160          8           0       -2.873929   -2.353669   -2.899830
    161          1           0       -6.869589   -2.034084   -0.322977
    162          1           0       -5.928805   -4.584223    0.605147
    163          1           0       -3.876559   -3.742428    0.676339
    164          1           0       -4.334255   -2.045264    0.633347
    165          1           0       -5.260370   -2.617956   -1.661786
    166          1           0       -4.392375   -4.121616   -1.581237
    167          7           0       -6.026432   -2.276625    2.983646
    168          6           0       -6.242835   -2.173432    4.411414
    169          1           0       -6.837186   -3.022422    4.750230
    170          1           0       -5.282461   -2.174165    4.925856
    171          1           0       -6.773765   -1.247182    4.633160
    172          1           0       -5.947268   -1.450377    2.414834
    173         20           0       -0.259103   -1.781062   -2.885564
    174          8           0       -1.004862    0.789463   -2.673097
    175          1           0       -0.807212    1.525518   -2.090638
    176          1           0       -0.800346    1.119688   -3.546782
 ---------------------------------------------------------------------

 SCF Done:  E(RB3LYP) =  -5333.44018672     A.U. after   24 cycles

 The electronic state is 1-A.
 Alpha  occ. eigenvalues -- -145.45397 -19.17040 -19.14166 -19.13983 -19.11690
 Alpha  occ. eigenvalues --  -19.10870 -19.10793 -19.10786 -19.10728 -19.10593
 Alpha  occ. eigenvalues --  -19.10328 -19.10260 -19.09728 -19.08816 -19.08616
 Alpha  occ. eigenvalues --  -19.08259 -19.08099 -19.07784 -19.07766 -19.07415
 Alpha  occ. eigenvalues --  -19.06737 -19.06178 -18.98572 -18.97314 -15.51331
 Alpha  occ. eigenvalues --  -14.59618 -14.36621 -14.35586 -14.35472 -14.35451
 Alpha  occ. eigenvalues --  -14.35314 -14.34574 -14.34504 -14.34248 -14.33795
 Alpha  occ. eigenvalues --  -14.33537 -14.33501 -14.32909 -14.32646 -14.32034
 Alpha  occ. eigenvalues --  -12.64961 -12.64926 -12.64804 -10.36085 -10.29391
 Alpha  occ. eigenvalues --  -10.29246 -10.29083 -10.28812 -10.28671 -10.28421
 Alpha  occ. eigenvalues --  -10.28389 -10.28231 -10.28061 -10.27268 -10.27053
 Alpha  occ. eigenvalues --  -10.27011 -10.26974 -10.26860 -10.26831 -10.26235
 Alpha  occ. eigenvalues --  -10.25566 -10.25137 -10.25021 -10.24455 -10.23684
 Alpha  occ. eigenvalues --  -10.23432 -10.23426 -10.23314 -10.23208 -10.23164
 Alpha  occ. eigenvalues --  -10.22759 -10.22430 -10.22137 -10.21983 -10.21031
 Alpha  occ. eigenvalues --  -10.20587 -10.20479 -10.20353 -10.20332 -10.20149
 Alpha  occ. eigenvalues --  -10.19560 -10.18986 -10.18488 -10.18123 -10.18049
 Alpha  occ. eigenvalues --  -10.17962 -10.17549 -10.17472 -10.17400 -10.17388
 Alpha  occ. eigenvalues --  -10.17335 -10.16981 -10.16800 -10.15719 -10.15345
 Alpha  occ. eigenvalues --  -10.14654 -10.13120  -1.88025  -1.15740  -1.15540
 Alpha  occ. eigenvalues --   -1.15044  -1.14837  -1.05462  -1.05000  -1.04955
 Alpha  occ. eigenvalues --   -1.03943  -1.03806  -1.03441  -1.03031  -1.02783
 Alpha  occ. eigenvalues --   -1.02633  -1.02477  -1.02256  -1.01846  -1.01677
 Alpha  occ. eigenvalues --   -1.01227  -1.00997  -1.00855  -1.00545  -1.00003
 Alpha  occ. eigenvalues --   -0.99052  -0.95032  -0.94137  -0.93465  -0.93349
 Alpha  occ. eigenvalues --   -0.93325  -0.92787  -0.92615  -0.92110  -0.91855
 Alpha  occ. eigenvalues --   -0.91402  -0.91027  -0.90867  -0.90533  -0.90316
 Alpha  occ. eigenvalues --   -0.90105  -0.89698  -0.88630  -0.86567  -0.83399
 Alpha  occ. eigenvalues --   -0.83158  -0.82311  -0.80632  -0.79932  -0.79356
 Alpha  occ. eigenvalues --   -0.78118  -0.77703  -0.77363  -0.76927  -0.76756
 Alpha  occ. eigenvalues --   -0.76024  -0.75157  -0.75054  -0.73416  -0.73243
 Alpha  occ. eigenvalues --   -0.73008  -0.72861  -0.72045  -0.71897  -0.71862
 Alpha  occ. eigenvalues --   -0.70890  -0.70265  -0.68735  -0.67871  -0.67561
 Alpha  occ. eigenvalues --   -0.67259  -0.66854  -0.65570  -0.64727  -0.64582
 Alpha  occ. eigenvalues --   -0.63720  -0.62917  -0.62024  -0.61849  -0.61762
 Alpha  occ. eigenvalues --   -0.61023  -0.60669  -0.60306  -0.59391  -0.59335
 Alpha  occ. eigenvalues --   -0.59148  -0.58726  -0.58560  -0.57907  -0.57508
 Alpha  occ. eigenvalues --   -0.57230  -0.57198  -0.57115  -0.56966  -0.56758
 Alpha  occ. eigenvalues --   -0.56513  -0.56145  -0.56035  -0.55805  -0.55329
 Alpha  occ. eigenvalues --   -0.55091  -0.54974  -0.53815  -0.53493  -0.53466
 Alpha  occ. eigenvalues --   -0.52838  -0.52749  -0.52652  -0.51947  -0.51630
 Alpha  occ. eigenvalues --   -0.51591  -0.51394  -0.51342  -0.50954  -0.50351
 Alpha  occ. eigenvalues --   -0.50123  -0.49930  -0.49757  -0.49272  -0.48940
 Alpha  occ. eigenvalues --   -0.48754  -0.48471  -0.48275  -0.48162  -0.47510
 Alpha  occ. eigenvalues --   -0.47311  -0.47072  -0.46705  -0.46426  -0.46402
 Alpha  occ. eigenvalues --   -0.46166  -0.46029  -0.45897  -0.45750  -0.45313
 Alpha  occ. eigenvalues --   -0.45114  -0.45053  -0.45032  -0.44978  -0.44836
 Alpha  occ. eigenvalues --   -0.44820  -0.44719  -0.44397  -0.44201  -0.44041
 Alpha  occ. eigenvalues --   -0.43748  -0.43658  -0.43584  -0.43218  -0.43164
 Alpha  occ. eigenvalues --   -0.43084  -0.43022  -0.42875  -0.42747  -0.42610
 Alpha  occ. eigenvalues --   -0.42561  -0.42168  -0.41908  -0.41789  -0.41763
 Alpha  occ. eigenvalues --   -0.41648  -0.41502  -0.41423  -0.41164  -0.41037
 Alpha  occ. eigenvalues --   -0.40996  -0.40829  -0.40625  -0.40316  -0.40142
 Alpha  occ. eigenvalues --   -0.40025  -0.39916  -0.39686  -0.39464  -0.39445
 Alpha  occ. eigenvalues --   -0.39380  -0.39331  -0.39239  -0.38894  -0.38702
 Alpha  occ. eigenvalues --   -0.38633  -0.38569  -0.38357  -0.38334  -0.38175
 Alpha  occ. eigenvalues --   -0.38130  -0.37961  -0.37894  -0.37712  -0.37511
 Alpha  occ. eigenvalues --   -0.37305  -0.37036  -0.36932  -0.36906  -0.36805
 Alpha  occ. eigenvalues --   -0.36322  -0.36277  -0.36211  -0.36120  -0.36044
 Alpha  occ. eigenvalues --   -0.36004  -0.35863  -0.35404  -0.35303  -0.35234
 Alpha  occ. eigenvalues --   -0.35072  -0.34851  -0.34303  -0.34206  -0.34118
 Alpha  occ. eigenvalues --   -0.33777  -0.33414  -0.33341  -0.33267  -0.32624
 Alpha  occ. eigenvalues --   -0.32596  -0.31955  -0.31889  -0.31096  -0.30980
 Alpha  occ. eigenvalues --   -0.29751  -0.29373  -0.29112  -0.29014  -0.28575
 Alpha  occ. eigenvalues --   -0.28522  -0.28447  -0.28278  -0.28161  -0.28071
 Alpha  occ. eigenvalues --   -0.27838  -0.27570  -0.27214  -0.27150  -0.26955
 Alpha  occ. eigenvalues --   -0.26680  -0.26593  -0.26487  -0.26238  -0.25832
 Alpha  occ. eigenvalues --   -0.25520  -0.25162  -0.25144  -0.25062  -0.24627
 Alpha  occ. eigenvalues --   -0.24572  -0.24418  -0.24130  -0.24081  -0.23879
 Alpha  occ. eigenvalues --   -0.23693  -0.23507  -0.23485  -0.23095  -0.22904
 Alpha  occ. eigenvalues --   -0.22578  -0.22436  -0.22027  -0.21395  -0.20152
 Alpha  occ. eigenvalues --   -0.16187  -0.15508  -0.13145
 Alpha virt. eigenvalues --   -0.11718  -0.05944  -0.05751  -0.05643  -0.02330
 Alpha virt. eigenvalues --   -0.00988  -0.00710  -0.00457   0.00066   0.00684
 Alpha virt. eigenvalues --    0.00732   0.00803   0.01130   0.01287   0.01555

 Mulliken charges:
               1
     1  C    0.053575
     2  C    0.006406
     3  O   -0.255369
     4  H    0.040747
     5  H   -0.068501
     6  H    0.037235
     7  N   -0.121059
     8  C    0.169093
     9  C    0.022186
    10  O   -0.306209
    11  C    0.071206
    12  C    0.041882
    13  O   -0.359330
    14  O   -0.417868
    15  H    0.094185
    16  H    0.000050
    17  H    0.023541
    18  H   -0.003802
    19  N   -0.119073
    20  C    0.079720
    21  C    0.069725
    22  O   -0.282041
    23  C    0.085028
    24  C    0.009184
    25  C   -0.065708
    26  C   -0.003594
    27  N    0.091343
    28  H    0.123604
    29  H   -0.027029
    30  H   -0.076188
    31  H    0.040712
    32  H   -0.011439
    33  H    0.048627
    34  H    0.025319
    35  H    0.060228
    36  H    0.075225
    37  H    0.109524
    38  H    0.186588
    39  H    0.186567
    40  H    0.198612
    41  N   -0.086482
    42  C    0.047992
    43  C    0.090532
    44  O   -0.285206
    45  C    0.140281
    46  C    0.126341
    47  O   -0.451554
    48  O   -0.441549
    49  H    0.150072
    50  H    0.020770
    51  H    0.014256
    52  H   -0.002104
    53  N   -0.128898
    54  C    0.228161
    55  C   -0.009000
    56  O   -0.284890
    57  H    0.136076
    58  H    0.065081
    59  H    0.021907
    60  N   -0.069324
    61  C   -0.036229
    62  C    0.145356
    63  O   -0.281953
    64  C    0.176900
    65  C   -0.030313
    66  N   -0.054204
    67  O   -0.310998
    68  H    0.130882
    69  H    0.034109
    70  H   -0.016930
    71  H    0.023194
    72  H    0.118097
    73  H    0.114450
    74  N   -0.143849
    75  C    0.201621
    76  C    0.022235
    77  O   -0.283378
    78  H    0.130964
    79  H    0.048706
    80  H    0.054167
    81  N   -0.169376
    82  C    0.075965
    83  C    0.149214
    84  O   -0.332503
    85  C    0.211480
    86  C   -0.073767
    87  C   -0.007566
    88  C    0.010034
    89  C   -0.006307
    90  C   -0.043061
    91  C    0.171891
    92  O   -0.221794
    93  H    0.147050
    94  H    0.020317
    95  H    0.008003
    96  H    0.034851
    97  H   -0.026847
    98  H   -0.043543
    99  H   -0.028408
   100  H   -0.043877
   101  H    0.171400
   102  N   -0.114196
   103  C    0.111713
   104  C    0.079520
   105  O   -0.279958
   106  C   -0.069047
   107  C    0.015603
   108  C    0.058254
   109  C    0.031355
   110  H    0.152774
   111  H   -0.018309
   112  H    0.016347
   113  H   -0.026392
   114  H   -0.013145
   115  H    0.001645
   116  H   -0.005227
   117  H    0.015685
   118  H    0.029319
   119  H    0.016532
   120  H    0.002779
   121  N   -0.115425
   122  C    0.059235
   123  C    0.084095
   124  O   -0.295837
   125  C    0.199642
   126  O   -0.313104
   127  H    0.145781
   128  H    0.047746
   129  H   -0.011379
   130  H    0.017534
   131  H    0.170744
   132  N   -0.096124
   133  C    0.060467
   134  C    0.016980
   135  O   -0.265993
   136  C    0.078203
   137  H    0.129107
   138  H    0.020616
   139  H    0.038167
   140  H    0.011376
   141  H    0.012870
   142  N   -0.122545
   143  C    0.077067
   144  C    0.079057
   145  O   -0.271273
   146  C    0.066549
   147  H    0.119912
   148  H    0.010209
   149  H    0.023787
   150  H    0.028052
   151  H    0.011680
   152  N   -0.173856
   153  C    0.190581
   154  C    0.035414
   155  O   -0.277739
   156  C   -0.048207
   157  C    0.078559
   158  C    0.110564
   159  O   -0.428187
   160  O   -0.429777
   161  H    0.153456
   162  H   -0.006951
   163  H   -0.002279
   164  H    0.029710
   165  H    0.014442
   166  H    0.010365
   167  N   -0.164794
   168  C    0.138242
   169  H    0.036293
   170  H    0.023719
   171  H    0.005834
   172  H    0.124332
   173  Ca   1.351355
   174  O   -0.318390
   175  H    0.186207
   176  H    0.177310
 Sum of Mulliken charges =  -0.00000

 Dipole moment (field-independent basis, Debye):
    X=             -1.0430    Y=            -30.4154    Z=             -8.8079  Tot=             31.6822
 Quadrupole moment (field-independent basis, Debye-Ang):
   XX=           -603.0288   YY=           -307.4252   ZZ=           -577.0604
   XY=           -232.0993   XZ=              4.9638   YZ=             -4.2056

 ESP charges:
               1
     1  C   -0.510406
     2  C    0.735065
     3  O   -0.544272
     4  H    0.136392
     5  H    0.073998
     6  H    0.139815
     7  N   -0.546647
     8  C    0.240252
     9  C    0.598178
    10  O   -0.599206
    11  C   -0.485776
    12  C    0.822689
    13  O   -0.696560
    14  O   -0.752351
    15  H    0.248396
    16  H    0.022369
    17  H    0.122191
    18  H    0.128793
    19  N   -0.526949
    20  C    0.162955
    21  C    0.566795
    22  O   -0.552987
    23  C   -0.127787
    24  C   -0.088499
    25  C   -0.082516
    26  C    0.152147
    27  N   -0.497056
    28  H    0.325955
    29  H    0.016470
    30  H    0.005775
    31  H    0.097259
    32  H    0.022512
    33  H    0.079322
    34  H    0.042877
    35  H    0.072280
    36  H    0.055236
    37  H    0.056880
    38  H    0.352495
    39  H    0.351021
    40  H    0.377871
    41  N   -0.561633
    42  C    0.385498
    43  C    0.371553
    44  O   -0.467981
    45  C   -0.296172
    46  C    0.771747
    47  O   -0.764393
    48  O   -0.771727
    49  H    0.328208
    50  H   -0.007815
    51  H    0.099741
    52  H    0.058108
    53  N   -0.410971
    54  C   -0.004224
    55  C    0.439963
    56  O   -0.536062
    57  H    0.308148
    58  H    0.151074
    59  H    0.046086
    60  N   -0.455923
    61  C    0.462477
    62  C    0.316063
    63  O   -0.513864
    64  C   -0.563107
    65  C    0.839172
    66  N   -0.933272
    67  O   -0.616241
    68  H    0.306520
    69  H    0.036959
    70  H    0.142566
    71  H    0.159614
    72  H    0.389486
    73  H    0.391279
    74  N   -0.310788
    75  C   -0.127890
    76  C    0.584102
    77  O   -0.575710
    78  H    0.274551
    79  H    0.116765
    80  H    0.083391
    81  N   -0.531955
    82  C    0.099505
    83  C    0.913085
    84  O   -0.666216
    85  C   -0.435967
    86  C    0.285292
    87  C   -0.263713
    88  C   -0.281080
    89  C   -0.197273
    90  C   -0.265876
    91  C    0.341172
    92  O   -0.568202
    93  H    0.298668
    94  H    0.061561
    95  H    0.139729
    96  H    0.172609
    97  H    0.157902
    98  H    0.221319
    99  H    0.148172
   100  H    0.138048
   101  H    0.413093
   102  N   -0.953849
   103  C    0.657598
   104  C    0.425096
   105  O   -0.530078
   106  C   -0.270783
   107  C    0.191391
   108  C   -0.205383
   109  C   -0.386717
   110  H    0.436733
   111  H   -0.048302
   112  H    0.169633
   113  H   -0.044131
   114  H    0.000382
   115  H    0.072262
   116  H    0.041289
   117  H    0.062433
   118  H    0.151371
   119  H    0.067719
   120  H    0.094164
   121  N   -0.487831
   122  C    0.241688
   123  C    0.421095
   124  O   -0.400913
   125  C    0.158898
   126  O   -0.695763
   127  H    0.283714
   128  H    0.089021
   129  H    0.022392
   130  H    0.027300
   131  H    0.441855
   132  N   -0.528518
   133  C    0.353918
   134  C    0.480470
   135  O   -0.467817
   136  C   -0.357656
   137  H    0.324225
   138  H   -0.014503
   139  H    0.111251
   140  H    0.103205
   141  H    0.075773
   142  N   -0.463269
   143  C    0.110631
   144  C    0.525699
   145  O   -0.528917
   146  C   -0.219978
   147  H    0.289452
   148  H    0.064734
   149  H    0.094925
   150  H    0.051951
   151  H    0.073247
   152  N   -0.061979
   153  C   -0.435517
   154  C    0.562979
   155  O   -0.526499
   156  C    0.639873
   157  C   -0.443023
   158  C    0.775172
   159  O   -0.772600
   160  O   -0.767229
   161  H   -0.166644
   162  H    0.146379
   163  H   -0.068210
   164  H   -0.304880
   165  H    0.195352
   166  H    0.100455
   167  N   -0.249898
   168  C   -0.218056
   169  H    0.114656
   170  H    0.095121
   171  H    0.087588
   172  H    0.254811
   173  Ca   1.621530
   174  O   -0.871538
   175  H    0.437954
   176  H    0.422946
 Sum of ESP charges =   0.00000

 Normal termination of Gaussian 16 at Wed Sep 18 20:08:24 2019.
