 Gaussian 16, Revision A.03,
 Gaussian 16:  ES64L-G16RevA.03 25-Dec-2016

 ----------------------------------------------------------------------
 #b3lyp/svp scf=(tight,noincore) Test #IOP(5/87=12) Density=Current Pop
 =(MK,readradii) iop(6/33=2) iop(6/42=6)
 ----------------------------------------------------------------------

 ----------------
 Ng-31_loop3_37.0
 ----------------
 Symbolic Z-matrix:
 Charge =  0 Multiplicity = 1

                         Standard orientation:
 ---------------------------------------------------------------------
 Center     Atomic      Atomic             Coordinates (Angstroms)
 Number     Number       Type             X           Y           Z
 ---------------------------------------------------------------------
      1          6           0       -3.380642    4.459496    5.724551
      2          6           0       -3.357794    4.203252    4.221781
      3          8           0       -2.361587    3.642536    3.785813
      4          1           0       -2.494795    5.026524    6.008987
      5          1           0       -4.274010    5.027641    5.983403
      6          1           0       -3.388748    3.507458    6.255822
      7          7           0       -4.435579    4.513903    3.500895
      8          6           0       -4.792135    4.150407    2.136146
      9          6           0       -3.762326    4.497356    1.071994
     10          8           0       -3.650517    3.765377    0.098339
     11          6           0       -6.136174    4.756523    1.756300
     12          6           0       -6.444652    6.221946    2.053583
     13          8           0       -6.871235    6.411419    3.211912
     14          8           0       -6.089255    7.105114    1.248345
     15          1           0       -5.253061    4.795796    4.022391
     16          1           0       -4.936342    3.086001    2.016802
     17          1           0       -6.923754    4.126656    2.175330
     18          1           0       -6.217982    4.568316    0.688178
     19          7           0       -2.913482    5.521192    1.197790
     20          6           0       -1.754095    5.702602    0.347430
     21          6           0       -1.941363    5.538253   -1.157967
     22          8           0       -2.873722    6.129025   -1.693966
     23          6           0       -1.191237    7.078319    0.673455
     24          6           0        0.214458    7.277219    0.110195
     25          6           0        0.646182    8.582402    0.767926
     26          6           0        2.135255    8.758176    0.454292
     27          7           0        2.683345    9.987094    1.051669
     28          1           0       -3.093688    6.330195    1.771585
     29          1           0       -1.046528    4.927791    0.624589
     30          1           0       -1.179069    7.110008    1.760353
     31          1           0       -1.843924    7.893313    0.343631
     32          1           0        0.226784    7.363721   -0.971131
     33          1           0        0.787287    6.426417    0.473790
     34          1           0        0.568180    8.634025    1.846328
     35          1           0        0.180057    9.418897    0.238772
     36          1           0        2.328445    8.714442   -0.615785
     37          1           0        2.617224    7.888895    0.891391
     38          1           0        3.656877   10.156104    0.814663
     39          1           0        2.080637   10.794491    0.950415
     40          1           0        2.713111    9.844245    2.048418
     41          7           0       -1.129239    4.660326   -1.773352
     42          6           0       -1.233619    4.116970   -3.105594
     43          6           0       -1.661263    2.664212   -3.199495
     44          8           0       -1.238965    1.923110   -4.088219
     45          6           0        0.060569    4.407720   -3.870671
     46          6           0        1.382559    4.028057   -3.208101
     47          8           0        2.444986    4.226208   -3.825828
     48          8           0        1.454665    3.513699   -2.072832
     49          1           0       -0.303873    4.366828   -1.275828
     50          1           0       -1.982448    4.635722   -3.710368
     51          1           0        0.060060    5.485450   -4.043867
     52          1           0       -0.067012    3.952132   -4.844921
     53          7           0       -2.541697    2.189011   -2.314894
     54          6           0       -3.258812    0.924809   -2.389982
     55          6           0       -4.667166    1.012392   -2.974249
     56          8           0       -5.178345    2.099519   -3.237595
     57          1           0       -2.789926    2.826573   -1.574423
     58          1           0       -3.300702    0.573443   -1.357370
     59          1           0       -2.710530    0.237278   -3.030597
     60          7           0       -5.331239   -0.134268   -3.065779
     61          6           0       -5.112652   -1.445208   -2.493892
     62          6           0       -6.414555   -2.133797   -2.085977
     63          8           0       -7.240580   -2.295075   -2.984349
     64          6           0       -4.276741   -2.214045   -3.517729
     65          6           0       -4.443599   -3.727882   -3.462432
     66          7           0       -3.932006   -4.402809   -4.496234
     67          8           0       -4.845332   -4.341809   -2.475364
     68          1           0       -6.263203    0.015091   -3.429284
     69          1           0       -4.560219   -1.350423   -1.566782
     70          1           0       -3.246005   -2.010676   -3.245474
     71          1           0       -4.489588   -1.899481   -4.534364
     72          1           0       -3.401914   -3.902463   -5.181768
     73          1           0       -3.978800   -5.414150   -4.536240
     74          7           0       -6.702170   -2.590139   -0.869248
     75          6           0       -6.136821   -2.332126    0.433215
     76          6           0       -4.863924   -3.013714    0.931984
     77          8           0       -4.365638   -2.664513    1.994890
     78          1           0       -7.600209   -3.055016   -0.879959
     79          1           0       -6.995444   -2.494050    1.091582
     80          1           0       -5.953672   -1.259718    0.534685
     81          7           0       -4.332524   -3.935124    0.121910
     82          6           0       -3.119327   -4.610394    0.515818
     83          6           0       -1.949204   -3.938202   -0.203328
     84          8           0       -2.038896   -3.472720   -1.337252
     85          6           0       -3.233638   -6.108690    0.261765
     86          6           0       -4.090749   -6.859418    1.252859
     87          6           0       -3.566202   -7.489519    2.387726
     88          6           0       -5.480651   -6.839532    1.126059
     89          6           0       -4.339792   -8.135744    3.361406
     90          6           0       -6.312334   -7.494940    2.047386
     91          6           0       -5.737180   -8.127574    3.157103
     92          8           0       -6.605046   -8.667800    4.073545
     93          1           0       -4.710539   -4.129187   -0.794138
     94          1           0       -2.981777   -4.468690    1.589456
     95          1           0       -2.246332   -6.565576    0.210946
     96          1           0       -3.784056   -6.151475   -0.682433
     97          1           0       -2.489235   -7.620935    2.325495
     98          1           0       -5.961453   -6.278971    0.340693
     99          1           0       -3.886550   -8.685755    4.169775
    100          1           0       -7.387380   -7.376493    2.035267
    101          1           0       -7.449676   -8.471494    3.658379
    102          7           0       -0.807967   -3.867627    0.479604
    103          6           0        0.297606   -2.980134    0.197355
    104          6           0        1.395762   -3.699300   -0.574173
    105          8           0        1.606397   -4.868348   -0.302958
    106          6           0        0.778364   -2.168590    1.401086
    107          6           0       -0.296366   -1.121182    1.693648
    108          6           0        1.034329   -3.005740    2.652550
    109          6           0       -0.141237   -0.228739    2.917895
    110          1           0       -0.700807   -4.350353    1.364133
    111          1           0       -0.065479   -2.226642   -0.513714
    112          1           0        1.748060   -1.719187    1.191738
    113          1           0       -1.225346   -1.673291    1.677179
    114          1           0       -0.415675   -0.505355    0.803074
    115          1           0        1.482074   -2.336311    3.390649
    116          1           0        0.079836   -3.269578    3.112367
    117          1           0        1.674255   -3.855756    2.435372
    118          1           0       -0.636554   -0.698254    3.765725
    119          1           0        0.930563   -0.123814    3.123649
    120          1           0       -0.688658    0.686342    2.694381
    121          7           0        2.083750   -3.018936   -1.500875
    122          6           0        3.261591   -3.353205   -2.262160
    123          6           0        4.471240   -3.807059   -1.452365
    124          8           0        4.359479   -4.253082   -0.312246
    125          6           0        2.851614   -4.378460   -3.317845
    126          8           0        2.012854   -3.871168   -4.325087
    127          1           0        1.819027   -2.040569   -1.527725
    128          1           0        3.501266   -2.418020   -2.764738
    129          1           0        2.327551   -5.201831   -2.842116
    130          1           0        3.722658   -4.887637   -3.740481
    131          1           0        1.146338   -3.603972   -4.012108
    132          7           0        5.688470   -3.585648   -1.951793
    133          6           0        6.951651   -3.790069   -1.266165
    134          6           0        7.593268   -2.484455   -0.822315
    135          8           0        7.287035   -1.446985   -1.399876
    136          6           0        7.928278   -4.644610   -2.077743
    137          1           0        5.718571   -3.320334   -2.919937
    138          1           0        6.703755   -4.359596   -0.371634
    139          1           0        8.895075   -4.475909   -1.596658
    140          1           0        7.608583   -5.684031   -2.171010
    141          1           0        7.956381   -4.176262   -3.054453
    142          7           0        8.541195   -2.630368    0.097817
    143          6           0        9.224394   -1.544035    0.774663
    144          6           0        8.191931   -0.707960    1.523462
    145          8           0        8.649173    0.279064    2.105539
    146          6           0       10.275641   -0.949579   -0.159950
    147          1           0        8.604606   -3.522002    0.569695
    148          1           0        9.762386   -2.040924    1.573266
    149          1           0       10.850383   -0.155170    0.312158
    150          1           0       10.900352   -1.761745   -0.538793
    151          1           0        9.781106   -0.463255   -0.997281
    152          7           0        6.914411   -1.090023    1.567855
    153          6           0        5.919118   -0.359228    2.322528
    154          6           0        5.887195   -0.576495    3.822920
    155          8           0        5.802942    0.398814    4.557136
    156          6           0        4.607382   -0.546527    1.562747
    157          6           0        3.678831    0.658662    1.545088
    158          6           0        4.120644    1.866681    0.737877
    159          8           0        3.267544    2.743808    0.491565
    160          8           0        5.242175    1.861079    0.180080
    161          1           0        6.752194   -2.017503    1.207623
    162          1           0        6.199239    0.697016    2.286756
    163          1           0        4.023187   -1.432235    1.812426
    164          1           0        4.892414   -0.816338    0.541199
    165          1           0        3.545312    1.172797    2.497001
    166          1           0        2.696592    0.335792    1.207506
    167          7           0        6.010142   -1.827219    4.291720
    168          6           0        6.140824   -2.230969    5.676858
    169          1           0        7.009873   -1.742412    6.116710
    170          1           0        5.245003   -1.940997    6.225991
    171          1           0        6.266874   -3.312344    5.730869
    172          1           0        5.976274   -2.584511    3.615953
    173         20           0        4.178968    3.459146   -1.818088
    174          8           0        6.105604    2.694638   -3.367281
    175          1           0        6.476430    3.223063   -4.073932
    176          1           0        6.558348    1.848522   -3.436650
 ---------------------------------------------------------------------

 SCF Done:  E(RB3LYP) =  -5333.36682427     A.U. after   33 cycles

 The electronic state is 1-A.
 Alpha  occ. eigenvalues -- -145.47025 -19.24589 -19.15309 -19.13597 -19.12832
 Alpha  occ. eigenvalues --  -19.10783 -19.10301 -19.09532 -19.09212 -19.08750
 Alpha  occ. eigenvalues --  -19.08737 -19.08596 -19.08351 -19.08323 -19.08261
 Alpha  occ. eigenvalues --  -19.08102 -19.07707 -19.06015 -19.05815 -19.05641
 Alpha  occ. eigenvalues --  -19.05556 -19.04258 -18.96559 -18.96486 -15.52983
 Alpha  occ. eigenvalues --  -14.57532 -14.39045 -14.37577 -14.36402 -14.36400
 Alpha  occ. eigenvalues --  -14.35576 -14.35406 -14.34864 -14.34853 -14.32843
 Alpha  occ. eigenvalues --  -14.32478 -14.32287 -14.31444 -14.30681 -14.30236
 Alpha  occ. eigenvalues --  -12.66631 -12.66511 -12.66489 -10.34121 -10.31141
 Alpha  occ. eigenvalues --  -10.30049 -10.29174 -10.28813 -10.27567 -10.27549
 Alpha  occ. eigenvalues --  -10.27514 -10.27416 -10.27298 -10.27188 -10.27127
 Alpha  occ. eigenvalues --  -10.26637 -10.25874 -10.25794 -10.25440 -10.25233
 Alpha  occ. eigenvalues --  -10.24895 -10.24476 -10.24382 -10.24128 -10.24055
 Alpha  occ. eigenvalues --  -10.23549 -10.23443 -10.23266 -10.22609 -10.22409
 Alpha  occ. eigenvalues --  -10.22389 -10.22330 -10.22140 -10.21572 -10.20986
 Alpha  occ. eigenvalues --  -10.20754 -10.20388 -10.20240 -10.19993 -10.19317
 Alpha  occ. eigenvalues --  -10.18978 -10.18919 -10.18445 -10.18390 -10.18275
 Alpha  occ. eigenvalues --  -10.18262 -10.18209 -10.18205 -10.17994 -10.17872
 Alpha  occ. eigenvalues --  -10.17236 -10.17176 -10.15995 -10.15974 -10.15413
 Alpha  occ. eigenvalues --  -10.15265 -10.10413  -1.89654  -1.17563  -1.16741
 Alpha  occ. eigenvalues --   -1.16490  -1.12979  -1.10214  -1.06162  -1.04383
 Alpha  occ. eigenvalues --   -1.04330  -1.03657  -1.03380  -1.03266  -1.02786
 Alpha  occ. eigenvalues --   -1.02639  -1.01988  -1.01766  -1.01622  -1.01445
 Alpha  occ. eigenvalues --   -1.00569  -0.99740  -0.99281  -0.98530  -0.98048
 Alpha  occ. eigenvalues --   -0.97308  -0.96519  -0.93966  -0.93200  -0.93075
 Alpha  occ. eigenvalues --   -0.92958  -0.92518  -0.91647  -0.91499  -0.91301
 Alpha  occ. eigenvalues --   -0.90813  -0.90511  -0.90319  -0.89908  -0.89425
 Alpha  occ. eigenvalues --   -0.89307  -0.88288  -0.87082  -0.86892  -0.84015
 Alpha  occ. eigenvalues --   -0.82228  -0.81429  -0.81053  -0.81018  -0.79418
 Alpha  occ. eigenvalues --   -0.78440  -0.77641  -0.77336  -0.76985  -0.76245
 Alpha  occ. eigenvalues --   -0.74673  -0.73571  -0.73378  -0.73332  -0.73112
 Alpha  occ. eigenvalues --   -0.72400  -0.71790  -0.71040  -0.70806  -0.70639
 Alpha  occ. eigenvalues --   -0.70314  -0.69620  -0.69065  -0.68273  -0.67875
 Alpha  occ. eigenvalues --   -0.67668  -0.66778  -0.66323  -0.65054  -0.64324
 Alpha  occ. eigenvalues --   -0.63554  -0.63404  -0.63142  -0.62619  -0.62228
 Alpha  occ. eigenvalues --   -0.61662  -0.61488  -0.60936  -0.60526  -0.59732
 Alpha  occ. eigenvalues --   -0.59642  -0.58949  -0.58915  -0.58846  -0.58364
 Alpha  occ. eigenvalues --   -0.57846  -0.57474  -0.57357  -0.57034  -0.56896
 Alpha  occ. eigenvalues --   -0.56668  -0.55989  -0.55622  -0.55482  -0.54415
 Alpha  occ. eigenvalues --   -0.54235  -0.54137  -0.53306  -0.53156  -0.53076
 Alpha  occ. eigenvalues --   -0.52494  -0.52106  -0.51835  -0.51764  -0.51520
 Alpha  occ. eigenvalues --   -0.51123  -0.50856  -0.50489  -0.50297  -0.50173
 Alpha  occ. eigenvalues --   -0.49693  -0.49427  -0.49129  -0.49022  -0.48631
 Alpha  occ. eigenvalues --   -0.48402  -0.48130  -0.48115  -0.47518  -0.47471
 Alpha  occ. eigenvalues --   -0.47031  -0.46838  -0.46602  -0.46504  -0.46187
 Alpha  occ. eigenvalues --   -0.46041  -0.45750  -0.45635  -0.45492  -0.45317
 Alpha  occ. eigenvalues --   -0.45230  -0.45059  -0.44973  -0.44777  -0.44208
 Alpha  occ. eigenvalues --   -0.44147  -0.43988  -0.43848  -0.43643  -0.43543
 Alpha  occ. eigenvalues --   -0.43464  -0.43342  -0.43239  -0.43011  -0.42971
 Alpha  occ. eigenvalues --   -0.42840  -0.42771  -0.42735  -0.42485  -0.42344
 Alpha  occ. eigenvalues --   -0.42248  -0.42071  -0.42015  -0.41915  -0.41849
 Alpha  occ. eigenvalues --   -0.41704  -0.41524  -0.41187  -0.41157  -0.40968
 Alpha  occ. eigenvalues --   -0.40797  -0.40681  -0.40632  -0.40167  -0.40083
 Alpha  occ. eigenvalues --   -0.39966  -0.39895  -0.39712  -0.39599  -0.39353
 Alpha  occ. eigenvalues --   -0.39267  -0.39122  -0.39044  -0.39013  -0.38879
 Alpha  occ. eigenvalues --   -0.38852  -0.38745  -0.38366  -0.38309  -0.38212
 Alpha  occ. eigenvalues --   -0.37807  -0.37720  -0.37383  -0.37331  -0.37328
 Alpha  occ. eigenvalues --   -0.37184  -0.36849  -0.36587  -0.36465  -0.36258
 Alpha  occ. eigenvalues --   -0.35884  -0.35654  -0.35572  -0.35540  -0.35348
 Alpha  occ. eigenvalues --   -0.35195  -0.34965  -0.34828  -0.34614  -0.34499
 Alpha  occ. eigenvalues --   -0.34407  -0.34171  -0.34099  -0.33661  -0.33468
 Alpha  occ. eigenvalues --   -0.33401  -0.33246  -0.33108  -0.32709  -0.32658
 Alpha  occ. eigenvalues --   -0.32119  -0.31877  -0.31659  -0.31436  -0.31030
 Alpha  occ. eigenvalues --   -0.30714  -0.30418  -0.29205  -0.29002  -0.28156
 Alpha  occ. eigenvalues --   -0.27994  -0.27708  -0.27536  -0.27374  -0.27340
 Alpha  occ. eigenvalues --   -0.26882  -0.26626  -0.26446  -0.26297  -0.26169
 Alpha  occ. eigenvalues --   -0.25895  -0.25830  -0.25498  -0.25490  -0.25010
 Alpha  occ. eigenvalues --   -0.24886  -0.24768  -0.24440  -0.24391  -0.24100
 Alpha  occ. eigenvalues --   -0.23826  -0.23810  -0.23756  -0.23377  -0.23256
 Alpha  occ. eigenvalues --   -0.23229  -0.22762  -0.22321  -0.22144  -0.21349
 Alpha  occ. eigenvalues --   -0.21337  -0.20930  -0.20808  -0.20515  -0.19854
 Alpha  occ. eigenvalues --   -0.14134  -0.13198  -0.11633
 Alpha virt. eigenvalues --   -0.10568  -0.09339  -0.04743  -0.04127  -0.03476
 Alpha virt. eigenvalues --   -0.01569  -0.01491  -0.01086  -0.00992  -0.00230
 Alpha virt. eigenvalues --    0.00543   0.00723   0.01064   0.01859   0.01898

 Mulliken charges:
               1
     1  C    0.058510
     2  C   -0.012805
     3  O   -0.307128
     4  H    0.013378
     5  H    0.003862
     6  H    0.035040
     7  N   -0.092963
     8  C    0.134064
     9  C    0.108096
    10  O   -0.295378
    11  C    0.044484
    12  C    0.063331
    13  O   -0.381907
    14  O   -0.353907
    15  H    0.120820
    16  H   -0.011220
    17  H   -0.022104
    18  H   -0.004382
    19  N   -0.089417
    20  C    0.159632
    21  C    0.048000
    22  O   -0.250094
    23  C   -0.034340
    24  C    0.000855
    25  C   -0.024389
    26  C    0.022180
    27  N    0.131959
    28  H    0.125023
    29  H   -0.013167
    30  H    0.005675
    31  H    0.040245
    32  H    0.036418
    33  H    0.026662
    34  H    0.020923
    35  H    0.032495
    36  H    0.059671
    37  H    0.055424
    38  H    0.141425
    39  H    0.156606
    40  H    0.141436
    41  N   -0.165305
    42  C    0.133880
    43  C    0.053376
    44  O   -0.302279
    45  C    0.076632
    46  C    0.104280
    47  O   -0.436546
    48  O   -0.409165
    49  H    0.122446
    50  H    0.040333
    51  H   -0.002134
    52  H    0.030789
    53  N   -0.126551
    54  C    0.178885
    55  C    0.006369
    56  O   -0.239591
    57  H    0.134005
    58  H    0.038678
    59  H    0.014159
    60  N   -0.121359
    61  C    0.086620
    62  C    0.043342
    63  O   -0.289320
    64  C    0.105864
    65  C    0.069782
    66  N   -0.032352
    67  O   -0.308368
    68  H    0.127440
    69  H   -0.006770
    70  H    0.057487
    71  H    0.020591
    72  H    0.116642
    73  H    0.129654
    74  N   -0.098833
    75  C    0.146771
    76  C    0.061224
    77  O   -0.279427
    78  H    0.128852
    79  H    0.033473
    80  H    0.045200
    81  N   -0.156754
    82  C    0.098466
    83  C    0.108931
    84  O   -0.291151
    85  C    0.163788
    86  C   -0.026554
    87  C   -0.010017
    88  C   -0.021447
    89  C   -0.000046
    90  C   -0.027673
    91  C    0.138756
    92  O   -0.188105
    93  H    0.154726
    94  H    0.005280
    95  H   -0.004929
    96  H    0.001301
    97  H   -0.028856
    98  H   -0.034972
    99  H   -0.025885
   100  H   -0.041596
   101  H    0.162633
   102  N   -0.108633
   103  C    0.101662
   104  C    0.084739
   105  O   -0.258266
   106  C   -0.078460
   107  C   -0.018808
   108  C    0.044459
   109  C    0.066728
   110  H    0.119847
   111  H   -0.014913
   112  H   -0.030174
   113  H   -0.000442
   114  H   -0.010946
   115  H    0.005571
   116  H    0.006451
   117  H    0.030162
   118  H    0.009133
   119  H    0.010087
   120  H    0.045851
   121  N   -0.135858
   122  C    0.080518
   123  C    0.064808
   124  O   -0.259639
   125  C    0.257885
   126  O   -0.323508
   127  H    0.123537
   128  H    0.000585
   129  H    0.017397
   130  H   -0.012108
   131  H    0.172442
   132  N   -0.111922
   133  C    0.063038
   134  C    0.049575
   135  O   -0.263226
   136  C    0.077940
   137  H    0.107823
   138  H    0.007209
   139  H    0.004111
   140  H    0.045890
   141  H    0.002186
   142  N   -0.173720
   143  C    0.081160
   144  C    0.053519
   145  O   -0.282991
   146  C    0.087402
   147  H    0.126283
   148  H    0.017898
   149  H    0.031813
   150  H    0.009255
   151  H    0.016167
   152  N   -0.107613
   153  C    0.115660
   154  C    0.060258
   155  O   -0.255689
   156  C    0.076287
   157  C    0.042011
   158  C    0.062518
   159  O   -0.421284
   160  O   -0.414004
   161  H    0.111001
   162  H    0.032358
   163  H   -0.008596
   164  H   -0.007323
   165  H    0.036737
   166  H    0.025076
   167  N   -0.168606
   168  C    0.135410
   169  H    0.033115
   170  H    0.035274
   171  H    0.011744
   172  H    0.105765
   173  Ca   1.312820
   174  O   -0.326683
   175  H    0.198042
   176  H    0.218522
 Sum of Mulliken charges =  -0.00000

 Dipole moment (field-independent basis, Debye):
    X=             42.0766    Y=              7.9889    Z=             -6.9436  Tot=             43.3875
 Quadrupole moment (field-independent basis, Debye-Ang):
   XX=           -582.3899   YY=           -334.0818   ZZ=           -583.2418
   XY=            235.3039   XZ=            -32.6990   YZ=              6.4868

 ESP charges:
               1
     1  C   -0.445550
     2  C    0.730686
     3  O   -0.618037
     4  H    0.113720
     5  H    0.085587
     6  H    0.133884
     7  N   -0.593027
     8  C    0.227639
     9  C    0.614572
    10  O   -0.575970
    11  C   -0.289084
    12  C    0.717181
    13  O   -0.688696
    14  O   -0.653545
    15  H    0.325726
    16  H    0.028111
    17  H    0.051679
    18  H    0.074355
    19  N   -0.616096
    20  C    0.236949
    21  C    0.706520
    22  O   -0.541450
    23  C   -0.171070
    24  C   -0.129921
    25  C    0.073245
    26  C    0.158294
    27  N   -0.232665
    28  H    0.317846
    29  H    0.058617
    30  H    0.073217
    31  H    0.065864
    32  H    0.069359
    33  H    0.051633
    34  H    0.005320
    35  H    0.017009
    36  H    0.021931
    37  H    0.011868
    38  H    0.244318
    39  H    0.248758
    40  H    0.254002
    41  N   -0.778508
    42  C    0.319060
    43  C    0.548357
    44  O   -0.573266
    45  C   -0.128038
    46  C    0.651804
    47  O   -0.741952
    48  O   -0.658212
    49  H    0.262215
    50  H    0.028006
    51  H    0.040869
    52  H    0.052201
    53  N   -0.515254
    54  C    0.039531
    55  C    0.626915
    56  O   -0.532530
    57  H    0.355927
    58  H    0.057748
    59  H    0.069957
    60  N   -0.683821
    61  C    0.528432
    62  C    0.364301
    63  O   -0.544502
    64  C   -0.465826
    65  C    0.801708
    66  N   -0.858307
    67  O   -0.570441
    68  H    0.327758
    69  H   -0.038533
    70  H    0.130573
    71  H    0.129073
    72  H    0.384058
    73  H    0.393471
    74  N   -0.292347
    75  C   -0.235227
    76  C    0.563251
    77  O   -0.563243
    78  H    0.285757
    79  H    0.133299
    80  H    0.118848
    81  N   -0.403014
    82  C    0.312280
    83  C    0.627672
    84  O   -0.564674
    85  C   -0.285220
    86  C    0.114300
    87  C   -0.182267
    88  C   -0.110263
    89  C   -0.245877
    90  C   -0.392868
    91  C    0.399960
    92  O   -0.524162
    93  H    0.209126
    94  H    0.014461
    95  H    0.087714
    96  H    0.068800
    97  H    0.119809
    98  H    0.143453
    99  H    0.166644
   100  H    0.167319
   101  H    0.379712
   102  N   -0.620481
   103  C   -0.099562
   104  C    0.827288
   105  O   -0.556878
   106  C    0.193153
   107  C    0.278287
   108  C   -0.380551
   109  C   -0.393262
   110  H    0.318665
   111  H    0.018901
   112  H   -0.076925
   113  H   -0.032529
   114  H   -0.039430
   115  H    0.097719
   116  H    0.082314
   117  H    0.110189
   118  H    0.103128
   119  H    0.066957
   120  H    0.127571
   121  N   -0.653113
   122  C   -0.086440
   123  C    0.586392
   124  O   -0.484814
   125  C    0.343892
   126  O   -0.666295
   127  H    0.337846
   128  H    0.116716
   129  H    0.009706
   130  H    0.017245
   131  H    0.426398
   132  N   -0.741686
   133  C    0.628918
   134  C    0.380714
   135  O   -0.506840
   136  C   -0.412066
   137  H    0.308991
   138  H   -0.060318
   139  H    0.063509
   140  H    0.123439
   141  H    0.100326
   142  N   -0.419544
   143  C    0.230975
   144  C    0.390883
   145  O   -0.502388
   146  C   -0.203298
   147  H    0.245932
   148  H    0.025309
   149  H    0.061352
   150  H    0.056009
   151  H    0.077856
   152  N   -0.144853
   153  C   -0.393687
   154  C    0.599253
   155  O   -0.515107
   156  C   -0.000804
   157  C   -0.072838
   158  C    0.708979
   159  O   -0.751618
   160  O   -0.731842
   161  H    0.126294
   162  H    0.213307
   163  H    0.046945
   164  H    0.085578
   165  H    0.080081
   166  H    0.007141
   167  N   -0.319221
   168  C   -0.268641
   169  H    0.127538
   170  H    0.121086
   171  H    0.116783
   172  H    0.264652
   173  Ca   1.521613
   174  O   -0.805202
   175  H    0.424372
   176  H    0.441235
 Sum of ESP charges =   0.00000

 Normal termination of Gaussian 16 at Wed Sep 18 17:40:51 2019.
