 Gaussian 16, Revision A.03,
 Gaussian 16:  ES64L-G16RevA.03 25-Dec-2016

 ----------------------------------------------------------------------
 #b3lyp/svp scf=(tight,noincore) Test #IOP(5/87=12) Density=Current Pop
 =(MK,readradii) iop(6/33=2) iop(6/42=6)
 ----------------------------------------------------------------------

 ---------------
 Ng-31_loop3_9.0
 ---------------
 Symbolic Z-matrix:
 Charge =  0 Multiplicity = 1

                         Standard orientation:
 ---------------------------------------------------------------------
 Center     Atomic      Atomic             Coordinates (Angstroms)
 Number     Number       Type             X           Y           Z
 ---------------------------------------------------------------------
      1          6           0       -7.222747   -0.092081    5.301251
      2          6           0       -6.680433   -0.482135    3.938954
      3          8           0       -5.468003   -0.608581    3.766259
      4          1           0       -7.501679    0.961108    5.292700
      5          1           0       -8.098998   -0.697934    5.530930
      6          1           0       -6.456940   -0.258116    6.058560
      7          7           0       -7.575360   -0.769164    2.990207
      8          6           0       -7.132020   -1.397840    1.762683
      9          6           0       -6.461476   -0.444998    0.783517
     10          8           0       -5.433317   -0.776889    0.200047
     11          6           0       -8.187711   -2.270711    1.108457
     12          6           0       -9.570723   -1.651822    0.969701
     13          8           0      -10.304847   -1.647984    1.979229
     14          8           0       -9.967726   -1.133511   -0.097371
     15          1           0       -8.566454   -0.642637    3.166060
     16          1           0       -6.341350   -2.068199    2.095038
     17          1           0       -8.325524   -3.132009    1.764639
     18          1           0       -7.887657   -2.550379    0.098332
     19          7           0       -6.983665    0.784913    0.650711
     20          6           0       -6.197751    1.833835    0.037685
     21          6           0       -5.904855    1.491353   -1.419099
     22          8           0       -6.693479    0.972531   -2.212695
     23          6           0       -7.037516    3.107395    0.090997
     24          6           0       -6.187493    4.374776    0.172280
     25          6           0       -6.926038    5.489412    0.893348
     26          6           0       -6.224863    6.831017    0.702170
     27          7           0       -6.444175    7.409245   -0.629166
     28          1           0       -7.873075    0.991610    1.075829
     29          1           0       -5.236068    1.980924    0.522793
     30          1           0       -7.698583    3.196351    0.949470
     31          1           0       -7.572482    3.110585   -0.856421
     32          1           0       -6.069172    4.737133   -0.846639
     33          1           0       -5.307287    4.240822    0.801877
     34          1           0       -7.077524    5.301697    1.952270
     35          1           0       -7.971165    5.534459    0.615173
     36          1           0       -5.157874    6.843680    0.966506
     37          1           0       -6.762488    7.495418    1.380573
     38          1           0       -6.032554    8.330415   -0.559782
     39          1           0       -5.955625    6.897584   -1.355129
     40          1           0       -7.431089    7.479638   -0.839747
     41          7           0       -4.664157    1.791045   -1.778894
     42          6           0       -4.070474    1.523026   -3.071413
     43          6           0       -3.188558    0.281562   -3.039913
     44          8           0       -2.578698   -0.105727   -4.038301
     45          6           0       -3.389334    2.741559   -3.691837
     46          6           0       -2.485708    3.671790   -2.894134
     47          8           0       -1.852233    3.249559   -1.905484
     48          8           0       -2.271223    4.861588   -3.201018
     49          1           0       -3.990231    2.050443   -1.077725
     50          1           0       -4.838393    1.281459   -3.803360
     51          1           0       -4.147568    3.402759   -4.112307
     52          1           0       -2.785749    2.461772   -4.569792
     53          7           0       -3.271668   -0.607479   -2.037267
     54          6           0       -2.721410   -1.946680   -1.969020
     55          6           0       -3.429615   -3.030334   -2.779846
     56          8           0       -4.336166   -2.732415   -3.562156
     57          1           0       -3.710494   -0.325893   -1.180563
     58          1           0       -2.770948   -2.350560   -0.956781
     59          1           0       -1.707204   -1.998146   -2.373415
     60          7           0       -3.315129   -4.313358   -2.443182
     61          6           0       -2.490680   -4.900995   -1.409032
     62          6           0       -3.040730   -4.754450   -0.004977
     63          8           0       -4.233834   -4.580621    0.236865
     64          6           0       -2.344769   -6.366732   -1.813535
     65          6           0       -1.291458   -6.564550   -2.896497
     66          7           0       -0.073631   -6.921891   -2.491646
     67          8           0       -1.627855   -6.548132   -4.082021
     68          1           0       -3.883899   -4.941936   -3.000309
     69          1           0       -1.517370   -4.393472   -1.367940
     70          1           0       -3.332588   -6.698172   -2.140431
     71          1           0       -1.948542   -7.020232   -1.036848
     72          1           0        0.183754   -7.214401   -1.556183
     73          1           0        0.607191   -7.280934   -3.144539
     74          7           0       -2.229342   -4.930751    1.047433
     75          6           0       -0.791857   -5.143058    1.031195
     76          6           0        0.047476   -3.905572    0.754160
     77          8           0       -0.311807   -2.785897    1.112688
     78          1           0       -2.658453   -4.817196    1.955821
     79          1           0       -0.405789   -5.892311    0.337601
     80          1           0       -0.530326   -5.575571    1.996355
     81          7           0        1.243926   -4.059298    0.182341
     82          6           0        2.327732   -3.096087    0.130487
     83          6           0        3.043571   -3.045047   -1.213786
     84          8           0        2.782360   -3.910512   -2.041638
     85          6           0        3.368817   -3.492816    1.175737
     86          6           0        2.741493   -3.769456    2.528377
     87          6           0        2.303318   -2.619822    3.190679
     88          6           0        2.592006   -5.028454    3.126270
     89          6           0        1.742810   -2.674092    4.477841
     90          6           0        1.958418   -5.081834    4.373954
     91          6           0        1.522153   -3.930546    5.060621
     92          8           0        0.909084   -4.126340    6.267108
     93          1           0        1.527466   -4.982365   -0.097397
     94          1           0        2.069506   -2.060081    0.343115
     95          1           0        4.078722   -2.687047    1.336273
     96          1           0        3.883838   -4.428609    0.948483
     97          1           0        2.388258   -1.695100    2.628741
     98          1           0        2.916909   -5.906967    2.606315
     99          1           0        1.363181   -1.735947    4.842075
    100          1           0        1.825282   -6.047948    4.831663
    101          1           0        0.646103   -5.036824    6.419292
    102          7           0        4.018306   -2.162142   -1.440438
    103          6           0        4.989666   -2.205635   -2.515132
    104          6           0        6.410582   -2.323104   -1.974207
    105          8           0        7.225370   -3.001057   -2.603652
    106          6           0        4.708417   -1.054717   -3.478245
    107          6           0        4.985320    0.328614   -2.908402
    108          6           0        5.502524   -1.305716   -4.758906
    109          6           0        4.397994    1.562850   -3.574067
    110          1           0        4.032241   -1.364251   -0.822558
    111          1           0        4.801721   -3.125013   -3.061870
    112          1           0        3.621963   -1.024474   -3.551060
    113          1           0        6.044100    0.533135   -2.738529
    114          1           0        4.537890    0.413177   -1.918627
    115          1           0        5.260663   -2.209809   -5.327079
    116          1           0        5.273523   -0.490303   -5.448877
    117          1           0        6.585725   -1.328451   -4.616571
    118          1           0        4.246511    2.320518   -2.792727
    119          1           0        5.093201    1.969868   -4.304700
    120          1           0        3.469128    1.207033   -4.010646
    121          7           0        6.692115   -1.716911   -0.822526
    122          6           0        7.982573   -1.516501   -0.202644
    123          6           0        8.036009   -0.165752    0.514170
    124          8           0        8.424167   -0.143948    1.680728
    125          6           0        8.443598   -2.720509    0.606319
    126          8           0        8.751744   -3.815611   -0.221870
    127          1           0        5.864599   -1.337152   -0.401692
    128          1           0        8.650392   -1.466349   -1.062878
    129          1           0        7.894437   -3.070909    1.485831
    130          1           0        9.355408   -2.314695    1.065469
    131          1           0        9.264104   -3.556182   -0.989713
    132          7           0        7.634689    0.971670   -0.044590
    133          6           0        7.720455    2.224012    0.688681
    134          6           0        6.457840    3.077537    0.750301
    135          8           0        5.714934    3.060332   -0.220469
    136          6           0        8.806078    3.060223    0.037854
    137          1           0        7.145335    0.914538   -0.925821
    138          1           0        8.053701    2.095064    1.717913
    139          1           0        9.715358    2.525041   -0.251609
    140          1           0        8.359120    3.662001   -0.760076
    141          1           0        9.141353    3.819912    0.743944
    142          7           0        6.407867    4.030034    1.695156
    143          6           0        5.593798    5.216963    1.818002
    144          6           0        4.119974    4.841295    1.926242
    145          8           0        3.210601    5.666394    1.834853
    146          6           0        5.891193    6.287682    0.769805
    147          1           0        7.149996    3.912051    2.375541
    148          1           0        5.811745    5.679289    2.775109
    149          1           0        6.241271    5.929924   -0.197901
    150          1           0        5.006275    6.915275    0.616022
    151          1           0        6.719929    6.887829    1.156612
    152          7           0        3.731292    3.583032    2.062632
    153          6           0        2.357310    3.136094    2.204818
    154          6           0        2.007983    2.978953    3.671200
    155          8           0        0.955634    3.421300    4.142358
    156          6           0        2.091245    1.808129    1.507237
    157          6           0        2.168584    1.825319   -0.018615
    158          6           0        1.273372    2.811897   -0.758251
    159          8           0        0.383593    3.489087   -0.192648
    160          8           0        1.628444    3.244921   -1.874412
    161          1           0        4.378985    2.847448    2.316225
    162          1           0        1.720015    3.919468    1.791199
    163          1           0        1.115574    1.384903    1.756125
    164          1           0        2.767181    1.057880    1.903264
    165          1           0        1.942808    0.828469   -0.413475
    166          1           0        3.182746    2.101036   -0.301556
    167          7           0        2.921388    2.436699    4.485971
    168          6           0        2.903628    2.613092    5.916031
    169          1           0        2.107340    3.307304    6.185841
    170          1           0        2.726164    1.652257    6.399432
    171          1           0        3.862432    3.013898    6.245010
    172          1           0        3.774183    2.140131    4.032884
    173         20           0       -0.015306    5.330291   -2.047087
    174          8           0        0.190658    4.838757   -4.595120
    175          1           0        0.177997    3.918086   -4.855897
    176          1           0        0.739241    5.271869   -5.246250
 ---------------------------------------------------------------------

 SCF Done:  E(RB3LYP) =  -5333.27066775     A.U. after   41 cycles

 The electronic state is 1-A.
 Alpha  occ. eigenvalues -- -145.44274 -19.19248 -19.16193 -19.13352 -19.12411
 Alpha  occ. eigenvalues --  -19.11770 -19.10547 -19.10456 -19.10159 -19.08751
 Alpha  occ. eigenvalues --  -19.08365 -19.07765 -19.06886 -19.06185 -19.05921
 Alpha  occ. eigenvalues --  -19.05609 -19.05517 -19.05262 -19.04569 -19.04437
 Alpha  occ. eigenvalues --  -19.03505 -19.03090 -18.97981 -18.97928 -15.50235
 Alpha  occ. eigenvalues --  -14.57844 -14.40064 -14.38627 -14.37600 -14.37042
 Alpha  occ. eigenvalues --  -14.36875 -14.36060 -14.35736 -14.35044 -14.34311
 Alpha  occ. eigenvalues --  -14.32552 -14.31826 -14.31059 -14.30212 -14.29667
 Alpha  occ. eigenvalues --  -12.63815 -12.63798 -12.63750 -10.34854 -10.32130
 Alpha  occ. eigenvalues --  -10.31149 -10.29975 -10.29350 -10.29256 -10.28144
 Alpha  occ. eigenvalues --  -10.27614 -10.27472 -10.27290 -10.26751 -10.26698
 Alpha  occ. eigenvalues --  -10.25987 -10.25886 -10.25831 -10.24986 -10.24974
 Alpha  occ. eigenvalues --  -10.24935 -10.24621 -10.24144 -10.23851 -10.23749
 Alpha  occ. eigenvalues --  -10.23598 -10.23577 -10.23539 -10.22980 -10.22713
 Alpha  occ. eigenvalues --  -10.22674 -10.22470 -10.22307 -10.22044 -10.21650
 Alpha  occ. eigenvalues --  -10.21212 -10.20908 -10.20691 -10.20266 -10.20093
 Alpha  occ. eigenvalues --  -10.19988 -10.19520 -10.19461 -10.19387 -10.19337
 Alpha  occ. eigenvalues --  -10.19275 -10.19005 -10.18767 -10.18544 -10.17766
 Alpha  occ. eigenvalues --  -10.17593 -10.17209 -10.17146 -10.16889 -10.16627
 Alpha  occ. eigenvalues --  -10.15658 -10.11053  -1.87064  -1.14483  -1.14236
 Alpha  occ. eigenvalues --   -1.13980  -1.13333  -1.06961  -1.05663  -1.05320
 Alpha  occ. eigenvalues --   -1.04760  -1.04382  -1.04211  -1.03369  -1.02153
 Alpha  occ. eigenvalues --   -1.01517  -1.01241  -1.00983  -1.00710  -1.00541
 Alpha  occ. eigenvalues --   -1.00239  -0.99619  -0.98214  -0.97322  -0.97191
 Alpha  occ. eigenvalues --   -0.96793  -0.96306  -0.95177  -0.94541  -0.93328
 Alpha  occ. eigenvalues --   -0.93276  -0.92479  -0.92424  -0.91196  -0.90217
 Alpha  occ. eigenvalues --   -0.89626  -0.89625  -0.89360  -0.89148  -0.89020
 Alpha  occ. eigenvalues --   -0.88349  -0.88139  -0.86892  -0.85552  -0.85128
 Alpha  occ. eigenvalues --   -0.82764  -0.82399  -0.82003  -0.81601  -0.80048
 Alpha  occ. eigenvalues --   -0.79853  -0.78916  -0.77802  -0.76592  -0.76470
 Alpha  occ. eigenvalues --   -0.75342  -0.74869  -0.74573  -0.74315  -0.73434
 Alpha  occ. eigenvalues --   -0.73145  -0.72589  -0.72146  -0.71121  -0.70404
 Alpha  occ. eigenvalues --   -0.70124  -0.69243  -0.69121  -0.68379  -0.68111
 Alpha  occ. eigenvalues --   -0.67688  -0.67624  -0.66229  -0.65708  -0.64939
 Alpha  occ. eigenvalues --   -0.63956  -0.63528  -0.62677  -0.62415  -0.61843
 Alpha  occ. eigenvalues --   -0.61649  -0.61503  -0.61335  -0.60775  -0.60488
 Alpha  occ. eigenvalues --   -0.60358  -0.60196  -0.59775  -0.59737  -0.59184
 Alpha  occ. eigenvalues --   -0.58633  -0.58412  -0.58287  -0.57743  -0.57113
 Alpha  occ. eigenvalues --   -0.56650  -0.56070  -0.55614  -0.55576  -0.55317
 Alpha  occ. eigenvalues --   -0.54560  -0.54269  -0.53960  -0.53375  -0.53196
 Alpha  occ. eigenvalues --   -0.53051  -0.52557  -0.51852  -0.51698  -0.51393
 Alpha  occ. eigenvalues --   -0.50786  -0.50602  -0.50426  -0.50333  -0.50094
 Alpha  occ. eigenvalues --   -0.49573  -0.49523  -0.49336  -0.49290  -0.49109
 Alpha  occ. eigenvalues --   -0.48948  -0.48548  -0.48480  -0.48185  -0.47920
 Alpha  occ. eigenvalues --   -0.47590  -0.47236  -0.47176  -0.47001  -0.46880
 Alpha  occ. eigenvalues --   -0.46561  -0.46231  -0.46170  -0.46082  -0.45768
 Alpha  occ. eigenvalues --   -0.45649  -0.45211  -0.45168  -0.44868  -0.44637
 Alpha  occ. eigenvalues --   -0.44515  -0.44378  -0.44079  -0.43860  -0.43500
 Alpha  occ. eigenvalues --   -0.43392  -0.43046  -0.42879  -0.42826  -0.42686
 Alpha  occ. eigenvalues --   -0.42644  -0.42410  -0.42330  -0.42249  -0.42021
 Alpha  occ. eigenvalues --   -0.41871  -0.41833  -0.41546  -0.41418  -0.41271
 Alpha  occ. eigenvalues --   -0.41204  -0.41161  -0.41069  -0.41035  -0.40866
 Alpha  occ. eigenvalues --   -0.40685  -0.40372  -0.40275  -0.40082  -0.40054
 Alpha  occ. eigenvalues --   -0.39832  -0.39701  -0.39434  -0.39342  -0.39174
 Alpha  occ. eigenvalues --   -0.39135  -0.38912  -0.38828  -0.38681  -0.38528
 Alpha  occ. eigenvalues --   -0.38312  -0.38264  -0.38226  -0.38160  -0.38036
 Alpha  occ. eigenvalues --   -0.37739  -0.37598  -0.37285  -0.37187  -0.37085
 Alpha  occ. eigenvalues --   -0.37038  -0.36863  -0.36740  -0.36676  -0.36635
 Alpha  occ. eigenvalues --   -0.36511  -0.36393  -0.35944  -0.35890  -0.35781
 Alpha  occ. eigenvalues --   -0.35575  -0.35006  -0.34875  -0.34395  -0.34190
 Alpha  occ. eigenvalues --   -0.34136  -0.34019  -0.33866  -0.33824  -0.33732
 Alpha  occ. eigenvalues --   -0.33645  -0.33482  -0.33354  -0.33232  -0.32924
 Alpha  occ. eigenvalues --   -0.32728  -0.32084  -0.32046  -0.31761  -0.31287
 Alpha  occ. eigenvalues --   -0.30572  -0.30452  -0.29716  -0.29399  -0.28754
 Alpha  occ. eigenvalues --   -0.28495  -0.28361  -0.28334  -0.27564  -0.27507
 Alpha  occ. eigenvalues --   -0.26873  -0.26429  -0.26380  -0.26277  -0.26063
 Alpha  occ. eigenvalues --   -0.25531  -0.25490  -0.25417  -0.25312  -0.24683
 Alpha  occ. eigenvalues --   -0.24415  -0.24065  -0.23729  -0.23644  -0.23392
 Alpha  occ. eigenvalues --   -0.23364  -0.23171  -0.22954  -0.22718  -0.22639
 Alpha  occ. eigenvalues --   -0.22477  -0.21422  -0.20928  -0.20491  -0.20473
 Alpha  occ. eigenvalues --   -0.20381  -0.20084  -0.19799  -0.19357  -0.18042
 Alpha  occ. eigenvalues --   -0.15167  -0.14941  -0.11849
 Alpha virt. eigenvalues --   -0.10978  -0.10181  -0.04486  -0.03922  -0.02902
 Alpha virt. eigenvalues --   -0.02260  -0.01631  -0.01356  -0.00865  -0.00798
 Alpha virt. eigenvalues --   -0.00671  -0.00379   0.00489   0.00901   0.01075

 Mulliken charges:
               1
     1  C    0.061345
     2  C    0.004080
     3  O   -0.291439
     4  H    0.007915
     5  H    0.025566
     6  H    0.020294
     7  N   -0.144684
     8  C    0.095607
     9  C    0.113532
    10  O   -0.278818
    11  C    0.139935
    12  C   -0.002839
    13  O   -0.362999
    14  O   -0.316802
    15  H    0.109766
    16  H    0.013224
    17  H   -0.009055
    18  H    0.016983
    19  N   -0.109312
    20  C    0.085901
    21  C    0.050866
    22  O   -0.244673
    23  C    0.096544
    24  C    0.018282
    25  C   -0.057940
    26  C    0.020821
    27  N    0.098482
    28  H    0.122288
    29  H   -0.006029
    30  H    0.001150
    31  H    0.019694
    32  H   -0.021023
    33  H    0.035146
    34  H    0.048326
    35  H    0.013832
    36  H    0.082510
    37  H    0.052157
    38  H    0.161982
    39  H    0.182415
    40  H    0.176130
    41  N   -0.153890
    42  C    0.185372
    43  C    0.059062
    44  O   -0.299746
    45  C    0.092765
    46  C    0.026816
    47  O   -0.377455
    48  O   -0.470821
    49  H    0.125272
    50  H    0.046898
    51  H   -0.028193
    52  H    0.025508
    53  N   -0.105930
    54  C    0.198005
    55  C    0.021649
    56  O   -0.261309
    57  H    0.121167
    58  H    0.032091
    59  H    0.015382
    60  N   -0.085535
    61  C    0.011264
    62  C    0.086709
    63  O   -0.230773
    64  C    0.075090
    65  C    0.038109
    66  N   -0.060578
    67  O   -0.245949
    68  H    0.131689
    69  H    0.026432
    70  H    0.036213
    71  H   -0.011341
    72  H    0.107732
    73  H    0.126555
    74  N   -0.113300
    75  C    0.205467
    76  C    0.041763
    77  O   -0.262700
    78  H    0.138256
    79  H   -0.055453
    80  H    0.034254
    81  N   -0.096083
    82  C    0.098613
    83  C    0.089842
    84  O   -0.262940
    85  C    0.134236
    86  C   -0.036713
    87  C   -0.005949
    88  C   -0.011606
    89  C   -0.022589
    90  C   -0.046428
    91  C    0.215392
    92  O   -0.201849
    93  H    0.100979
    94  H    0.023886
    95  H   -0.012970
    96  H   -0.014857
    97  H   -0.034078
    98  H   -0.045662
    99  H   -0.012494
   100  H   -0.046071
   101  H    0.177583
   102  N   -0.170039
   103  C    0.145322
   104  C    0.058470
   105  O   -0.265377
   106  C   -0.009232
   107  C   -0.095789
   108  C    0.081584
   109  C    0.051982
   110  H    0.121097
   111  H    0.028784
   112  H    0.004577
   113  H   -0.009685
   114  H   -0.031543
   115  H    0.017201
   116  H   -0.006002
   117  H    0.014232
   118  H    0.040397
   119  H   -0.005122
   120  H    0.010819
   121  N   -0.133329
   122  C    0.093395
   123  C    0.027044
   124  O   -0.275864
   125  C    0.286791
   126  O   -0.296729
   127  H    0.091866
   128  H    0.007344
   129  H    0.010508
   130  H   -0.011713
   131  H    0.162755
   132  N   -0.113619
   133  C    0.087986
   134  C    0.056348
   135  O   -0.258411
   136  C    0.064265
   137  H    0.123630
   138  H    0.014673
   139  H    0.038205
   140  H    0.018916
   141  H   -0.010313
   142  N   -0.149959
   143  C    0.103063
   144  C    0.050755
   145  O   -0.290905
   146  C    0.060748
   147  H    0.123864
   148  H    0.029569
   149  H    0.029892
   150  H    0.035139
   151  H    0.001888
   152  N   -0.105716
   153  C    0.112542
   154  C    0.048471
   155  O   -0.264222
   156  C    0.056722
   157  C    0.039896
   158  C    0.145913
   159  O   -0.418985
   160  O   -0.454716
   161  H    0.097104
   162  H    0.031452
   163  H    0.040779
   164  H   -0.056795
   165  H    0.020886
   166  H    0.031796
   167  N   -0.157618
   168  C    0.128178
   169  H    0.050691
   170  H    0.028908
   171  H    0.004922
   172  H    0.081761
   173  Ca   1.226625
   174  O   -0.294484
   175  H    0.208302
   176  H    0.172163
 Sum of Mulliken charges =  -0.00000

 Dipole moment (field-independent basis, Debye):
    X=             20.7413    Y=             38.1053    Z=              5.4709  Tot=             43.7280
 Quadrupole moment (field-independent basis, Debye-Ang):
   XX=           -683.6101   YY=           -253.1029   ZZ=           -587.4974
   XY=           -182.7900   XZ=             -9.2995   YZ=            -74.9751

 ESP charges:
               1
     1  C   -0.424393
     2  C    0.718272
     3  O   -0.601062
     4  H    0.087671
     5  H    0.107923
     6  H    0.117134
     7  N   -0.561081
     8  C    0.320874
     9  C    0.580935
    10  O   -0.537727
    11  C   -0.448634
    12  C    0.797976
    13  O   -0.679562
    14  O   -0.638033
    15  H    0.284508
    16  H    0.040097
    17  H    0.102574
    18  H    0.129883
    19  N   -0.682197
    20  C    0.044426
    21  C    0.927171
    22  O   -0.568142
    23  C    0.188609
    24  C   -0.359441
    25  C    0.240904
    26  C   -0.052674
    27  N   -0.314063
    28  H    0.308441
    29  H    0.088897
    30  H    0.020859
    31  H   -0.046602
    32  H    0.081302
    33  H    0.080820
    34  H    0.018154
    35  H   -0.028634
    36  H    0.097455
    37  H    0.059238
    38  H    0.290840
    39  H    0.301831
    40  H    0.315923
    41  N   -0.883338
    42  C    0.216299
    43  C    0.452237
    44  O   -0.546080
    45  C   -0.211292
    46  C    0.836197
    47  O   -0.710302
    48  O   -0.856507
    49  H    0.319257
    50  H    0.104211
    51  H    0.040286
    52  H    0.063604
    53  N   -0.303582
    54  C   -0.139202
    55  C    0.766065
    56  O   -0.533946
    57  H    0.280406
    58  H    0.083516
    59  H    0.082082
    60  N   -0.875257
    61  C    0.703792
    62  C    0.557656
    63  O   -0.539144
    64  C   -0.610465
    65  C    0.842842
    66  N   -0.910142
    67  O   -0.562706
    68  H    0.373848
    69  H   -0.080294
    70  H    0.181238
    71  H    0.119401
    72  H    0.383589
    73  H    0.387794
    74  N   -0.702280
    75  C    0.197409
    76  C    0.549967
    77  O   -0.515286
    78  H    0.391856
    79  H   -0.069434
    80  H    0.058618
    81  N   -0.656843
    82  C    0.305973
    83  C    0.541164
    84  O   -0.504526
    85  C   -0.355631
    86  C    0.161815
    87  C   -0.222780
    88  C   -0.148619
    89  C   -0.235790
    90  C   -0.341768
    91  C    0.425732
    92  O   -0.566339
    93  H    0.324196
    94  H    0.076167
    95  H    0.079387
    96  H    0.115454
    97  H    0.147154
    98  H    0.129797
    99  H    0.177873
   100  H    0.144011
   101  H    0.415616
   102  N   -0.606834
   103  C    0.122173
   104  C    0.591738
   105  O   -0.539378
   106  C   -0.096144
   107  C    0.461811
   108  C   -0.367930
   109  C   -0.362991
   110  H    0.289194
   111  H    0.092473
   112  H    0.108534
   113  H   -0.093536
   114  H   -0.170726
   115  H    0.116290
   116  H    0.080374
   117  H    0.092403
   118  H    0.091313
   119  H    0.065309
   120  H    0.072661
   121  N   -0.427178
   122  C   -0.174232
   123  C    0.760303
   124  O   -0.589340
   125  C    0.307112
   126  O   -0.602597
   127  H    0.236640
   128  H    0.111593
   129  H    0.050556
   130  H   -0.031927
   131  H    0.398881
   132  N   -0.815786
   133  C    0.595854
   134  C    0.362942
   135  O   -0.452319
   136  C   -0.286954
   137  H    0.359033
   138  H   -0.036174
   139  H    0.098675
   140  H    0.072554
   141  H    0.044398
   142  N   -0.678820
   143  C    0.422949
   144  C    0.267377
   145  O   -0.503755
   146  C   -0.186951
   147  H    0.319579
   148  H    0.022274
   149  H    0.096325
   150  H    0.036136
   151  H    0.033322
   152  N   -0.114106
   153  C   -0.116682
   154  C    0.591147
   155  O   -0.528458
   156  C   -0.232942
   157  C    0.066282
   158  C    0.843866
   159  O   -0.736289
   160  O   -0.815771
   161  H    0.149201
   162  H    0.113603
   163  H    0.114613
   164  H    0.031426
   165  H   -0.036498
   166  H    0.036616
   167  N   -0.425959
   168  C   -0.010696
   169  H    0.087511
   170  H    0.048033
   171  H    0.034186
   172  H    0.266608
   173  Ca   1.441394
   174  O   -0.723740
   175  H    0.422659
   176  H    0.371363
 Sum of ESP charges =   0.00000

 Normal termination of Gaussian 16 at Thu Sep 19 10:37:33 2019.
