 Gaussian 16, Revision A.03,
 Gaussian 16:  ES64L-G16RevA.03 25-Dec-2016

 ----------------------------------------------------------------------
 #b3lyp/svp scf=(tight,noincore) Test #IOP(5/87=12) Density=Current Pop
 =(MK,readradii) iop(6/33=2) iop(6/42=6)
 ----------------------------------------------------------------------

 ----------------
 Ng-31_loop3_10.0
 ----------------
 Symbolic Z-matrix:
 Charge =  0 Multiplicity = 1

                         Standard orientation:
 ---------------------------------------------------------------------
 Center     Atomic      Atomic             Coordinates (Angstroms)
 Number     Number       Type             X           Y           Z
 ---------------------------------------------------------------------
      1          6           0        6.010788   -4.950348    3.579179
      2          6           0        6.133243   -3.716864    2.695991
      3          8           0        5.249965   -2.862244    2.773095
      4          1           0        5.949502   -4.643905    4.623031
      5          1           0        5.110773   -5.502896    3.309995
      6          1           0        6.884535   -5.586795    3.438879
      7          7           0        7.209132   -3.660220    1.906146
      8          6           0        7.548134   -2.549567    1.037798
      9          6           0        7.320128   -2.910221   -0.426081
     10          8           0        7.505785   -4.008919   -0.928569
     11          6           0        8.999586   -2.105636    1.187507
     12          6           0        9.950299   -3.276929    1.420355
     13          8           0       10.583189   -3.777315    0.462669
     14          8           0       10.059812   -3.870937    2.513452
     15          1           0        7.886287   -4.409174    1.850210
     16          1           0        6.973423   -1.677641    1.330974
     17          1           0        9.096107   -1.388721    2.006724
     18          1           0        9.315420   -1.492090    0.349945
     19          7           0        7.052367   -1.834665   -1.174402
     20          6           0        7.221323   -1.656348   -2.601797
     21          6           0        6.106651   -0.972637   -3.386172
     22          8           0        5.849414   -1.340047   -4.519900
     23          6           0        8.496683   -0.868861   -2.867734
     24          6           0        9.817238   -1.553794   -2.510103
     25          6           0       10.947464   -0.573453   -2.256094
     26          6           0       12.306933   -1.263131   -2.114711
     27          7           0       12.316264   -1.876722   -0.779788
     28          1           0        6.757028   -0.997947   -0.687290
     29          1           0        7.384087   -2.645890   -3.012302
     30          1           0        8.456731    0.123046   -2.430557
     31          1           0        8.588213   -0.565487   -3.915964
     32          1           0       10.049650   -2.270097   -3.299276
     33          1           0        9.661584   -2.187365   -1.628480
     34          1           0       10.769825    0.022506   -1.348527
     35          1           0       11.030863    0.012544   -3.164473
     36          1           0       13.035720   -0.463435   -2.208285
     37          1           0       12.441223   -1.940852   -2.965394
     38          1           0       11.661261   -2.640275   -0.729222
     39          1           0       13.251643   -2.193693   -0.529600
     40          1           0       12.021022   -1.144129   -0.145170
     41          7           0        5.374088   -0.052237   -2.760381
     42          6           0        4.146609    0.467300   -3.318214
     43          6           0        3.827595    1.863670   -2.812959
     44          8           0        3.589483    2.795462   -3.580074
     45          6           0        3.054456   -0.599250   -3.304980
     46          6           0        2.926327   -1.463720   -2.060965
     47          8           0        2.416072   -1.018805   -1.006929
     48          8           0        3.283744   -2.651878   -2.225377
     49          1           0        5.580162    0.112252   -1.777998
     50          1           0        4.476835    0.648263   -4.341152
     51          1           0        3.244146   -1.327931   -4.098795
     52          1           0        2.041782   -0.203191   -3.356244
     53          7           0        3.544347    1.931580   -1.507257
     54          6           0        3.246166    3.160629   -0.790650
     55          6           0        2.597396    2.903734    0.566001
     56          8           0        2.475329    1.740166    0.957548
     57          1           0        3.681539    1.073208   -0.998066
     58          1           0        2.581534    3.800914   -1.378868
     59          1           0        4.178164    3.669381   -0.556877
     60          7           0        2.322929    3.884762    1.424111
     61          6           0        2.397247    5.295605    1.114270
     62          6           0        1.245161    5.976697    1.844620
     63          8           0        1.353653    6.398928    2.994772
     64          6           0        3.711997    5.973371    1.467776
     65          6           0        3.676372    7.405423    0.949938
     66          7           0        4.312478    8.398743    1.580878
     67          8           0        3.101462    7.666912   -0.100302
     68          1           0        1.792973    3.613535    2.242452
     69          1           0        2.164915    5.442521    0.060212
     70          1           0        4.539519    5.453115    0.969136
     71          1           0        3.838193    5.968700    2.559267
     72          1           0        4.939444    8.109797    2.311374
     73          1           0        4.340304    9.335251    1.197240
     74          7           0        0.096201    6.289935    1.243477
     75          6           0       -0.346789    5.907584   -0.079651
     76          6           0       -1.070383    4.565258   -0.051849
     77          8           0       -0.391325    3.550545    0.023246
     78          1           0       -0.584282    6.708966    1.865133
     79          1           0        0.412393    5.888729   -0.855465
     80          1           0       -1.121644    6.631940   -0.351511
     81          7           0       -2.356499    4.552144   -0.416174
     82          6           0       -3.094684    3.302012   -0.456837
     83          6           0       -4.057586    3.284670   -1.630430
     84          8           0       -4.501679    4.321810   -2.118306
     85          6           0       -3.832279    3.089621    0.866206
     86          6           0       -2.923265    3.117413    2.077041
     87          6           0       -2.305237    1.973930    2.583290
     88          6           0       -2.759951    4.262997    2.861877
     89          6           0       -1.519710    1.930079    3.742955
     90          6           0       -2.144482    4.267671    4.121669
     91          6           0       -1.449676    3.108494    4.523233
     92          8           0       -0.722991    3.155892    5.679556
     93          1           0       -2.886519    5.390912   -0.618279
     94          1           0       -2.449424    2.431257   -0.583816
     95          1           0       -4.467606    2.211018    0.870121
     96          1           0       -4.557516    3.895342    0.954788
     97          1           0       -2.502291    1.017848    2.120713
     98          1           0       -3.212905    5.172773    2.493583
     99          1           0       -1.011068    1.056045    4.106613
    100          1           0       -1.893605    5.184332    4.624854
    101          1           0       -1.042794    3.905480    6.193312
    102          7           0       -4.414540    2.094501   -2.108320
    103          6           0       -5.491825    1.924523   -3.071630
    104          6           0       -6.770904    1.788825   -2.268983
    105          8           0       -7.866886    1.727703   -2.833419
    106          6           0       -5.180759    0.852039   -4.108894
    107          6           0       -5.302950   -0.577296   -3.610728
    108          6           0       -5.966273    1.028880   -5.407893
    109          6           0       -4.962126   -1.660765   -4.634073
    110          1           0       -4.006900    1.235837   -1.760863
    111          1           0       -5.558565    2.888191   -3.562130
    112          1           0       -4.128539    0.965347   -4.401116
    113          1           0       -6.319670   -0.684244   -3.231332
    114          1           0       -4.626960   -0.692195   -2.761472
    115          1           0       -6.949786    0.662834   -5.117184
    116          1           0       -6.019730    2.073429   -5.719279
    117          1           0       -5.629756    0.378147   -6.209829
    118          1           0       -4.357486   -1.330300   -5.479119
    119          1           0       -4.401194   -2.458877   -4.135503
    120          1           0       -5.833739   -2.139208   -5.073600
    121          7           0       -6.720818    1.424399   -0.982599
    122          6           0       -7.858485    1.095085   -0.146557
    123          6           0       -8.571686   -0.235222   -0.332642
    124          8           0       -9.746898   -0.304819    0.027125
    125          6           0       -7.483485    1.250707    1.329775
    126          8           0       -6.577882    0.263092    1.746547
    127          1           0       -5.775023    1.401999   -0.622780
    128          1           0       -8.592034    1.872116   -0.335839
    129          1           0       -8.373921    1.180565    1.956754
    130          1           0       -7.096394    2.262906    1.444735
    131          1           0       -5.807844    0.209543    1.178767
    132          7           0       -7.961371   -1.221487   -0.993322
    133          6           0       -8.509534   -2.548492   -1.242268
    134          6           0       -7.478574   -3.597127   -0.868652
    135          8           0       -6.480249   -3.622932   -1.586483
    136          6           0       -8.903981   -2.739160   -2.704683
    137          1           0       -7.019787   -1.081412   -1.329624
    138          1           0       -9.393602   -2.531906   -0.603560
    139          1           0       -9.004682   -3.809200   -2.888459
    140          1           0       -9.861739   -2.272513   -2.932586
    141          1           0       -8.234311   -2.263226   -3.415900
    142          7           0       -7.720362   -4.457721    0.118523
    143          6           0       -6.929894   -5.637960    0.385161
    144          6           0       -5.444128   -5.401379    0.642705
    145          8           0       -4.594515   -6.158012    0.183285
    146          6           0       -7.259066   -6.751892   -0.594840
    147          1           0       -8.634958   -4.499215    0.546768
    148          1           0       -7.400172   -6.006312    1.300997
    149          1           0       -6.805323   -7.667437   -0.218417
    150          1           0       -8.344001   -6.848134   -0.607148
    151          1           0       -6.833758   -6.557569   -1.580615
    152          7           0       -5.133516   -4.241135    1.239156
    153          6           0       -3.809817   -3.880945    1.710837
    154          6           0       -3.668265   -4.457384    3.108507
    155          8           0       -2.729224   -5.201641    3.387227
    156          6           0       -3.631976   -2.370111    1.560322
    157          6           0       -3.289704   -1.922795    0.147114
    158          6           0       -3.593010   -0.496105   -0.262473
    159          8           0       -2.701510    0.174531   -0.820125
    160          8           0       -4.700981   -0.021573    0.095605
    161          1           0       -5.834591   -3.567976    1.501932
    162          1           0       -3.009963   -4.361235    1.144839
    163          1           0       -2.891255   -1.819342    2.149971
    164          1           0       -4.570180   -1.926894    1.904318
    165          1           0       -3.868264   -2.597386   -0.484626
    166          1           0       -2.219575   -2.103825    0.000990
    167          7           0       -4.696080   -4.259057    3.939328
    168          6           0       -4.637328   -4.479121    5.364221
    169          1           0       -3.944402   -5.292778    5.576962
    170          1           0       -4.293327   -3.570449    5.858858
    171          1           0       -5.629146   -4.740907    5.733414
    172          1           0       -5.386613   -3.590771    3.644103
    173         20           0        1.725650   -0.729272    1.430362
    174          8           0        2.624603   -2.123259    3.465967
    175          1           0        3.424180   -2.644599    3.399783
    176          1           0        2.473677   -2.034982    4.404278
 ---------------------------------------------------------------------

 SCF Done:  E(RB3LYP) =  -5333.42039316     A.U. after   16 cycles

 The electronic state is 1-A.
 Alpha  occ. eigenvalues -- -145.54263 -19.23202 -19.18205 -19.17783 -19.12958
 Alpha  occ. eigenvalues --  -19.12179 -19.11945 -19.10810 -19.10746 -19.10586
 Alpha  occ. eigenvalues --  -19.09996 -19.09261 -19.08788 -19.08775 -19.08459
 Alpha  occ. eigenvalues --  -19.07350 -19.06897 -19.06171 -19.05858 -19.05581
 Alpha  occ. eigenvalues --  -19.04983 -19.04655 -19.04528 -19.03339 -15.60054
 Alpha  occ. eigenvalues --  -14.51798 -14.41392 -14.38466 -14.38086 -14.37640
 Alpha  occ. eigenvalues --  -14.37369 -14.37169 -14.36966 -14.36332 -14.36035
 Alpha  occ. eigenvalues --  -14.35236 -14.34748 -14.31919 -14.31263 -14.30558
 Alpha  occ. eigenvalues --  -12.73684 -12.73640 -12.73587 -10.35874 -10.31771
 Alpha  occ. eigenvalues --  -10.31530 -10.31349 -10.31160 -10.29537 -10.29418
 Alpha  occ. eigenvalues --  -10.29356 -10.29044 -10.27982 -10.27726 -10.27592
 Alpha  occ. eigenvalues --  -10.27269 -10.27252 -10.26905 -10.26066 -10.25811
 Alpha  occ. eigenvalues --  -10.25567 -10.25550 -10.25371 -10.25358 -10.24659
 Alpha  occ. eigenvalues --  -10.24536 -10.24361 -10.24204 -10.23606 -10.23310
 Alpha  occ. eigenvalues --  -10.23052 -10.22552 -10.22375 -10.22323 -10.21816
 Alpha  occ. eigenvalues --  -10.21441 -10.21086 -10.20943 -10.20640 -10.20557
 Alpha  occ. eigenvalues --  -10.20461 -10.20429 -10.20384 -10.20081 -10.19766
 Alpha  occ. eigenvalues --  -10.19208 -10.19030 -10.18942 -10.18458 -10.17121
 Alpha  occ. eigenvalues --  -10.16770 -10.16465 -10.16000 -10.15907 -10.14768
 Alpha  occ. eigenvalues --  -10.14346 -10.13767  -1.96305  -1.23831  -1.23486
 Alpha  occ. eigenvalues --   -1.23079  -1.10213  -1.09086  -1.07899  -1.06893
 Alpha  occ. eigenvalues --   -1.06207  -1.05256  -1.05152  -1.04263  -1.04009
 Alpha  occ. eigenvalues --   -1.03736  -1.03208  -1.02471  -1.01869  -1.01026
 Alpha  occ. eigenvalues --   -1.00972  -1.00830  -1.00467  -0.99555  -0.98852
 Alpha  occ. eigenvalues --   -0.98305  -0.97814  -0.95997  -0.94734  -0.94326
 Alpha  occ. eigenvalues --   -0.94181  -0.94126  -0.93007  -0.92987  -0.92630
 Alpha  occ. eigenvalues --   -0.92608  -0.92385  -0.91046  -0.90889  -0.90817
 Alpha  occ. eigenvalues --   -0.89428  -0.88645  -0.88171  -0.86614  -0.86547
 Alpha  occ. eigenvalues --   -0.86245  -0.82640  -0.82061  -0.79787  -0.79429
 Alpha  occ. eigenvalues --   -0.79331  -0.79038  -0.77923  -0.76871  -0.76594
 Alpha  occ. eigenvalues --   -0.76016  -0.75647  -0.74636  -0.74253  -0.73932
 Alpha  occ. eigenvalues --   -0.73273  -0.72955  -0.72636  -0.71769  -0.69953
 Alpha  occ. eigenvalues --   -0.69844  -0.69051  -0.67847  -0.67548  -0.66973
 Alpha  occ. eigenvalues --   -0.66540  -0.65834  -0.65347  -0.65170  -0.64651
 Alpha  occ. eigenvalues --   -0.63769  -0.63344  -0.63227  -0.63138  -0.62541
 Alpha  occ. eigenvalues --   -0.61952  -0.61933  -0.61104  -0.61087  -0.60843
 Alpha  occ. eigenvalues --   -0.60833  -0.60774  -0.60614  -0.59988  -0.59892
 Alpha  occ. eigenvalues --   -0.59479  -0.58632  -0.58197  -0.58160  -0.57851
 Alpha  occ. eigenvalues --   -0.57481  -0.57409  -0.56619  -0.56023  -0.55862
 Alpha  occ. eigenvalues --   -0.55690  -0.55386  -0.54702  -0.54248  -0.53715
 Alpha  occ. eigenvalues --   -0.53577  -0.53525  -0.53300  -0.52702  -0.52485
 Alpha  occ. eigenvalues --   -0.52267  -0.51975  -0.51831  -0.51331  -0.51144
 Alpha  occ. eigenvalues --   -0.51007  -0.50554  -0.50423  -0.50294  -0.49949
 Alpha  occ. eigenvalues --   -0.49457  -0.49351  -0.49250  -0.49206  -0.49112
 Alpha  occ. eigenvalues --   -0.48971  -0.48609  -0.47937  -0.47699  -0.47492
 Alpha  occ. eigenvalues --   -0.47198  -0.46990  -0.46744  -0.46678  -0.46354
 Alpha  occ. eigenvalues --   -0.46249  -0.46074  -0.45911  -0.45875  -0.45770
 Alpha  occ. eigenvalues --   -0.45412  -0.45152  -0.44803  -0.44661  -0.44494
 Alpha  occ. eigenvalues --   -0.44319  -0.44232  -0.44094  -0.43910  -0.43610
 Alpha  occ. eigenvalues --   -0.43335  -0.43326  -0.43193  -0.43106  -0.42888
 Alpha  occ. eigenvalues --   -0.42810  -0.42715  -0.42692  -0.42420  -0.42182
 Alpha  occ. eigenvalues --   -0.42127  -0.42017  -0.41647  -0.41408  -0.41297
 Alpha  occ. eigenvalues --   -0.41256  -0.41230  -0.41013  -0.40918  -0.40825
 Alpha  occ. eigenvalues --   -0.40784  -0.40631  -0.40397  -0.40346  -0.40254
 Alpha  occ. eigenvalues --   -0.40179  -0.40021  -0.39920  -0.39848  -0.39420
 Alpha  occ. eigenvalues --   -0.39340  -0.39169  -0.39150  -0.39053  -0.38876
 Alpha  occ. eigenvalues --   -0.38714  -0.38435  -0.38326  -0.38303  -0.38201
 Alpha  occ. eigenvalues --   -0.37967  -0.37897  -0.37639  -0.37365  -0.37333
 Alpha  occ. eigenvalues --   -0.37178  -0.36807  -0.36506  -0.36372  -0.36114
 Alpha  occ. eigenvalues --   -0.35960  -0.35803  -0.35767  -0.35419  -0.35383
 Alpha  occ. eigenvalues --   -0.35318  -0.35185  -0.34976  -0.34851  -0.34753
 Alpha  occ. eigenvalues --   -0.34697  -0.34484  -0.34141  -0.33714  -0.33517
 Alpha  occ. eigenvalues --   -0.33442  -0.33337  -0.32865  -0.32610  -0.32361
 Alpha  occ. eigenvalues --   -0.32249  -0.30652  -0.30018  -0.29759  -0.29251
 Alpha  occ. eigenvalues --   -0.28936  -0.28890  -0.28834  -0.28506  -0.28399
 Alpha  occ. eigenvalues --   -0.27965  -0.27837  -0.27793  -0.27679  -0.27576
 Alpha  occ. eigenvalues --   -0.27157  -0.26939  -0.26581  -0.26189  -0.25777
 Alpha  occ. eigenvalues --   -0.25729  -0.25682  -0.25066  -0.24977  -0.24859
 Alpha  occ. eigenvalues --   -0.24857  -0.24291  -0.24260  -0.24093  -0.24060
 Alpha  occ. eigenvalues --   -0.23536  -0.23082  -0.23057  -0.22799  -0.22747
 Alpha  occ. eigenvalues --   -0.22595  -0.21816  -0.21700  -0.21604  -0.20388
 Alpha  occ. eigenvalues --   -0.20171  -0.19648  -0.18674
 Alpha virt. eigenvalues --   -0.13122  -0.05417  -0.05133  -0.03735  -0.03546
 Alpha virt. eigenvalues --   -0.02215  -0.01782  -0.01566  -0.01270  -0.01104
 Alpha virt. eigenvalues --   -0.00886  -0.00218  -0.00002   0.00150   0.00206

 Mulliken charges:
               1
     1  C    0.047255
     2  C    0.070401
     3  O   -0.365476
     4  H    0.034065
     5  H    0.043660
     6  H    0.027908
     7  N   -0.085411
     8  C    0.054097
     9  C    0.107425
    10  O   -0.231892
    11  C    0.146254
    12  C   -0.004772
    13  O   -0.378745
    14  O   -0.350227
    15  H    0.161831
    16  H   -0.022220
    17  H   -0.013109
    18  H   -0.089343
    19  N   -0.130118
    20  C    0.142087
    21  C    0.098393
    22  O   -0.244734
    23  C    0.026516
    24  C   -0.000220
    25  C   -0.063533
    26  C    0.054418
    27  N    0.096547
    28  H    0.093443
    29  H    0.032581
    30  H   -0.040136
    31  H    0.013496
    32  H    0.015505
    33  H    0.030045
    34  H    0.015251
    35  H    0.031656
    36  H    0.048564
    37  H    0.073545
    38  H    0.154140
    39  H    0.183957
    40  H    0.170954
    41  N   -0.162531
    42  C    0.113461
    43  C    0.043462
    44  O   -0.254191
    45  C    0.146605
    46  C    0.053346
    47  O   -0.512027
    48  O   -0.318059
    49  H    0.077129
    50  H    0.020889
    51  H    0.039200
    52  H    0.018990
    53  N   -0.159512
    54  C    0.210507
    55  C    0.101364
    56  O   -0.433174
    57  H    0.098501
    58  H    0.075526
    59  H    0.028661
    60  N   -0.071437
    61  C    0.022940
    62  C    0.038537
    63  O   -0.282017
    64  C    0.152845
    65  C   -0.021934
    66  N   -0.022248
    67  O   -0.270831
    68  H    0.139541
    69  H    0.038445
    70  H    0.017244
    71  H    0.018337
    72  H    0.113119
    73  H    0.139882
    74  N   -0.103435
    75  C    0.216653
    76  C    0.047551
    77  O   -0.305314
    78  H    0.133912
    79  H    0.065374
    80  H   -0.006728
    81  N   -0.128436
    82  C    0.087971
    83  C    0.073352
    84  O   -0.296683
    85  C    0.166907
    86  C    0.012699
    87  C    0.009348
    88  C   -0.047895
    89  C   -0.029205
    90  C   -0.001805
    91  C    0.113025
    92  O   -0.210071
    93  H    0.125063
    94  H    0.040411
    95  H    0.009825
    96  H   -0.025101
    97  H   -0.028812
    98  H   -0.038327
    99  H   -0.075250
   100  H   -0.024869
   101  H    0.180442
   102  N   -0.172306
   103  C    0.189915
   104  C    0.020139
   105  O   -0.293866
   106  C   -0.065888
   107  C   -0.051890
   108  C    0.080142
   109  C    0.044850
   110  H    0.143521
   111  H    0.008274
   112  H   -0.010055
   113  H    0.031620
   114  H    0.011461
   115  H    0.007269
   116  H    0.002967
   117  H   -0.005658
   118  H   -0.000357
   119  H    0.012834
   120  H    0.002074
   121  N   -0.157450
   122  C    0.116072
   123  C    0.081786
   124  O   -0.298322
   125  C    0.246784
   126  O   -0.370328
   127  H    0.130520
   128  H    0.008703
   129  H   -0.003121
   130  H   -0.030433
   131  H    0.178897
   132  N   -0.141889
   133  C    0.112487
   134  C    0.071709
   135  O   -0.280331
   136  C    0.079503
   137  H    0.126177
   138  H   -0.014228
   139  H    0.001275
   140  H    0.015004
   141  H    0.029650
   142  N   -0.130044
   143  C    0.023049
   144  C    0.117913
   145  O   -0.242884
   146  C    0.083045
   147  H    0.126339
   148  H    0.000601
   149  H    0.022159
   150  H   -0.012078
   151  H    0.044621
   152  N   -0.147381
   153  C    0.111673
   154  C    0.046959
   155  O   -0.261018
   156  C    0.025424
   157  C    0.095475
   158  C    0.148059
   159  O   -0.382973
   160  O   -0.424815
   161  H    0.120149
   162  H    0.015832
   163  H   -0.042801
   164  H   -0.008784
   165  H    0.034058
   166  H   -0.038226
   167  N   -0.153064
   168  C    0.122901
   169  H    0.044045
   170  H    0.014188
   171  H    0.019446
   172  H    0.102621
   173  Ca   1.524210
   174  O   -0.359336
   175  H    0.186963
   176  H    0.200934
 Sum of Mulliken charges =  -0.00000

 Dipole moment (field-independent basis, Debye):
    X=             30.7399    Y=             12.4149    Z=             16.7575  Tot=             37.1468
 Quadrupole moment (field-independent basis, Debye-Ang):
   XX=           -401.4468   YY=           -597.9647   ZZ=           -572.0521
   XY=            124.0718   XZ=            -65.3338   YZ=             24.0917

 ESP charges:
               1
     1  C   -0.517717
     2  C    0.900718
     3  O   -0.712115
     4  H    0.139617
     5  H    0.138986
     6  H    0.140625
     7  N   -0.787058
     8  C    0.403385
     9  C    0.401002
    10  O   -0.432971
    11  C   -0.233670
    12  C    0.574882
    13  O   -0.642552
    14  O   -0.624261
    15  H    0.423750
    16  H    0.013910
    17  H    0.049660
    18  H    0.012054
    19  N   -0.441849
    20  C    0.089006
    21  C    0.719997
    22  O   -0.545243
    23  C   -0.345592
    24  C    0.364683
    25  C   -0.280971
    26  C    0.084713
    27  N   -0.381653
    28  H    0.213245
    29  H    0.098396
    30  H    0.069425
    31  H    0.071246
    32  H   -0.004894
    33  H   -0.088765
    34  H    0.070261
    35  H    0.097194
    36  H    0.052417
    37  H    0.078237
    38  H    0.296083
    39  H    0.329408
    40  H    0.340150
    41  N   -0.622265
    42  C    0.048223
    43  C    0.507971
    44  O   -0.527010
    45  C   -0.399481
    46  C    0.922332
    47  O   -0.983169
    48  O   -0.638069
    49  H    0.264512
    50  H    0.120603
    51  H    0.149379
    52  H    0.129068
    53  N   -0.191268
    54  C   -0.369341
    55  C    1.004153
    56  O   -0.826881
    57  H    0.227007
    58  H    0.206799
    59  H    0.117015
    60  N   -0.800587
    61  C    0.637315
    62  C    0.365312
    63  O   -0.548742
    64  C   -0.448894
    65  C    0.717481
    66  N   -0.790306
    67  O   -0.559029
    68  H    0.367672
    69  H   -0.102374
    70  H    0.104196
    71  H    0.116033
    72  H    0.349421
    73  H    0.391213
    74  N   -0.306202
    75  C   -0.302695
    76  C    0.710945
    77  O   -0.602606
    78  H    0.309585
    79  H    0.174794
    80  H    0.115671
    81  N   -0.588288
    82  C    0.192942
    83  C    0.595584
    84  O   -0.570740
    85  C   -0.349783
    86  C    0.126689
    87  C   -0.199791
    88  C   -0.059140
    89  C   -0.337327
    90  C   -0.388436
    91  C    0.459788
    92  O   -0.574380
    93  H    0.314737
    94  H    0.090600
    95  H    0.252747
    96  H    0.088387
    97  H    0.186246
    98  H    0.106308
    99  H    0.149148
   100  H    0.153923
   101  H    0.414044
   102  N   -0.514978
   103  C   -0.087153
   104  C    0.397115
   105  O   -0.554231
   106  C    0.371356
   107  C    0.003580
   108  C   -0.435686
   109  C   -0.340699
   110  H    0.241371
   111  H    0.131486
   112  H   -0.035082
   113  H    0.092593
   114  H    0.061812
   115  H    0.087949
   116  H    0.090714
   117  H    0.106949
   118  H    0.080828
   119  H    0.079318
   120  H    0.082869
   121  N    0.185403
   122  C   -0.500540
   123  C    0.720586
   124  O   -0.572674
   125  C    0.242499
   126  O   -0.550083
   127  H   -0.119858
   128  H    0.171148
   129  H    0.058547
   130  H   -0.013693
   131  H    0.170324
   132  N   -0.309735
   133  C    0.137859
   134  C    0.677655
   135  O   -0.486793
   136  C   -0.248591
   137  H    0.054444
   138  H   -0.006719
   139  H    0.042403
   140  H    0.094874
   141  H    0.082454
   142  N   -0.750015
   143  C    0.314782
   144  C    0.384888
   145  O   -0.443120
   146  C   -0.261555
   147  H    0.371684
   148  H    0.013860
   149  H    0.057677
   150  H    0.078368
   151  H    0.095562
   152  N   -0.359716
   153  C   -0.039309
   154  C    0.559446
   155  O   -0.533087
   156  C   -0.174576
   157  C    0.198145
   158  C    0.265924
   159  O   -0.586929
   160  O   -0.277079
   161  H    0.217418
   162  H    0.087124
   163  H    0.003426
   164  H    0.072834
   165  H    0.021557
   166  H   -0.031866
   167  N   -0.393670
   168  C   -0.103560
   169  H    0.105931
   170  H    0.054986
   171  H    0.074759
   172  H    0.290719
   173  Ca   1.771722
   174  O   -0.940752
   175  H    0.462059
   176  H    0.467969
 Sum of ESP charges =   0.00000

 Normal termination of Gaussian 16 at Wed Sep 18 12:49:18 2019.
