 Gaussian 16, Revision A.03,
 Gaussian 16:  ES64L-G16RevA.03 25-Dec-2016

 ----------------------------------------------------------------------
 #b3lyp/svp scf=(tight,noincore) Test #IOP(5/87=12) Density=Current Pop
 =(MK,readradii) iop(6/33=2) iop(6/42=6)
 ----------------------------------------------------------------------

 ---------------
 Ng-31_loop3_8.0
 ---------------
 Symbolic Z-matrix:
 Charge =  0 Multiplicity = 1

                         Standard orientation:
 ---------------------------------------------------------------------
 Center     Atomic      Atomic             Coordinates (Angstroms)
 Number     Number       Type             X           Y           Z
 ---------------------------------------------------------------------
      1          6           0        6.757411   -2.466390    4.337188
      2          6           0        6.920433   -1.410613    3.254525
      3          8           0        6.352503   -0.324834    3.328283
      4          1           0        5.696907   -2.633292    4.523832
      5          1           0        7.219711   -3.397786    4.010371
      6          1           0        7.237273   -2.124272    5.253621
      7          7           0        7.577278   -1.806929    2.163842
      8          6           0        7.816464   -0.922529    1.039598
      9          6           0        7.018350   -1.328117   -0.179177
     10          8           0        6.555110   -2.467178   -0.245876
     11          6           0        9.292305   -0.908409    0.628023
     12          6           0        9.989626   -2.220174    0.310978
     13          8           0       10.217655   -2.624268   -0.850103
     14          8           0       10.282091   -2.870611    1.348570
     15          1           0        7.935735   -2.749442    2.080302
     16          1           0        7.478361    0.065185    1.349286
     17          1           0        9.839728   -0.426818    1.427897
     18          1           0        9.373465   -0.259055   -0.237802
     19          7           0        6.864288   -0.459059   -1.193328
     20          6           0        6.463102   -0.878390   -2.515829
     21          6           0        4.943208   -0.953831   -2.641654
     22          8           0        4.405995   -1.308710   -3.685332
     23          6           0        7.130253   -0.003511   -3.569678
     24          6           0        8.645163    0.205135   -3.492138
     25          6           0        9.390494   -1.062735   -3.887721
     26          6           0       10.864487   -0.817428   -3.603344
     27          7           0       11.495215   -2.114466   -3.280585
     28          1           0        7.208187    0.483549   -1.059817
     29          1           0        6.923414   -1.849020   -2.708158
     30          1           0        6.736829    1.015876   -3.523118
     31          1           0        6.865393   -0.383370   -4.555049
     32          1           0        8.897714    0.602943   -2.511900
     33          1           0        8.932862    0.959908   -4.231359
     34          1           0        9.206363   -1.313608   -4.927365
     35          1           0        9.002555   -1.847242   -3.226395
     36          1           0       11.069193   -0.081959   -2.827792
     37          1           0       11.255545   -0.472339   -4.561826
     38          1           0       11.164314   -2.497185   -2.403128
     39          1           0       11.237694   -2.783760   -3.990324
     40          1           0       12.496723   -1.990362   -3.261101
     41          7           0        4.191267   -0.656878   -1.572962
     42          6           0        2.819810   -1.126962   -1.467003
     43          6           0        1.855525    0.047701   -1.417789
     44          8           0        0.795066    0.001752   -2.035702
     45          6           0        2.596183   -1.983247   -0.223312
     46          6           0        3.197234   -1.487045    1.083525
     47          8           0        3.204296   -2.273713    2.056409
     48          8           0        3.587233   -0.298138    1.168962
     49          1           0        4.591936   -0.462887   -0.667020
     50          1           0        2.532877   -1.777446   -2.293708
     51          1           0        2.983427   -2.967609   -0.483261
     52          1           0        1.537368   -2.162376   -0.005545
     53          7           0        2.159808    1.130887   -0.697706
     54          6           0        1.473143    2.407501   -0.704468
     55          6           0        1.854158    3.284510    0.474422
     56          8           0        2.683473    2.856245    1.274251
     57          1           0        2.884544    1.060398    0.006418
     58          1           0        0.400465    2.194414   -0.728061
     59          1           0        1.681644    2.923427   -1.640869
     60          7           0        1.365080    4.528255    0.580260
     61          6           0        0.646265    5.338401   -0.376594
     62          6           0       -0.458448    6.063192    0.384515
     63          8           0       -0.246720    6.422514    1.542384
     64          6           0        1.577146    6.425642   -0.911165
     65          6           0        2.914529    5.955264   -1.476984
     66          7           0        4.021354    6.594364   -1.097656
     67          8           0        2.912327    4.914999   -2.128477
     68          1           0        1.407239    4.913307    1.513886
     69          1           0        0.260010    4.814205   -1.244364
     70          1           0        1.921569    7.148456   -0.164230
     71          1           0        1.058780    6.983108   -1.693169
     72          1           0        4.010997    7.496551   -0.645604
     73          1           0        4.959092    6.230292   -1.229559
     74          7           0       -1.644657    6.347129   -0.161550
     75          6           0       -2.204583    5.785299   -1.367879
     76          6           0       -2.758504    4.378970   -1.158092
     77          8           0       -2.015718    3.556160   -0.634211
     78          1           0       -2.353187    6.838576    0.372645
     79          1           0       -1.529730    5.671297   -2.215922
     80          1           0       -2.976980    6.418791   -1.781389
     81          7           0       -3.961262    4.022070   -1.606417
     82          6           0       -4.780629    2.912009   -1.146302
     83          6           0       -5.512438    2.121617   -2.213652
     84          8           0       -6.393282    2.598649   -2.933690
     85          6           0       -5.716234    3.374071   -0.033944
     86          6           0       -5.035186    4.178520    1.048430
     87          6           0       -4.481987    3.474775    2.131579
     88          6           0       -4.948427    5.578918    1.003034
     89          6           0       -3.838109    4.217485    3.126167
     90          6           0       -4.301304    6.327250    1.990015
     91          6           0       -3.731699    5.628477    3.070693
     92          8           0       -3.215469    6.290749    4.148563
     93          1           0       -4.444672    4.629815   -2.257463
     94          1           0       -4.159032    2.193432   -0.610238
     95          1           0       -6.230230    2.497547    0.374118
     96          1           0       -6.523320    4.026596   -0.356161
     97          1           0       -4.444806    2.397768    2.153361
     98          1           0       -5.425607    6.169035    0.236444
     99          1           0       -3.416639    3.601203    3.915382
    100          1           0       -4.130493    7.388248    1.900535
    101          1           0       -3.471296    7.210876    4.180469
    102          7           0       -5.382671    0.791494   -2.207980
    103          6           0       -6.073672   -0.151237   -3.068139
    104          6           0       -6.994561   -1.025145   -2.240159
    105          8           0       -7.768546   -1.767299   -2.842865
    106          6           0       -5.105915   -1.048481   -3.831094
    107          6           0       -4.119213   -0.304972   -4.727372
    108          6           0       -4.249682   -1.934749   -2.924456
    109          6           0       -4.884274    0.594159   -5.690774
    110          1           0       -4.708990    0.394042   -1.570103
    111          1           0       -6.695085    0.376607   -3.784539
    112          1           0       -5.661297   -1.818749   -4.374451
    113          1           0       -3.563632   -0.962281   -5.396831
    114          1           0       -3.345199    0.223314   -4.190700
    115          1           0       -3.401964   -2.328998   -3.472033
    116          1           0       -3.868198   -1.473911   -2.013523
    117          1           0       -4.918716   -2.751591   -2.656755
    118          1           0       -5.144499    1.525979   -5.178822
    119          1           0       -4.302297    0.918270   -6.557005
    120          1           0       -5.753117    0.035823   -6.027185
    121          7           0       -7.081273   -0.882380   -0.909558
    122          6           0       -7.962613   -1.619511   -0.029344
    123          6           0       -7.610211   -3.093550   -0.008753
    124          8           0       -8.418005   -3.874701    0.502201
    125          6           0       -8.057516   -0.996573    1.363438
    126          8           0       -6.994183   -1.089552    2.287440
    127          1           0       -6.214277   -0.508932   -0.552829
    128          1           0       -8.944537   -1.594205   -0.508494
    129          1           0       -8.953315   -1.310957    1.905754
    130          1           0       -8.372928    0.036326    1.348097
    131          1           0       -6.199900   -0.706611    1.897092
    132          7           0       -6.430037   -3.608248   -0.372035
    133          6           0       -6.088704   -4.989202   -0.642327
    134          6           0       -4.591406   -5.242129   -0.558497
    135          8           0       -3.788300   -4.680366   -1.299336
    136          6           0       -6.697565   -5.305814   -2.003813
    137          1           0       -5.792953   -2.911208   -0.728768
    138          1           0       -6.499647   -5.587626    0.159867
    139          1           0       -6.296053   -6.285095   -2.280212
    140          1           0       -7.780877   -5.252486   -1.966498
    141          1           0       -6.315081   -4.705986   -2.830257
    142          7           0       -4.269090   -6.113680    0.394137
    143          6           0       -2.924018   -6.544133    0.728788
    144          6           0       -1.992296   -5.381936    1.038777
    145          8           0       -0.855285   -5.380028    0.578774
    146          6           0       -2.474223   -7.508304   -0.370375
    147          1           0       -4.967290   -6.588089    0.955076
    148          1           0       -2.868962   -7.200193    1.595191
    149          1           0       -1.435726   -7.825340   -0.345640
    150          1           0       -3.040788   -8.411107   -0.161927
    151          1           0       -2.846869   -7.183419   -1.340985
    152          7           0       -2.385124   -4.403179    1.857508
    153          6           0       -1.523124   -3.283796    2.184982
    154          6           0       -1.561687   -2.779251    3.632617
    155          8           0       -0.600102   -2.242860    4.176434
    156          6           0       -1.976056   -2.070571    1.376565
    157          6           0       -3.489915   -1.845752    1.409507
    158          6           0       -3.883630   -0.571870    0.671190
    159          8           0       -3.085139   -0.050330   -0.140788
    160          8           0       -5.034405   -0.156865    0.907598
    161          1           0       -3.348598   -4.367360    2.169654
    162          1           0       -0.465371   -3.410978    1.950710
    163          1           0       -1.617396   -2.209440    0.362080
    164          1           0       -1.464370   -1.199860    1.791462
    165          1           0       -3.908721   -1.796408    2.411039
    166          1           0       -3.956758   -2.666624    0.866528
    167          7           0       -2.647269   -3.072759    4.332879
    168          6           0       -2.759028   -2.818948    5.761161
    169          1           0       -2.736549   -3.765262    6.300534
    170          1           0       -1.925959   -2.196420    6.086369
    171          1           0       -3.698424   -2.306249    5.966713
    172          1           0       -3.408534   -3.613258    3.937233
    173         20           0        4.256641    1.616602    3.032818
    174          8           0        4.629501    1.588541    5.598048
    175          1           0        5.023859    1.054538    6.291894
    176          1           0        4.302554    2.367583    6.047491
 ---------------------------------------------------------------------

 SCF Done:  E(RB3LYP) =  -5333.40101128     A.U. after   19 cycles

 The electronic state is 1-A.
 Alpha  occ. eigenvalues -- -145.54230 -19.27636 -19.16492 -19.14789 -19.13941
 Alpha  occ. eigenvalues --  -19.12392 -19.11503 -19.10254 -19.08137 -19.08044
 Alpha  occ. eigenvalues --  -19.07522 -19.07331 -19.06692 -19.05560 -19.05321
 Alpha  occ. eigenvalues --  -19.04620 -19.04297 -19.03587 -19.03585 -19.03402
 Alpha  occ. eigenvalues --  -19.03401 -19.02964 -19.02322 -19.01030 -15.59996
 Alpha  occ. eigenvalues --  -14.51278 -14.39577 -14.38946 -14.37528 -14.37335
 Alpha  occ. eigenvalues --  -14.37008 -14.34537 -14.33967 -14.32668 -14.32527
 Alpha  occ. eigenvalues --  -14.32481 -14.30682 -14.30020 -14.29696 -14.28718
 Alpha  occ. eigenvalues --  -12.73636 -12.73577 -12.73529 -10.33618 -10.31941
 Alpha  occ. eigenvalues --  -10.31570 -10.31398 -10.30740 -10.29047 -10.27321
 Alpha  occ. eigenvalues --  -10.27070 -10.26563 -10.26073 -10.25171 -10.25066
 Alpha  occ. eigenvalues --  -10.24743 -10.24585 -10.24455 -10.24450 -10.24379
 Alpha  occ. eigenvalues --  -10.24291 -10.23818 -10.23725 -10.23364 -10.23341
 Alpha  occ. eigenvalues --  -10.23005 -10.22418 -10.22010 -10.21472 -10.21418
 Alpha  occ. eigenvalues --  -10.21406 -10.20700 -10.20459 -10.19714 -10.19627
 Alpha  occ. eigenvalues --  -10.19514 -10.19162 -10.19090 -10.18368 -10.18128
 Alpha  occ. eigenvalues --  -10.17950 -10.17845 -10.17411 -10.17085 -10.16931
 Alpha  occ. eigenvalues --  -10.16755 -10.16539 -10.15496 -10.15197 -10.14946
 Alpha  occ. eigenvalues --  -10.14116 -10.13236 -10.12621 -10.12342 -10.12259
 Alpha  occ. eigenvalues --  -10.12080 -10.10575  -1.96271  -1.23877  -1.23311
 Alpha  occ. eigenvalues --   -1.23062  -1.13316  -1.08460  -1.07381  -1.06124
 Alpha  occ. eigenvalues --   -1.05351  -1.04850  -1.03596  -1.03421  -1.01468
 Alpha  occ. eigenvalues --   -1.00715  -1.00654  -1.00107  -0.99379  -0.99259
 Alpha  occ. eigenvalues --   -0.98548  -0.97972  -0.97623  -0.97152  -0.96486
 Alpha  occ. eigenvalues --   -0.96147  -0.96063  -0.94247  -0.94120  -0.93621
 Alpha  occ. eigenvalues --   -0.93483  -0.92243  -0.91136  -0.90255  -0.89877
 Alpha  occ. eigenvalues --   -0.89577  -0.89340  -0.88980  -0.87746  -0.87438
 Alpha  occ. eigenvalues --   -0.87213  -0.86740  -0.86623  -0.86437  -0.85330
 Alpha  occ. eigenvalues --   -0.82956  -0.81567  -0.81180  -0.79245  -0.76888
 Alpha  occ. eigenvalues --   -0.76213  -0.75562  -0.75534  -0.74325  -0.74174
 Alpha  occ. eigenvalues --   -0.73989  -0.73539  -0.72795  -0.72632  -0.72194
 Alpha  occ. eigenvalues --   -0.71490  -0.70825  -0.69830  -0.69820  -0.69031
 Alpha  occ. eigenvalues --   -0.67937  -0.67245  -0.66570  -0.66021  -0.65969
 Alpha  occ. eigenvalues --   -0.65478  -0.65152  -0.64208  -0.63861  -0.63844
 Alpha  occ. eigenvalues --   -0.63149  -0.62622  -0.62343  -0.61535  -0.61250
 Alpha  occ. eigenvalues --   -0.60451  -0.60310  -0.60263  -0.59602  -0.58302
 Alpha  occ. eigenvalues --   -0.57911  -0.57719  -0.57677  -0.57336  -0.56758
 Alpha  occ. eigenvalues --   -0.56681  -0.56311  -0.56211  -0.55741  -0.55593
 Alpha  occ. eigenvalues --   -0.55572  -0.54863  -0.54552  -0.54373  -0.54193
 Alpha  occ. eigenvalues --   -0.53876  -0.53576  -0.53148  -0.52785  -0.52754
 Alpha  occ. eigenvalues --   -0.52384  -0.52119  -0.52008  -0.51866  -0.51599
 Alpha  occ. eigenvalues --   -0.51054  -0.50856  -0.50698  -0.50496  -0.50222
 Alpha  occ. eigenvalues --   -0.49573  -0.49122  -0.48878  -0.48360  -0.48141
 Alpha  occ. eigenvalues --   -0.47968  -0.47302  -0.47266  -0.47041  -0.46480
 Alpha  occ. eigenvalues --   -0.46454  -0.46149  -0.45965  -0.45665  -0.45296
 Alpha  occ. eigenvalues --   -0.45135  -0.45103  -0.45040  -0.44992  -0.44844
 Alpha  occ. eigenvalues --   -0.44602  -0.44437  -0.44089  -0.44048  -0.43845
 Alpha  occ. eigenvalues --   -0.43454  -0.43301  -0.43174  -0.43031  -0.42972
 Alpha  occ. eigenvalues --   -0.42766  -0.42613  -0.42475  -0.42068  -0.41979
 Alpha  occ. eigenvalues --   -0.41719  -0.41492  -0.41410  -0.41276  -0.41106
 Alpha  occ. eigenvalues --   -0.40908  -0.40806  -0.40735  -0.40489  -0.40309
 Alpha  occ. eigenvalues --   -0.40279  -0.40075  -0.40041  -0.39943  -0.39777
 Alpha  occ. eigenvalues --   -0.39671  -0.39618  -0.39505  -0.39142  -0.38979
 Alpha  occ. eigenvalues --   -0.38904  -0.38793  -0.38707  -0.38492  -0.38402
 Alpha  occ. eigenvalues --   -0.38296  -0.38066  -0.37855  -0.37462  -0.37153
 Alpha  occ. eigenvalues --   -0.36982  -0.36787  -0.36672  -0.36530  -0.36341
 Alpha  occ. eigenvalues --   -0.36224  -0.36126  -0.36063  -0.36038  -0.35689
 Alpha  occ. eigenvalues --   -0.35671  -0.35638  -0.35355  -0.35290  -0.35208
 Alpha  occ. eigenvalues --   -0.35155  -0.35077  -0.34481  -0.34405  -0.34203
 Alpha  occ. eigenvalues --   -0.33976  -0.33929  -0.33477  -0.33336  -0.32736
 Alpha  occ. eigenvalues --   -0.32582  -0.32517  -0.32216  -0.32033  -0.31925
 Alpha  occ. eigenvalues --   -0.31639  -0.31365  -0.31195  -0.31106  -0.30876
 Alpha  occ. eigenvalues --   -0.30843  -0.30455  -0.30342  -0.30213  -0.29887
 Alpha  occ. eigenvalues --   -0.29672  -0.29344  -0.28759  -0.28644  -0.28540
 Alpha  occ. eigenvalues --   -0.28517  -0.27838  -0.27720  -0.27578  -0.27209
 Alpha  occ. eigenvalues --   -0.25858  -0.25600  -0.25053  -0.25045  -0.24866
 Alpha  occ. eigenvalues --   -0.24840  -0.24008  -0.23922  -0.23841  -0.23560
 Alpha  occ. eigenvalues --   -0.23343  -0.23107  -0.22813  -0.22722  -0.22703
 Alpha  occ. eigenvalues --   -0.22454  -0.22280  -0.22077  -0.21257  -0.21191
 Alpha  occ. eigenvalues --   -0.20885  -0.20309  -0.20292  -0.20144  -0.19820
 Alpha  occ. eigenvalues --   -0.19713  -0.19693  -0.19133  -0.19027  -0.18698
 Alpha  occ. eigenvalues --   -0.18345  -0.17920  -0.16983
 Alpha virt. eigenvalues --   -0.14380  -0.06447  -0.05026  -0.03697  -0.02056
 Alpha virt. eigenvalues --   -0.01552  -0.01005  -0.00711  -0.00444  -0.00093
 Alpha virt. eigenvalues --    0.00026   0.00087   0.00721   0.01332   0.01334

 Mulliken charges:
               1
     1  C    0.055412
     2  C    0.095811
     3  O   -0.414286
     4  H    0.068388
     5  H    0.029182
     6  H    0.020305
     7  N   -0.081739
     8  C    0.094177
     9  C    0.080780
    10  O   -0.247200
    11  C    0.128306
    12  C    0.087920
    13  O   -0.410122
    14  O   -0.376375
    15  H    0.149458
    16  H   -0.052009
    17  H   -0.003929
    18  H   -0.078090
    19  N   -0.172123
    20  C    0.138666
    21  C    0.090330
    22  O   -0.271319
    23  C    0.023849
    24  C    0.015658
    25  C   -0.073773
    26  C    0.081579
    27  N    0.091420
    28  H    0.102290
    29  H    0.031393
    30  H   -0.010041
    31  H    0.022409
    32  H   -0.012520
    33  H    0.001684
    34  H    0.027736
    35  H    0.051810
    36  H    0.060994
    37  H    0.041642
    38  H    0.156584
    39  H    0.174078
    40  H    0.168877
    41  N   -0.106445
    42  C    0.118849
    43  C    0.063329
    44  O   -0.262202
    45  C    0.035860
    46  C    0.124155
    47  O   -0.329274
    48  O   -0.491757
    49  H    0.104170
    50  H    0.020095
    51  H    0.031431
    52  H    0.061726
    53  N   -0.166457
    54  C    0.156259
    55  C    0.112392
    56  O   -0.431443
    57  H    0.093290
    58  H    0.090901
    59  H    0.057273
    60  N   -0.106395
    61  C    0.094333
    62  C    0.094648
    63  O   -0.290389
    64  C    0.092273
    65  C    0.028633
    66  N   -0.061663
    67  O   -0.254984
    68  H    0.118807
    69  H    0.046892
    70  H   -0.027052
    71  H    0.033124
    72  H    0.122535
    73  H    0.124503
    74  N   -0.092593
    75  C    0.182174
    76  C    0.037329
    77  O   -0.263362
    78  H    0.133467
    79  H    0.037756
    80  H   -0.012279
    81  N   -0.122445
    82  C    0.133556
    83  C    0.089110
    84  O   -0.311770
    85  C    0.154302
    86  C   -0.040552
    87  C    0.023356
    88  C   -0.029041
    89  C   -0.028888
    90  C   -0.092928
    91  C    0.202002
    92  O   -0.211212
    93  H    0.111816
    94  H    0.032854
    95  H    0.021357
    96  H   -0.023031
    97  H    0.006818
    98  H   -0.044697
    99  H   -0.030416
   100  H   -0.047517
   101  H    0.167713
   102  N   -0.158513
   103  C    0.203535
   104  C   -0.008385
   105  O   -0.297808
   106  C   -0.122001
   107  C    0.049186
   108  C    0.028670
   109  C    0.009844
   110  H    0.148866
   111  H    0.023394
   112  H   -0.001399
   113  H   -0.018459
   114  H    0.003838
   115  H    0.000117
   116  H    0.023513
   117  H    0.010868
   118  H    0.018470
   119  H   -0.022266
   120  H    0.004107
   121  N   -0.152084
   122  C    0.154942
   123  C    0.048090
   124  O   -0.316731
   125  C    0.286060
   126  O   -0.361821
   127  H    0.128917
   128  H    0.012681
   129  H   -0.023737
   130  H   -0.040135
   131  H    0.163122
   132  N   -0.140184
   133  C    0.126253
   134  C    0.075195
   135  O   -0.248267
   136  C    0.075904
   137  H    0.128241
   138  H   -0.034119
   139  H   -0.022680
   140  H    0.045806
   141  H    0.029419
   142  N   -0.147186
   143  C    0.038860
   144  C    0.085884
   145  O   -0.260220
   146  C    0.089657
   147  H    0.129023
   148  H    0.017843
   149  H    0.026163
   150  H   -0.033860
   151  H    0.032568
   152  N   -0.126850
   153  C    0.112648
   154  C    0.053044
   155  O   -0.282587
   156  C    0.058002
   157  C   -0.005854
   158  C    0.152199
   159  O   -0.358669
   160  O   -0.423826
   161  H    0.108486
   162  H    0.034262
   163  H    0.034734
   164  H   -0.003007
   165  H   -0.017244
   166  H   -0.004680
   167  N   -0.151387
   168  C    0.120788
   169  H    0.011778
   170  H    0.036316
   171  H    0.023928
   172  H    0.103468
   173  Ca   1.457286
   174  O   -0.330277
   175  H    0.225776
   176  H    0.194973
 Sum of Mulliken charges =  -0.00000

 Dipole moment (field-independent basis, Debye):
    X=             45.8235    Y=             24.1546    Z=              8.4215  Tot=             52.4801
 Quadrupole moment (field-independent basis, Debye-Ang):
   XX=           -421.3111   YY=           -462.6973   ZZ=           -473.8241
   XY=             70.8533   XZ=            -86.1840   YZ=             33.5369

 ESP charges:
               1
     1  C   -0.526773
     2  C    0.867746
     3  O   -0.746357
     4  H    0.181538
     5  H    0.151558
     6  H    0.122084
     7  N   -0.650368
     8  C    0.401350
     9  C    0.598730
    10  O   -0.512861
    11  C   -0.369575
    12  C    0.769537
    13  O   -0.719314
    14  O   -0.668804
    15  H    0.355184
    16  H   -0.077034
    17  H    0.086313
    18  H    0.014572
    19  N   -0.436309
    20  C   -0.095729
    21  C    0.697699
    22  O   -0.564136
    23  C   -0.107320
    24  C    0.097749
    25  C    0.005814
    26  C   -0.067034
    27  N   -0.185451
    28  H    0.263303
    29  H    0.104803
    30  H    0.045281
    31  H    0.050764
    32  H   -0.023837
    33  H   -0.011501
    34  H    0.048288
    35  H    0.040758
    36  H    0.097003
    37  H    0.063896
    38  H    0.259950
    39  H    0.269287
    40  H    0.275988
    41  N   -0.616368
    42  C    0.239499
    43  C    0.457207
    44  O   -0.542328
    45  C   -0.143155
    46  C    0.809639
    47  O   -0.665448
    48  O   -0.933829
    49  H    0.210300
    50  H    0.066686
    51  H    0.075326
    52  H    0.049248
    53  N   -0.274479
    54  C   -0.254718
    55  C    0.837140
    56  O   -0.763972
    57  H    0.237872
    58  H    0.170442
    59  H    0.162289
    60  N   -0.678113
    61  C    0.414253
    62  C    0.498810
    63  O   -0.540376
    64  C   -0.370547
    65  C    0.791533
    66  N   -0.874974
    67  O   -0.584456
    68  H    0.326568
    69  H    0.010554
    70  H    0.063694
    71  H    0.098711
    72  H    0.380013
    73  H    0.385004
    74  N   -0.506063
    75  C   -0.065769
    76  C    0.764099
    77  O   -0.578583
    78  H    0.342234
    79  H    0.070601
    80  H    0.058492
    81  N   -0.713929
    82  C    0.181354
    83  C    0.605785
    84  O   -0.577629
    85  C   -0.214710
    86  C    0.069369
    87  C   -0.142710
    88  C   -0.064635
    89  C   -0.259828
    90  C   -0.418958
    91  C    0.452247
    92  O   -0.586424
    93  H    0.317474
    94  H    0.141025
    95  H    0.103653
    96  H    0.051104
    97  H    0.166585
    98  H    0.109173
    99  H    0.149816
   100  H    0.145620
   101  H    0.411371
   102  N   -0.378179
   103  C   -0.406291
   104  C    0.740305
   105  O   -0.599591
   106  C    0.147825
   107  C    0.169820
   108  C   -0.191452
   109  C   -0.258818
   110  H    0.205505
   111  H    0.193088
   112  H    0.016237
   113  H   -0.028478
   114  H    0.005222
   115  H    0.041234
   116  H    0.067781
   117  H    0.011212
   118  H    0.062283
   119  H    0.042803
   120  H    0.046330
   121  N   -0.124786
   122  C   -0.814259
   123  C    0.889305
   124  O   -0.601143
   125  C    0.643413
   126  O   -0.733709
   127  H    0.096648
   128  H    0.241624
   129  H   -0.024885
   130  H   -0.051050
   131  H    0.412794
   132  N   -0.678541
   133  C    0.118806
   134  C    0.692834
   135  O   -0.496756
   136  C   -0.460027
   137  H    0.405018
   138  H    0.061200
   139  H    0.070338
   140  H    0.172451
   141  H    0.170942
   142  N   -0.566298
   143  C    0.180270
   144  C    0.684720
   145  O   -0.538709
   146  C   -0.349553
   147  H    0.302646
   148  H    0.057009
   149  H    0.105563
   150  H    0.074880
   151  H    0.110638
   152  N   -0.875992
   153  C    0.337694
   154  C    0.387599
   155  O   -0.540330
   156  C   -0.146869
   157  C    0.029433
   158  C    0.683381
   159  O   -0.634287
   160  O   -0.679259
   161  H    0.306708
   162  H    0.065626
   163  H    0.108820
   164  H    0.018691
   165  H   -0.032007
   166  H   -0.030697
   167  N   -0.191649
   168  C   -0.139224
   169  H    0.053186
   170  H    0.102418
   171  H    0.063259
   172  H    0.249679
   173  Ca   1.747127
   174  O   -0.930920
   175  H    0.493813
   176  H    0.455999
 Sum of ESP charges =  -0.00000

 Normal termination of Gaussian 16 at Thu Sep 19 10:08:02 2019.
