 Gaussian 16, Revision A.03,
 Gaussian 16:  ES64L-G16RevA.03 25-Dec-2016

 ----------------------------------------------------------------------
 #b3lyp/svp scf=(tight,noincore) Test #IOP(5/87=12) Density=Current Pop
 =(MK,readradii) iop(6/33=2) iop(6/42=6)
 ----------------------------------------------------------------------

 ----------------
 Ng-31_loop3_33.0
 ----------------
 Symbolic Z-matrix:
 Charge =  0 Multiplicity = 1

                         Standard orientation:
 ---------------------------------------------------------------------
 Center     Atomic      Atomic             Coordinates (Angstroms)
 Number     Number       Type             X           Y           Z
 ---------------------------------------------------------------------
      1          6           0        8.931572   -0.047394    3.401092
      2          6           0        7.715182    0.474990    2.647693
      3          8           0        6.762479    1.014187    3.220862
      4          1           0        9.690774   -0.367784    2.687338
      5          1           0        9.337806    0.744254    4.031162
      6          1           0        8.638181   -0.893107    4.023406
      7          7           0        7.717169    0.213901    1.342270
      8          6           0        6.637768    0.444690    0.398590
      9          6           0        5.758825   -0.775970    0.144920
     10          8           0        4.554004   -0.623106    0.018674
     11          6           0        7.144785    1.187126   -0.837664
     12          6           0        8.394699    0.589161   -1.458914
     13          8           0        8.723481   -0.577918   -1.134373
     14          8           0        9.098787    1.331167   -2.173189
     15          1           0        8.387058   -0.383111    0.892687
     16          1           0        5.992236    1.214137    0.831648
     17          1           0        7.436544    2.172360   -0.456755
     18          1           0        6.323404    1.217558   -1.549217
     19          7           0        6.245821   -2.007639    0.355459
     20          6           0        5.443870   -3.194983    0.526598
     21          6           0        4.792669   -3.463660   -0.822272
     22          8           0        5.426376   -3.327236   -1.859530
     23          6           0        6.318372   -4.307397    1.100340
     24          6           0        6.526494   -4.173745    2.602013
     25          6           0        7.504704   -5.206975    3.156399
     26          6           0        7.607476   -5.263369    4.680065
     27          7           0        6.367386   -5.736084    5.308410
     28          1           0        7.248610   -2.110966    0.428516
     29          1           0        4.725711   -2.909133    1.288987
     30          1           0        7.280991   -4.401960    0.606555
     31          1           0        5.803291   -5.236674    0.847088
     32          1           0        5.601849   -4.373432    3.149421
     33          1           0        6.852727   -3.178253    2.904778
     34          1           0        8.490620   -5.010541    2.737969
     35          1           0        7.331578   -6.216138    2.791411
     36          1           0        7.844948   -4.236990    4.974602
     37          1           0        8.379336   -6.004429    4.874650
     38          1           0        6.492316   -5.760031    6.313755
     39          1           0        5.577468   -5.128333    5.148503
     40          1           0        6.080591   -6.676957    5.089080
     41          7           0        3.524145   -3.901115   -0.739315
     42          6           0        2.620842   -4.091087   -1.856344
     43          6           0        1.962866   -2.793459   -2.320487
     44          8           0        0.889582   -2.854640   -2.906932
     45          6           0        1.706536   -5.283065   -1.608689
     46          6           0        0.739852   -5.084871   -0.438928
     47          8           0        1.001688   -4.229083    0.435183
     48          8           0       -0.241772   -5.830591   -0.281394
     49          1           0        3.162983   -4.239341    0.137021
     50          1           0        3.206753   -4.322815   -2.739073
     51          1           0        2.415009   -6.074743   -1.382168
     52          1           0        1.067727   -5.435783   -2.473617
     53          7           0        2.548845   -1.616706   -2.085370
     54          6           0        2.230750   -0.317458   -2.648904
     55          6           0        3.296594    0.212678   -3.588442
     56          8           0        4.018818   -0.652438   -4.089807
     57          1           0        3.433755   -1.691797   -1.619112
     58          1           0        2.191757    0.337086   -1.776521
     59          1           0        1.221924   -0.366004   -3.081124
     60          7           0        3.486107    1.519626   -3.777310
     61          6           0        2.737549    2.645148   -3.266172
     62          6           0        3.723600    3.725643   -2.846725
     63          8           0        4.025168    4.617245   -3.628072
     64          6           0        1.841953    3.063706   -4.430438
     65          6           0        1.038904    1.898689   -4.990121
     66          7           0        1.453484    1.335948   -6.130097
     67          8           0       -0.008345    1.502441   -4.477816
     68          1           0        4.309902    1.763225   -4.323772
     69          1           0        2.112181    2.318076   -2.426863
     70          1           0        2.459379    3.386289   -5.273840
     71          1           0        1.241361    3.932712   -4.144922
     72          1           0        2.205342    1.809316   -6.617983
     73          1           0        0.902096    0.588476   -6.536739
     74          7           0        4.232186    3.728487   -1.613586
     75          6           0        3.867829    2.950770   -0.444441
     76          6           0        2.427292    3.004488    0.044299
     77          8           0        1.906813    2.038580    0.599026
     78          1           0        4.686660    4.592095   -1.390574
     79          1           0        4.506991    3.209465    0.401283
     80          1           0        4.139186    1.931438   -0.732413
     81          7           0        1.860827    4.201380   -0.047181
     82          6           0        0.496803    4.397435    0.405701
     83          6           0       -0.506883    3.770781   -0.550604
     84          8           0       -0.231987    3.639944   -1.746687
     85          6           0        0.123359    5.817247    0.818947
     86          6           0        0.788392    6.244100    2.114064
     87          6           0        0.767259    5.469189    3.273748
     88          6           0        1.497746    7.450445    2.077330
     89          6           0        1.627759    5.826661    4.314543
     90          6           0        2.183814    7.970736    3.180284
     91          6           0        2.290923    7.063941    4.260215
     92          8           0        3.124307    7.331718    5.305426
     93          1           0        2.478113    5.003701   -0.024009
     94          1           0        0.508563    3.724989    1.267024
     95          1           0       -0.947028    5.829902    1.025370
     96          1           0        0.244827    6.469858   -0.034836
     97          1           0        0.243741    4.524724    3.248966
     98          1           0        1.513355    8.112727    1.222907
     99          1           0        1.698228    5.208881    5.197426
    100          1           0        2.776941    8.866798    3.147519
    101          1           0        3.528078    8.202719    5.276695
    102          7           0       -1.656704    3.314934   -0.067058
    103          6           0       -2.518951    2.362658   -0.745218
    104          6           0       -3.930793    2.889502   -0.977678
    105          8           0       -4.533308    2.474401   -1.967257
    106          6           0       -2.548446    1.035250    0.010638
    107          6           0       -1.161581    0.394774    0.000892
    108          6           0       -2.906044    1.271039    1.471949
    109          6           0       -0.902017   -0.245876   -1.363584
    110          1           0       -1.952254    3.513110    0.875373
    111          1           0       -2.129788    2.182537   -1.742519
    112          1           0       -3.309555    0.378464   -0.430547
    113          1           0       -1.020444   -0.389971    0.734346
    114          1           0       -0.365547    1.082638    0.291363
    115          1           0       -2.202608    1.977904    1.896825
    116          1           0       -3.883582    1.746823    1.600976
    117          1           0       -2.889133    0.392058    2.110075
    118          1           0       -0.463546    0.519868   -2.003802
    119          1           0       -0.138508   -1.022362   -1.260515
    120          1           0       -1.765346   -0.710787   -1.841309
    121          7           0       -4.486382    3.730995   -0.114132
    122          6           0       -5.842844    4.246398   -0.148344
    123          6           0       -6.821428    3.333737    0.577276
    124          8           0       -7.071714    3.537150    1.768150
    125          6           0       -5.831904    5.681649    0.357158
    126          8           0       -5.085402    6.583901   -0.419743
    127          1           0       -3.906770    4.096454    0.632319
    128          1           0       -6.192695    4.205321   -1.183388
    129          1           0       -5.496902    5.818491    1.389267
    130          1           0       -6.881159    5.993579    0.340898
    131          1           0       -4.805012    7.292702    0.164281
    132          7           0       -7.470646    2.434691   -0.157321
    133          6           0       -8.397968    1.437409    0.341779
    134          6           0       -8.185453    0.009308   -0.140990
    135          8           0       -7.388784   -0.353858   -0.995348
    136          6           0       -9.738516    2.016592   -0.110857
    137          1           0       -7.254779    2.436975   -1.140579
    138          1           0       -8.325471    1.475729    1.429426
    139          1           0       -9.894019    3.027044    0.255211
    140          1           0       -9.841493    1.965198   -1.198310
    141          1           0      -10.506943    1.389979    0.332964
    142          7           0       -9.060753   -0.935682    0.199809
    143          6           0       -9.046912   -2.377979    0.020400
    144          6           0       -7.730778   -3.054558    0.382935
    145          8           0       -7.316754   -3.976562   -0.313049
    146          6           0       -9.427136   -2.675675   -1.431567
    147          1           0       -9.790275   -0.648159    0.835834
    148          1           0       -9.862003   -2.771169    0.616327
    149          1           0       -8.673591   -2.247062   -2.093505
    150          1           0       -9.494390   -3.759431   -1.529296
    151          1           0      -10.343586   -2.204101   -1.782904
    152          7           0       -7.051495   -2.451482    1.359395
    153          6           0       -5.742698   -2.980934    1.721373
    154          6           0       -5.526808   -3.041279    3.225318
    155          8           0       -4.640704   -3.753814    3.704393
    156          6           0       -4.773347   -2.077649    0.975093
    157          6           0       -4.588260   -2.362922   -0.512510
    158          6           0       -4.026716   -3.759789   -0.754024
    159          8           0       -3.469171   -4.465498    0.110799
    160          8           0       -4.180889   -4.250981   -1.894928
    161          1           0       -7.330915   -1.564667    1.759501
    162          1           0       -5.682395   -4.049844    1.530860
    163          1           0       -3.853069   -2.233454    1.558971
    164          1           0       -5.151810   -1.063650    1.085865
    165          1           0       -3.794637   -1.725306   -0.895142
    166          1           0       -5.521588   -2.160689   -1.048700
    167          7           0       -6.256884   -2.252922    4.021550
    168          6           0       -5.969038   -2.038854    5.426903
    169          1           0       -6.901802   -1.883146    5.969144
    170          1           0       -5.456332   -2.912286    5.829801
    171          1           0       -5.333935   -1.159726    5.538915
    172          1           0       -6.779400   -1.507829    3.583015
    173         20           0       -2.589743   -6.266101   -1.623916
    174          8           0       -3.045914   -7.586843    0.587723
    175          1           0       -2.865971   -8.484242    0.856416
    176          1           0       -3.408681   -7.173065    1.375243
 ---------------------------------------------------------------------

 SCF Done:  E(RB3LYP) =  -5333.29721378     A.U. after   61 cycles

 The electronic state is 1-A.
 Alpha  occ. eigenvalues -- -145.46549 -19.19927 -19.15663 -19.13097 -19.10415
 Alpha  occ. eigenvalues --  -19.09809 -19.09298 -19.08400 -19.08305 -19.07348
 Alpha  occ. eigenvalues --  -19.07341 -19.06958 -19.05786 -19.05737 -19.05547
 Alpha  occ. eigenvalues --  -19.05211 -19.05074 -19.04728 -19.04609 -19.03398
 Alpha  occ. eigenvalues --  -19.03026 -19.01959 -18.96707 -18.95537 -15.52457
 Alpha  occ. eigenvalues --  -14.57978 -14.36817 -14.36152 -14.35572 -14.35473
 Alpha  occ. eigenvalues --  -14.35069 -14.34186 -14.34060 -14.33110 -14.31424
 Alpha  occ. eigenvalues --  -14.31370 -14.31243 -14.31042 -14.29868 -14.28157
 Alpha  occ. eigenvalues --  -12.66051 -12.66025 -12.65977 -10.34939 -10.29782
 Alpha  occ. eigenvalues --  -10.28561 -10.28126 -10.27245 -10.26856 -10.26549
 Alpha  occ. eigenvalues --  -10.26455 -10.26157 -10.25831 -10.25512 -10.25101
 Alpha  occ. eigenvalues --  -10.24430 -10.24427 -10.24275 -10.24247 -10.24059
 Alpha  occ. eigenvalues --  -10.24054 -10.23899 -10.23893 -10.23441 -10.22953
 Alpha  occ. eigenvalues --  -10.22580 -10.22285 -10.22007 -10.21890 -10.21539
 Alpha  occ. eigenvalues --  -10.21413 -10.21327 -10.20585 -10.20514 -10.20502
 Alpha  occ. eigenvalues --  -10.20095 -10.19970 -10.19430 -10.19248 -10.19200
 Alpha  occ. eigenvalues --  -10.19129 -10.18736 -10.18609 -10.17139 -10.17059
 Alpha  occ. eigenvalues --  -10.16887 -10.16546 -10.16497 -10.16226 -10.15735
 Alpha  occ. eigenvalues --  -10.15670 -10.15567 -10.15469 -10.15145 -10.12514
 Alpha  occ. eigenvalues --  -10.11008 -10.10475  -1.89095  -1.16501  -1.16219
 Alpha  occ. eigenvalues --   -1.15944  -1.13430  -1.05783  -1.04831  -1.04405
 Alpha  occ. eigenvalues --   -1.02961  -1.02327  -1.01710  -1.01630  -1.01325
 Alpha  occ. eigenvalues --   -1.00763  -1.00633  -1.00479  -0.99923  -0.99803
 Alpha  occ. eigenvalues --   -0.98459  -0.98164  -0.97657  -0.97266  -0.96883
 Alpha  occ. eigenvalues --   -0.95994  -0.93573  -0.93219  -0.92426  -0.91706
 Alpha  occ. eigenvalues --   -0.91446  -0.90893  -0.90680  -0.90408  -0.89662
 Alpha  occ. eigenvalues --   -0.89427  -0.89389  -0.88718  -0.88523  -0.88442
 Alpha  occ. eigenvalues --   -0.87230  -0.86885  -0.85616  -0.85184  -0.84598
 Alpha  occ. eigenvalues --   -0.81627  -0.80791  -0.80565  -0.79331  -0.77995
 Alpha  occ. eigenvalues --   -0.77769  -0.76273  -0.75800  -0.75241  -0.74801
 Alpha  occ. eigenvalues --   -0.73857  -0.73615  -0.73242  -0.73094  -0.72658
 Alpha  occ. eigenvalues --   -0.72375  -0.70771  -0.70438  -0.69185  -0.68747
 Alpha  occ. eigenvalues --   -0.68594  -0.68238  -0.68009  -0.67792  -0.67693
 Alpha  occ. eigenvalues --   -0.65758  -0.65636  -0.65022  -0.64071  -0.63561
 Alpha  occ. eigenvalues --   -0.62182  -0.61876  -0.61549  -0.61452  -0.60769
 Alpha  occ. eigenvalues --   -0.60159  -0.59944  -0.59390  -0.59250  -0.59190
 Alpha  occ. eigenvalues --   -0.58826  -0.58488  -0.58251  -0.58104  -0.57178
 Alpha  occ. eigenvalues --   -0.56976  -0.56780  -0.56667  -0.55751  -0.55441
 Alpha  occ. eigenvalues --   -0.55087  -0.55077  -0.54595  -0.54366  -0.54117
 Alpha  occ. eigenvalues --   -0.53942  -0.53155  -0.52379  -0.52247  -0.51342
 Alpha  occ. eigenvalues --   -0.51169  -0.50865  -0.50403  -0.50288  -0.50162
 Alpha  occ. eigenvalues --   -0.50043  -0.49281  -0.49204  -0.48794  -0.48736
 Alpha  occ. eigenvalues --   -0.48505  -0.48196  -0.48056  -0.47910  -0.47590
 Alpha  occ. eigenvalues --   -0.47333  -0.47205  -0.47111  -0.47013  -0.46379
 Alpha  occ. eigenvalues --   -0.46314  -0.46281  -0.45622  -0.45529  -0.45436
 Alpha  occ. eigenvalues --   -0.44418  -0.44306  -0.44120  -0.43998  -0.43590
 Alpha  occ. eigenvalues --   -0.43488  -0.43469  -0.43346  -0.43231  -0.43066
 Alpha  occ. eigenvalues --   -0.42925  -0.42850  -0.42796  -0.42325  -0.42220
 Alpha  occ. eigenvalues --   -0.42165  -0.42048  -0.41916  -0.41696  -0.41450
 Alpha  occ. eigenvalues --   -0.41216  -0.41167  -0.41046  -0.40994  -0.40979
 Alpha  occ. eigenvalues --   -0.40823  -0.40777  -0.40656  -0.40525  -0.40282
 Alpha  occ. eigenvalues --   -0.40042  -0.40032  -0.39890  -0.39511  -0.39287
 Alpha  occ. eigenvalues --   -0.39018  -0.38947  -0.38746  -0.38638  -0.38558
 Alpha  occ. eigenvalues --   -0.38357  -0.38234  -0.38090  -0.38076  -0.37995
 Alpha  occ. eigenvalues --   -0.37830  -0.37737  -0.37717  -0.37553  -0.37511
 Alpha  occ. eigenvalues --   -0.37364  -0.37176  -0.37112  -0.36965  -0.36744
 Alpha  occ. eigenvalues --   -0.36615  -0.36534  -0.36279  -0.36038  -0.35997
 Alpha  occ. eigenvalues --   -0.35837  -0.35470  -0.35401  -0.35144  -0.34924
 Alpha  occ. eigenvalues --   -0.34671  -0.34481  -0.34309  -0.34227  -0.34026
 Alpha  occ. eigenvalues --   -0.33822  -0.33590  -0.33495  -0.33290  -0.33175
 Alpha  occ. eigenvalues --   -0.33129  -0.33027  -0.32958  -0.32910  -0.32849
 Alpha  occ. eigenvalues --   -0.32716  -0.32552  -0.32408  -0.31828  -0.31318
 Alpha  occ. eigenvalues --   -0.31038  -0.30603  -0.30159  -0.30032  -0.28000
 Alpha  occ. eigenvalues --   -0.27640  -0.27437  -0.27353  -0.27057  -0.26467
 Alpha  occ. eigenvalues --   -0.26372  -0.26228  -0.26206  -0.26081  -0.25952
 Alpha  occ. eigenvalues --   -0.25725  -0.25639  -0.25558  -0.25104  -0.24703
 Alpha  occ. eigenvalues --   -0.24284  -0.23895  -0.23818  -0.23508  -0.23358
 Alpha  occ. eigenvalues --   -0.23338  -0.23035  -0.22818  -0.22805  -0.22604
 Alpha  occ. eigenvalues --   -0.22322  -0.21851  -0.21839  -0.21511  -0.21192
 Alpha  occ. eigenvalues --   -0.20957  -0.20918  -0.20698  -0.20611  -0.20228
 Alpha  occ. eigenvalues --   -0.19724  -0.19472  -0.18894  -0.18298  -0.17587
 Alpha  occ. eigenvalues --   -0.13762  -0.13583  -0.11334
 Alpha virt. eigenvalues --   -0.10475  -0.10294  -0.04440  -0.03820  -0.02225
 Alpha virt. eigenvalues --   -0.01684  -0.00669  -0.00631   0.00190   0.00300
 Alpha virt. eigenvalues --    0.01049   0.01775   0.02035   0.02122   0.02408

 Mulliken charges:
               1
     1  C    0.052382
     2  C    0.008448
     3  O   -0.308083
     4  H    0.013992
     5  H    0.029780
     6  H   -0.013762
     7  N   -0.129930
     8  C    0.091607
     9  C    0.129544
    10  O   -0.291833
    11  C    0.064072
    12  C    0.060185
    13  O   -0.408672
    14  O   -0.353283
    15  H    0.109568
    16  H   -0.007483
    17  H   -0.014000
    18  H    0.012991
    19  N   -0.126973
    20  C    0.114480
    21  C    0.063424
    22  O   -0.239324
    23  C    0.059693
    24  C    0.008039
    25  C   -0.043730
    26  C    0.056439
    27  N    0.100372
    28  H    0.101314
    29  H   -0.001854
    30  H    0.027633
    31  H   -0.005190
    32  H   -0.039298
    33  H    0.035129
    34  H    0.052591
    35  H    0.008867
    36  H    0.087195
    37  H    0.066341
    38  H    0.160352
    39  H    0.174610
    40  H    0.158730
    41  N   -0.151258
    42  C    0.143741
    43  C    0.060753
    44  O   -0.312735
    45  C    0.073642
    46  C    0.096952
    47  O   -0.339216
    48  O   -0.426565
    49  H    0.101413
    50  H    0.017517
    51  H   -0.009053
    52  H   -0.032456
    53  N   -0.119111
    54  C    0.142910
    55  C    0.013571
    56  O   -0.259571
    57  H    0.129293
    58  H    0.031226
    59  H    0.077143
    60  N   -0.142573
    61  C    0.015096
    62  C    0.065508
    63  O   -0.255979
    64  C    0.181487
    65  C   -0.034292
    66  N   -0.040176
    67  O   -0.254050
    68  H    0.130391
    69  H    0.065624
    70  H   -0.026637
    71  H    0.025717
    72  H    0.113121
    73  H    0.131037
    74  N   -0.102058
    75  C    0.134456
    76  C    0.044647
    77  O   -0.249333
    78  H    0.114816
    79  H    0.065475
    80  H    0.059696
    81  N   -0.099374
    82  C    0.034311
    83  C    0.079063
    84  O   -0.255506
    85  C    0.193293
    86  C   -0.014539
    87  C    0.008129
    88  C   -0.037895
    89  C    0.001213
    90  C   -0.020091
    91  C    0.137154
    92  O   -0.206106
    93  H    0.111187
    94  H    0.007938
    95  H   -0.015860
    96  H    0.004683
    97  H   -0.019640
    98  H   -0.026328
    99  H   -0.015296
   100  H   -0.035619
   101  H    0.172398
   102  N   -0.140540
   103  C    0.126493
   104  C    0.077786
   105  O   -0.272995
   106  C   -0.070861
   107  C    0.011692
   108  C    0.042223
   109  C   -0.020252
   110  H    0.107608
   111  H    0.052369
   112  H    0.014779
   113  H   -0.004316
   114  H    0.006566
   115  H   -0.034614
   116  H   -0.020791
   117  H    0.011714
   118  H    0.042024
   119  H    0.042403
   120  H    0.007976
   121  N   -0.111519
   122  C    0.127107
   123  C    0.059765
   124  O   -0.299884
   125  C    0.203291
   126  O   -0.293104
   127  H    0.099499
   128  H    0.006750
   129  H   -0.004737
   130  H   -0.010602
   131  H    0.165779
   132  N   -0.111002
   133  C    0.085477
   134  C    0.061565
   135  O   -0.234956
   136  C    0.060557
   137  H    0.135752
   138  H    0.013471
   139  H    0.036291
   140  H    0.028679
   141  H   -0.015113
   142  N   -0.140442
   143  C    0.050459
   144  C    0.096704
   145  O   -0.253720
   146  C    0.072521
   147  H    0.101260
   148  H    0.010526
   149  H    0.042540
   150  H    0.021605
   151  H   -0.014629
   152  N   -0.153746
   153  C    0.093577
   154  C    0.037901
   155  O   -0.278208
   156  C    0.064065
   157  C    0.107465
   158  C    0.092126
   159  O   -0.417752
   160  O   -0.458263
   161  H    0.107516
   162  H    0.032546
   163  H    0.029962
   164  H   -0.036156
   165  H    0.035711
   166  H    0.050262
   167  N   -0.152512
   168  C    0.120714
   169  H    0.012152
   170  H    0.046852
   171  H    0.026245
   172  H    0.092179
   173  Ca   1.349667
   174  O   -0.312160
   175  H    0.176979
   176  H    0.216075
 Sum of Mulliken charges =  -0.00000

 Dipole moment (field-independent basis, Debye):
    X=            -12.2277    Y=            -25.5511    Z=             29.7355  Tot=             41.0679
 Quadrupole moment (field-independent basis, Debye-Ang):
   XX=           -557.5099   YY=           -260.5188   ZZ=           -472.8005
   XY=           -115.8700   XZ=            172.7245   YZ=            -68.1693

 ESP charges:
               1
     1  C   -0.489490
     2  C    0.711029
     3  O   -0.613239
     4  H    0.114815
     5  H    0.137319
     6  H    0.100945
     7  N   -0.534975
     8  C    0.412820
     9  C    0.598918
    10  O   -0.589768
    11  C   -0.439989
    12  C    0.770822
    13  O   -0.722956
    14  O   -0.664986
    15  H    0.262907
    16  H   -0.039066
    17  H    0.094400
    18  H    0.126552
    19  N   -0.771061
    20  C    0.528608
    21  C    0.546267
    22  O   -0.507224
    23  C   -0.501611
    24  C    0.123102
    25  C    0.075222
    26  C   -0.141165
    27  N   -0.149739
    28  H    0.342851
    29  H    0.004084
    30  H    0.161035
    31  H    0.100371
    32  H   -0.035522
    33  H    0.021459
    34  H    0.040852
    35  H    0.010878
    36  H    0.112740
    37  H    0.106526
    38  H    0.252816
    39  H    0.271077
    40  H    0.265861
    41  N   -0.836908
    42  C    0.726517
    43  C    0.450746
    44  O   -0.575707
    45  C   -0.661049
    46  C    0.883224
    47  O   -0.636916
    48  O   -0.785447
    49  H    0.319953
    50  H   -0.033918
    51  H    0.151720
    52  H    0.071448
    53  N   -0.866736
    54  C    0.859080
    55  C    0.192263
    56  O   -0.495619
    57  H    0.458306
    58  H   -0.097448
    59  H   -0.072100
    60  N   -0.321515
    61  C    0.115754
    62  C    0.599237
    63  O   -0.545479
    64  C   -0.353793
    65  C    0.708007
    66  N   -0.818957
    67  O   -0.564472
    68  H    0.285098
    69  H    0.064508
    70  H    0.072528
    71  H    0.126325
    72  H    0.359839
    73  H    0.388184
    74  N   -0.572814
    75  C   -0.128085
    76  C    0.558989
    77  O   -0.482314
    78  H    0.329007
    79  H    0.179518
    80  H    0.048531
    81  N   -0.640602
    82  C    0.321223
    83  C    0.637970
    84  O   -0.511026
    85  C   -0.338130
    86  C    0.146134
    87  C   -0.236053
    88  C   -0.156932
    89  C   -0.166795
    90  C   -0.317829
    91  C    0.341701
    92  O   -0.557086
    93  H    0.347852
    94  H    0.051021
    95  H    0.087992
    96  H    0.107905
    97  H    0.147102
    98  H    0.134037
    99  H    0.151715
   100  H    0.165560
   101  H    0.413668
   102  N   -0.807426
   103  C    0.222469
   104  C    0.684031
   105  O   -0.593207
   106  C   -0.147587
   107  C    0.344494
   108  C   -0.262298
   109  C   -0.404573
   110  H    0.334583
   111  H    0.063582
   112  H    0.028232
   113  H   -0.022684
   114  H   -0.061817
   115  H    0.034806
   116  H    0.041938
   117  H    0.082132
   118  H    0.130767
   119  H    0.120971
   120  H    0.093451
   121  N   -0.500608
   122  C    0.012312
   123  C    0.591986
   124  O   -0.573325
   125  C    0.283398
   126  O   -0.621522
   127  H    0.286590
   128  H    0.124788
   129  H   -0.012327
   130  H   -0.019115
   131  H    0.402522
   132  N   -0.663593
   133  C    0.480543
   134  C    0.524509
   135  O   -0.497848
   136  C   -0.458711
   137  H    0.319839
   138  H   -0.004101
   139  H    0.158281
   140  H    0.134019
   141  H    0.062039
   142  N   -0.489124
   143  C    0.279085
   144  C    0.512045
   145  O   -0.480549
   146  C   -0.308043
   147  H    0.234798
   148  H    0.032561
   149  H    0.137396
   150  H    0.060979
   151  H    0.065148
   152  N   -0.694990
   153  C    0.138071
   154  C    0.565565
   155  O   -0.530609
   156  C   -0.271630
   157  C   -0.015184
   158  C    0.733115
   159  O   -0.725459
   160  O   -0.791035
   161  H    0.206910
   162  H    0.112534
   163  H    0.102423
   164  H    0.111777
   165  H    0.035890
   166  H    0.096278
   167  N   -0.430627
   168  C   -0.098234
   169  H    0.058726
   170  H    0.106016
   171  H    0.072095
   172  H    0.328968
   173  Ca   1.582471
   174  O   -0.842456
   175  H    0.425449
   176  H    0.445684
 Sum of ESP charges =   0.00000

 Normal termination of Gaussian 16 at Wed Sep 18 17:26:33 2019.
