 Gaussian 16, Revision A.03,
 Gaussian 16:  ES64L-G16RevA.03 25-Dec-2016

 ----------------------------------------------------------------------
 #b3lyp/svp scf=(tight,noincore) Test #IOP(5/87=12) Density=Current Pop
 =(MK,readradii) iop(6/33=2) iop(6/42=6)
 ----------------------------------------------------------------------

 ----------------
 Ng-31_loop3_43.0
 ----------------
 Symbolic Z-matrix:
 Charge =  0 Multiplicity = 1

                         Standard orientation:
 ---------------------------------------------------------------------
 Center     Atomic      Atomic             Coordinates (Angstroms)
 Number     Number       Type             X           Y           Z
 ---------------------------------------------------------------------
      1          6           0        7.348596   -2.312194    5.030914
      2          6           0        6.229839   -1.741698    4.178731
      3          8           0        5.113670   -1.580634    4.667837
      4          1           0        7.018381   -3.247201    5.483578
      5          1           0        8.222374   -2.498893    4.407051
      6          1           0        7.607636   -1.600933    5.815721
      7          7           0        6.516738   -1.361123    2.928350
      8          6           0        5.595887   -0.664750    2.044723
      9          6           0        5.014878   -1.529849    0.941758
     10          8           0        4.071755   -1.103409    0.287566
     11          6           0        6.322322    0.585363    1.546215
     12          6           0        7.707476    0.427157    0.929675
     13          8           0        8.315240   -0.666680    0.923022
     14          8           0        8.249033    1.459235    0.480976
     15          1           0        7.401346   -1.627908    2.530361
     16          1           0        4.736882   -0.334231    2.630016
     17          1           0        6.270448    1.293115    2.373860
     18          1           0        5.671065    1.007902    0.779779
     19          7           0        5.566897   -2.739318    0.770115
     20          6           0        5.064282   -3.698313   -0.189888
     21          6           0        5.314732   -3.283243   -1.633353
     22          8           0        6.471171   -3.274800   -2.068185
     23          6           0        5.596605   -5.095678    0.098041
     24          6           0        5.223004   -5.800380    1.400622
     25          6           0        5.605439   -7.257780    1.624291
     26          6           0        5.452013   -7.626635    3.100165
     27          7           0        4.148677   -7.336128    3.718164
     28          1           0        6.343755   -3.030262    1.340065
     29          1           0        3.978077   -3.755850   -0.132888
     30          1           0        6.675836   -5.021727    0.177357
     31          1           0        5.249931   -5.814100   -0.647471
     32          1           0        4.160348   -5.598378    1.550818
     33          1           0        5.545731   -5.221143    2.265106
     34          1           0        6.637790   -7.384877    1.316073
     35          1           0        4.930846   -7.861840    1.015492
     36          1           0        6.122154   -7.150870    3.803413
     37          1           0        5.528278   -8.721300    3.090631
     38          1           0        3.488193   -7.587257    3.008168
     39          1           0        3.967650   -7.896924    4.544503
     40          1           0        4.004178   -6.358637    3.923183
     41          7           0        4.280026   -2.958350   -2.405446
     42          6           0        4.361076   -2.302626   -3.697289
     43          6           0        4.160635   -0.788967   -3.669734
     44          8           0        4.292998   -0.103044   -4.683090
     45          6           0        3.186138   -2.838258   -4.522588
     46          6           0        1.807507   -2.704700   -3.887341
     47          8           0        0.927716   -2.041331   -4.491996
     48          8           0        1.638641   -3.032115   -2.698945
     49          1           0        3.335834   -3.054062   -2.052685
     50          1           0        5.280242   -2.474942   -4.250138
     51          1           0        3.431516   -3.894210   -4.572148
     52          1           0        3.239025   -2.503528   -5.559341
     53          7           0        3.820443   -0.221765   -2.509798
     54          6           0        3.520525    1.147433   -2.172832
     55          6           0        4.777610    1.997931   -2.292367
     56          8           0        5.901075    1.566846   -2.557118
     57          1           0        3.776169   -0.887542   -1.751853
     58          1           0        3.166999    1.176293   -1.140220
     59          1           0        2.754262    1.607081   -2.802168
     60          7           0        4.726298    3.287335   -1.944078
     61          6           0        3.603392    4.081986   -1.505202
     62          6           0        4.088152    5.069900   -0.452760
     63          8           0        4.838477    6.014366   -0.688762
     64          6           0        3.158709    4.842346   -2.748507
     65          6           0        2.632240    4.018441   -3.928469
     66          7           0        1.392111    3.536960   -3.815089
     67          8           0        3.376962    3.825438   -4.886091
     68          1           0        5.636923    3.715673   -1.927066
     69          1           0        2.738927    3.459811   -1.269832
     70          1           0        3.894908    5.549141   -3.121671
     71          1           0        2.345831    5.465830   -2.392001
     72          1           0        0.806503    3.852944   -3.055604
     73          1           0        0.957187    2.925196   -4.485526
     74          7           0        3.804045    4.833108    0.831068
     75          6           0        3.305405    3.613300    1.434414
     76          6           0        1.818419    3.312278    1.288956
     77          8           0        1.455651    2.133813    1.284660
     78          1           0        4.286824    5.479395    1.444776
     79          1           0        3.548060    3.588373    2.492996
     80          1           0        3.920667    2.840854    0.993304
     81          7           0        0.974698    4.262490    0.889289
     82          6           0       -0.464109    4.156787    0.824013
     83          6           0       -0.837373    3.618222   -0.551931
     84          8           0       -0.275474    3.938348   -1.598301
     85          6           0       -1.095801    5.508742    1.179095
     86          6           0       -0.541153    6.282099    2.346778
     87          6           0       -0.314103    5.694767    3.599930
     88          6           0       -0.501565    7.680135    2.277291
     89          6           0        0.035488    6.442603    4.735988
     90          6           0       -0.202477    8.494404    3.374156
     91          6           0        0.054518    7.841927    4.605873
     92          8           0        0.480143    8.573736    5.672925
     93          1           0        1.317177    5.218173    0.917174
     94          1           0       -0.754196    3.458306    1.608534
     95          1           0       -2.118009    5.185587    1.376990
     96          1           0       -0.883243    6.171897    0.337641
     97          1           0       -0.373816    4.617831    3.645127
     98          1           0       -0.663483    8.161120    1.326378
     99          1           0        0.237549    5.831090    5.607838
    100          1           0       -0.144133    9.563742    3.340808
    101          1           0        0.404923    9.515203    5.533701
    102          7           0       -1.860249    2.772489   -0.427591
    103          6           0       -2.274020    1.643563   -1.241544
    104          6           0       -3.681925    1.775891   -1.800467
    105          8           0       -4.073172    1.162528   -2.787590
    106          6           0       -2.100104    0.301320   -0.520826
    107          6           0       -0.688758   -0.074512   -0.075456
    108          6           0       -2.888683    0.165457    0.777860
    109          6           0        0.397956    0.239771   -1.098676
    110          1           0       -2.270259    2.858693    0.491789
    111          1           0       -1.594648    1.593320   -2.089854
    112          1           0       -2.388779   -0.478390   -1.222979
    113          1           0       -0.676275   -1.158058    0.016045
    114          1           0       -0.460676    0.581625    0.768324
    115          1           0       -2.696656   -0.801953    1.243095
    116          1           0       -2.606295    0.916301    1.502974
    117          1           0       -3.966328    0.259010    0.704865
    118          1           0        1.328324   -0.258619   -0.812805
    119          1           0        0.138993   -0.137166   -2.087694
    120          1           0        0.659014    1.297240   -1.074008
    121          7           0       -4.436805    2.692527   -1.190194
    122          6           0       -5.785792    3.019213   -1.567035
    123          6           0       -6.691575    2.064486   -0.798560
    124          8           0       -6.382598    1.768470    0.355480
    125          6           0       -6.175599    4.455259   -1.222910
    126          8           0       -5.202469    5.395435   -1.638465
    127          1           0       -4.081178    3.125440   -0.348222
    128          1           0       -6.060574    2.846932   -2.612317
    129          1           0       -6.225278    4.541260   -0.135419
    130          1           0       -7.143913    4.778671   -1.608493
    131          1           0       -5.311746    6.161166   -1.067226
    132          7           0       -7.795939    1.623456   -1.411562
    133          6           0       -8.817429    0.768219   -0.845852
    134          6           0       -8.618502   -0.741495   -0.803534
    135          8           0       -7.694868   -1.255217   -1.422882
    136          6           0      -10.077895    1.080422   -1.652174
    137          1           0       -7.910940    1.938614   -2.362115
    138          1           0       -9.002220    1.157132    0.158638
    139          1           0      -10.033531    0.995348   -2.731245
    140          1           0      -10.936505    0.521743   -1.265695
    141          1           0      -10.355723    2.132809   -1.515813
    142          7           0       -9.502068   -1.456717   -0.106778
    143          6           0       -9.591096   -2.898657   -0.206195
    144          6           0       -8.436159   -3.732178    0.329589
    145          8           0       -8.408451   -4.957106    0.256229
    146          6           0      -10.130932   -3.321501   -1.569382
    147          1           0      -10.283957   -0.953418    0.294395
    148          1           0      -10.353547   -3.085581    0.556385
    149          1           0      -11.007842   -2.714442   -1.821588
    150          1           0       -9.384877   -3.238189   -2.366540
    151          1           0      -10.509321   -4.336390   -1.411510
    152          7           0       -7.484475   -3.140525    1.055293
    153          6           0       -6.416167   -3.870442    1.715019
    154          6           0       -6.229493   -3.663011    3.211523
    155          8           0       -5.887238   -4.623007    3.901427
    156          6           0       -5.149243   -3.528167    0.933130
    157          6           0       -4.043800   -4.534178    1.242866
    158          6           0       -2.913700   -4.356530    0.238319
    159          8           0       -1.887008   -3.781160    0.633101
    160          8           0       -2.997171   -4.806017   -0.928855
    161          1           0       -7.649587   -2.192174    1.357399
    162          1           0       -6.602002   -4.942411    1.596911
    163          1           0       -4.941895   -2.470556    1.078276
    164          1           0       -5.365683   -3.656235   -0.127696
    165          1           0       -4.478492   -5.515701    1.052719
    166          1           0       -3.747559   -4.248560    2.253591
    167          7           0       -6.704273   -2.553252    3.775457
    168          6           0       -6.494410   -2.332804    5.190151
    169          1           0       -7.234846   -2.896127    5.758637
    170          1           0       -5.494180   -2.666660    5.466386
    171          1           0       -6.597177   -1.270502    5.412181
    172          1           0       -6.885182   -1.750019    3.180908
    173         20           0       -0.053016   -4.255413   -1.168940
    174          8           0        1.688305   -6.042928   -2.046433
    175          1           0        2.280039   -6.105084   -2.794354
    176          1           0        1.660230   -6.918455   -1.682750
 ---------------------------------------------------------------------

 SCF Done:  E(RB3LYP) =  -5333.29248523     A.U. after   40 cycles

 The electronic state is 1-A.
 Alpha  occ. eigenvalues -- -145.49471 -19.25017 -19.17260 -19.14618 -19.12156
 Alpha  occ. eigenvalues --  -19.11316 -19.11251 -19.09863 -19.09777 -19.09688
 Alpha  occ. eigenvalues --  -19.09410 -19.09374 -19.08997 -19.08566 -19.08410
 Alpha  occ. eigenvalues --  -19.07991 -19.06839 -19.06791 -19.03480 -19.03401
 Alpha  occ. eigenvalues --  -19.02342 -19.02232 -18.98781 -18.97763 -15.55327
 Alpha  occ. eigenvalues --  -14.58264 -14.38297 -14.38041 -14.37264 -14.36930
 Alpha  occ. eigenvalues --  -14.36145 -14.35893 -14.35776 -14.35525 -14.34522
 Alpha  occ. eigenvalues --  -14.32564 -14.32213 -14.29457 -14.29309 -14.28844
 Alpha  occ. eigenvalues --  -12.68964 -12.68937 -12.68808 -10.36276 -10.30397
 Alpha  occ. eigenvalues --  -10.30117 -10.29911 -10.29742 -10.28854 -10.28735
 Alpha  occ. eigenvalues --  -10.28461 -10.27943 -10.27432 -10.27357 -10.26981
 Alpha  occ. eigenvalues --  -10.26916 -10.26511 -10.26393 -10.26199 -10.26128
 Alpha  occ. eigenvalues --  -10.25951 -10.25616 -10.25043 -10.24930 -10.24926
 Alpha  occ. eigenvalues --  -10.24730 -10.23733 -10.23242 -10.23239 -10.23032
 Alpha  occ. eigenvalues --  -10.22920 -10.22349 -10.22300 -10.21944 -10.21840
 Alpha  occ. eigenvalues --  -10.21748 -10.20926 -10.20923 -10.20744 -10.20713
 Alpha  occ. eigenvalues --  -10.20706 -10.20444 -10.19885 -10.19808 -10.19431
 Alpha  occ. eigenvalues --  -10.18619 -10.18439 -10.18011 -10.17938 -10.17907
 Alpha  occ. eigenvalues --  -10.17644 -10.16915 -10.16357 -10.15775 -10.14455
 Alpha  occ. eigenvalues --  -10.14210 -10.13304  -1.91831  -1.19505  -1.19361
 Alpha  occ. eigenvalues --   -1.18399  -1.14197  -1.11104  -1.06172  -1.05099
 Alpha  occ. eigenvalues --   -1.04603  -1.04268  -1.03879  -1.03396  -1.02965
 Alpha  occ. eigenvalues --   -1.02858  -1.02679  -1.02522  -1.01961  -1.01404
 Alpha  occ. eigenvalues --   -1.01298  -0.99948  -0.99725  -0.96426  -0.95875
 Alpha  occ. eigenvalues --   -0.95127  -0.95049  -0.95005  -0.94670  -0.93240
 Alpha  occ. eigenvalues --   -0.93203  -0.93096  -0.93027  -0.92690  -0.92172
 Alpha  occ. eigenvalues --   -0.91614  -0.90840  -0.90440  -0.90003  -0.89115
 Alpha  occ. eigenvalues --   -0.89050  -0.86891  -0.86527  -0.85097  -0.84587
 Alpha  occ. eigenvalues --   -0.83606  -0.82464  -0.82184  -0.81672  -0.80098
 Alpha  occ. eigenvalues --   -0.79702  -0.78329  -0.78259  -0.77048  -0.76095
 Alpha  occ. eigenvalues --   -0.75464  -0.75249  -0.75102  -0.73807  -0.73539
 Alpha  occ. eigenvalues --   -0.73486  -0.72997  -0.72723  -0.71804  -0.71181
 Alpha  occ. eigenvalues --   -0.70452  -0.70439  -0.70080  -0.68899  -0.68791
 Alpha  occ. eigenvalues --   -0.67225  -0.67063  -0.65777  -0.65248  -0.64834
 Alpha  occ. eigenvalues --   -0.64331  -0.63655  -0.63620  -0.62929  -0.62072
 Alpha  occ. eigenvalues --   -0.61726  -0.61536  -0.61110  -0.61102  -0.61063
 Alpha  occ. eigenvalues --   -0.60576  -0.59889  -0.59729  -0.59510  -0.59213
 Alpha  occ. eigenvalues --   -0.58893  -0.57795  -0.57729  -0.57589  -0.57105
 Alpha  occ. eigenvalues --   -0.56824  -0.56368  -0.56317  -0.55780  -0.55719
 Alpha  occ. eigenvalues --   -0.54921  -0.54483  -0.54261  -0.54187  -0.53216
 Alpha  occ. eigenvalues --   -0.52902  -0.52871  -0.52345  -0.52251  -0.52032
 Alpha  occ. eigenvalues --   -0.51851  -0.51697  -0.51237  -0.51148  -0.50927
 Alpha  occ. eigenvalues --   -0.50316  -0.50111  -0.49924  -0.49868  -0.49438
 Alpha  occ. eigenvalues --   -0.48908  -0.48581  -0.48481  -0.48415  -0.48200
 Alpha  occ. eigenvalues --   -0.48047  -0.47728  -0.47711  -0.47554  -0.47498
 Alpha  occ. eigenvalues --   -0.47069  -0.46500  -0.46462  -0.46182  -0.46025
 Alpha  occ. eigenvalues --   -0.45759  -0.45694  -0.45247  -0.45168  -0.44817
 Alpha  occ. eigenvalues --   -0.44627  -0.44435  -0.44212  -0.44040  -0.43930
 Alpha  occ. eigenvalues --   -0.43748  -0.43691  -0.43448  -0.43413  -0.43236
 Alpha  occ. eigenvalues --   -0.43109  -0.43027  -0.42892  -0.42625  -0.42538
 Alpha  occ. eigenvalues --   -0.42457  -0.42338  -0.42292  -0.42209  -0.41894
 Alpha  occ. eigenvalues --   -0.41818  -0.41560  -0.41397  -0.41345  -0.41223
 Alpha  occ. eigenvalues --   -0.41159  -0.41086  -0.40829  -0.40659  -0.40499
 Alpha  occ. eigenvalues --   -0.40279  -0.40187  -0.40110  -0.40044  -0.39963
 Alpha  occ. eigenvalues --   -0.39896  -0.39576  -0.39426  -0.38918  -0.38770
 Alpha  occ. eigenvalues --   -0.38611  -0.38514  -0.38384  -0.38302  -0.38222
 Alpha  occ. eigenvalues --   -0.38093  -0.38036  -0.37915  -0.37718  -0.37656
 Alpha  occ. eigenvalues --   -0.37556  -0.37241  -0.36854  -0.36747  -0.36681
 Alpha  occ. eigenvalues --   -0.36483  -0.36051  -0.35681  -0.35311  -0.35284
 Alpha  occ. eigenvalues --   -0.35157  -0.35064  -0.34977  -0.34891  -0.34603
 Alpha  occ. eigenvalues --   -0.34554  -0.34507  -0.34275  -0.34114  -0.34034
 Alpha  occ. eigenvalues --   -0.33616  -0.33545  -0.33375  -0.32934  -0.32744
 Alpha  occ. eigenvalues --   -0.32529  -0.32105  -0.30837  -0.30551  -0.30258
 Alpha  occ. eigenvalues --   -0.29602  -0.29388  -0.29225  -0.29208  -0.29173
 Alpha  occ. eigenvalues --   -0.28773  -0.28241  -0.27934  -0.27920  -0.27549
 Alpha  occ. eigenvalues --   -0.27305  -0.27129  -0.27115  -0.26785  -0.26737
 Alpha  occ. eigenvalues --   -0.26544  -0.26537  -0.26493  -0.26373  -0.25903
 Alpha  occ. eigenvalues --   -0.25208  -0.24826  -0.24741  -0.24360  -0.24190
 Alpha  occ. eigenvalues --   -0.24106  -0.23942  -0.23848  -0.23587  -0.23128
 Alpha  occ. eigenvalues --   -0.23058  -0.22551  -0.22268  -0.21640  -0.19888
 Alpha  occ. eigenvalues --   -0.19396  -0.19235  -0.18624  -0.18252  -0.17554
 Alpha  occ. eigenvalues --   -0.15982  -0.15199  -0.12763
 Alpha virt. eigenvalues --   -0.11648  -0.10390  -0.05698  -0.05066  -0.03674
 Alpha virt. eigenvalues --   -0.03385  -0.02120  -0.02090  -0.01547  -0.00771
 Alpha virt. eigenvalues --   -0.00651  -0.00368  -0.00327   0.00195   0.00338

 Mulliken charges:
               1
     1  C    0.079488
     2  C   -0.029526
     3  O   -0.313669
     4  H   -0.013297
     5  H    0.004521
     6  H    0.050607
     7  N   -0.150776
     8  C    0.134843
     9  C    0.098822
    10  O   -0.288038
    11  C    0.002217
    12  C    0.107351
    13  O   -0.374594
    14  O   -0.322021
    15  H    0.115542
    16  H    0.011578
    17  H   -0.004855
    18  H    0.035240
    19  N   -0.094366
    20  C    0.169259
    21  C    0.064372
    22  O   -0.267456
    23  C    0.050604
    24  C   -0.052518
    25  C    0.053786
    26  C    0.028923
    27  N    0.107843
    28  H    0.107737
    29  H   -0.074725
    30  H    0.040285
    31  H   -0.012226
    32  H   -0.062778
    33  H   -0.012202
    34  H    0.067061
    35  H    0.016274
    36  H    0.072259
    37  H    0.061716
    38  H    0.122053
    39  H    0.154730
    40  H    0.170592
    41  N   -0.138094
    42  C    0.100372
    43  C    0.071900
    44  O   -0.258684
    45  C    0.089881
    46  C    0.103351
    47  O   -0.317801
    48  O   -0.505274
    49  H    0.110828
    50  H    0.033366
    51  H   -0.053840
    52  H    0.030871
    53  N   -0.136332
    54  C    0.151060
    55  C    0.044984
    56  O   -0.244178
    57  H    0.125246
    58  H    0.030576
    59  H    0.035794
    60  N   -0.120365
    61  C    0.033718
    62  C    0.078107
    63  O   -0.253185
    64  C    0.128392
    65  C   -0.004858
    66  N   -0.062322
    67  O   -0.238747
    68  H    0.135537
    69  H    0.011635
    70  H    0.017197
    71  H   -0.039809
    72  H    0.112306
    73  H    0.125199
    74  N   -0.140943
    75  C    0.198139
    76  C    0.030978
    77  O   -0.280266
    78  H    0.124819
    79  H    0.038993
    80  H    0.051603
    81  N   -0.097197
    82  C   -0.040091
    83  C    0.155765
    84  O   -0.264449
    85  C    0.207278
    86  C   -0.048643
    87  C   -0.042012
    88  C   -0.015919
    89  C   -0.003035
    90  C   -0.000884
    91  C    0.165716
    92  O   -0.195668
    93  H    0.125135
    94  H    0.009108
    95  H   -0.000041
    96  H    0.007518
    97  H   -0.024570
    98  H   -0.022659
    99  H   -0.016266
   100  H   -0.039002
   101  H    0.172306
   102  N   -0.139832
   103  C    0.145374
   104  C    0.101631
   105  O   -0.253597
   106  C   -0.102273
   107  C    0.027968
   108  C    0.038025
   109  C   -0.026122
   110  H    0.124350
   111  H    0.032737
   112  H    0.008379
   113  H   -0.035103
   114  H    0.012811
   115  H    0.019373
   116  H   -0.032236
   117  H    0.015844
   118  H    0.009288
   119  H    0.028945
   120  H    0.022843
   121  N   -0.095428
   122  C    0.096323
   123  C    0.058382
   124  O   -0.298809
   125  C    0.240003
   126  O   -0.297781
   127  H    0.095669
   128  H    0.010535
   129  H   -0.022542
   130  H   -0.007462
   131  H    0.165754
   132  N   -0.095292
   133  C    0.100969
   134  C    0.084139
   135  O   -0.232394
   136  C    0.002093
   137  H    0.126235
   138  H    0.006904
   139  H    0.032344
   140  H    0.005201
   141  H    0.019171
   142  N   -0.164771
   143  C    0.060760
   144  C    0.084776
   145  O   -0.272750
   146  C    0.073399
   147  H    0.118612
   148  H    0.012504
   149  H   -0.008185
   150  H    0.053698
   151  H    0.034223
   152  N   -0.102743
   153  C    0.083681
   154  C    0.071762
   155  O   -0.280501
   156  C   -0.022490
   157  C    0.163015
   158  C    0.074499
   159  O   -0.449333
   160  O   -0.385617
   161  H    0.099914
   162  H    0.034853
   163  H   -0.008983
   164  H    0.032913
   165  H    0.004992
   166  H    0.001366
   167  N   -0.159604
   168  C    0.136185
   169  H    0.031463
   170  H    0.033144
   171  H    0.010277
   172  H    0.115276
   173  Ca   1.351231
   174  O   -0.306102
   175  H    0.210192
   176  H    0.168726
 Sum of Mulliken charges =  -0.00000

 Dipole moment (field-independent basis, Debye):
    X=            -23.2796    Y=            -25.0334    Z=             26.6409  Tot=             43.3399
 Quadrupole moment (field-independent basis, Debye-Ang):
   XX=           -645.2849   YY=           -264.9476   ZZ=           -605.4348
   XY=           -257.7623   XZ=            102.5574   YZ=            -23.8116

 ESP charges:
               1
     1  C   -0.455953
     2  C    0.718534
     3  O   -0.621720
     4  H    0.090227
     5  H    0.100104
     6  H    0.155003
     7  N   -0.597864
     8  C    0.330923
     9  C    0.384029
    10  O   -0.548770
    11  C   -0.242260
    12  C    0.728872
    13  O   -0.661654
    14  O   -0.615683
    15  H    0.281159
    16  H    0.030812
    17  H    0.055725
    18  H    0.049351
    19  N   -0.433571
    20  C    0.205640
    21  C    0.680872
    22  O   -0.545490
    23  C   -0.676622
    24  C    0.445645
    25  C   -0.163275
    26  C   -0.046051
    27  N   -0.099922
    28  H    0.290458
    29  H    0.060251
    30  H    0.196820
    31  H    0.132527
    32  H   -0.113527
    33  H   -0.074211
    34  H    0.104232
    35  H    0.058542
    36  H    0.092948
    37  H    0.082950
    38  H    0.193621
    39  H    0.239462
    40  H    0.244907
    41  N   -0.581038
    42  C    0.194802
    43  C    0.464724
    44  O   -0.518729
    45  C   -0.075150
    46  C    0.554380
    47  O   -0.578814
    48  O   -0.741091
    49  H    0.209514
    50  H    0.063580
    51  H   -0.003811
    52  H    0.050335
    53  N   -0.447318
    54  C    0.303920
    55  C    0.541724
    56  O   -0.505327
    57  H    0.301136
    58  H   -0.009262
    59  H    0.018792
    60  N   -0.598733
    61  C    0.384088
    62  C    0.515570
    63  O   -0.528337
    64  C   -0.363296
    65  C    0.731151
    66  N   -0.861696
    67  O   -0.547577
    68  H    0.338131
    69  H   -0.035040
    70  H    0.105203
    71  H    0.033232
    72  H    0.358869
    73  H    0.391416
    74  N   -0.483384
    75  C    0.079825
    76  C    0.342757
    77  O   -0.492660
    78  H    0.296449
    79  H    0.103705
    80  H    0.030100
    81  N   -0.376686
    82  C    0.501096
    83  C    0.297105
    84  O   -0.430030
    85  C   -0.601723
    86  C    0.338036
    87  C   -0.317919
    88  C   -0.198946
    89  C   -0.189943
    90  C   -0.303830
    91  C    0.346872
    92  O   -0.540292
    93  H    0.180077
    94  H   -0.005198
    95  H    0.142432
    96  H    0.151058
    97  H    0.170492
    98  H    0.146682
    99  H    0.165156
   100  H    0.164592
   101  H    0.411803
   102  N   -0.311655
   103  C   -0.245342
   104  C    0.673085
   105  O   -0.566803
   106  C    0.266474
   107  C   -0.197316
   108  C   -0.478861
   109  C   -0.033403
   110  H    0.269638
   111  H    0.170247
   112  H    0.006174
   113  H    0.043221
   114  H    0.054532
   115  H    0.152383
   116  H    0.073910
   117  H    0.139009
   118  H    0.048564
   119  H    0.020743
   120  H   -0.002547
   121  N   -0.444745
   122  C    0.217902
   123  C    0.504851
   124  O   -0.541271
   125  C    0.244036
   126  O   -0.624182
   127  H    0.224538
   128  H    0.046363
   129  H   -0.020214
   130  H   -0.013514
   131  H    0.402325
   132  N   -0.656846
   133  C    0.362673
   134  C    0.622087
   135  O   -0.511042
   136  C   -0.359492
   137  H    0.327500
   138  H    0.007394
   139  H    0.122329
   140  H    0.073230
   141  H    0.089946
   142  N   -0.794016
   143  C    0.442164
   144  C    0.424609
   145  O   -0.513437
   146  C   -0.341707
   147  H    0.354819
   148  H    0.020203
   149  H    0.088076
   150  H    0.130796
   151  H    0.065700
   152  N   -0.454613
   153  C   -0.033669
   154  C    0.596294
   155  O   -0.549692
   156  C    0.434260
   157  C   -0.510126
   158  C    0.815393
   159  O   -0.795874
   160  O   -0.730841
   161  H    0.194050
   162  H    0.103749
   163  H   -0.128502
   164  H    0.020235
   165  H    0.120565
   166  H    0.108048
   167  N   -0.385454
   168  C   -0.219049
   169  H    0.120188
   170  H    0.110981
   171  H    0.098513
   172  H    0.309663
   173  Ca   1.570809
   174  O   -0.843157
   175  H    0.451770
   176  H    0.413319
 Sum of ESP charges =   0.00000

 Normal termination of Gaussian 16 at Wed Sep 18 19:36:34 2019.
