 Gaussian 16, Revision A.03,
 Gaussian 16:  ES64L-G16RevA.03 25-Dec-2016

 ----------------------------------------------------------------------
 #b3lyp/svp scf=(tight,noincore,xqc) Test #IOP(5/87=12) Density=Current
  Pop=(MK,readradii) iop(6/33=2) iop(6/42=6)
 ----------------------------------------------------------------------

 ----------------
 Ng-31_loop3_24.0
 ----------------
 Symbolic Z-matrix:
 Charge =  0 Multiplicity = 1

                         Standard orientation:
 ---------------------------------------------------------------------
 Center     Atomic      Atomic             Coordinates (Angstroms)
 Number     Number       Type             X           Y           Z
 ---------------------------------------------------------------------
      1          6           0       -2.191728    5.635568    4.896091
      2          6           0       -2.388861    4.571827    3.824833
      3          8           0       -1.743054    3.529102    3.882783
      4          1           0       -1.163003    5.995887    4.864444
      5          1           0       -2.872683    6.466391    4.713275
      6          1           0       -2.395627    5.206172    5.876715
      7          7           0       -3.327713    4.706020    2.885126
      8          6           0       -3.471811    3.816105    1.750055
      9          6           0       -2.309564    4.014261    0.786045
     10          8           0       -1.899364    3.002666    0.212711
     11          6           0       -4.842219    3.919566    1.085693
     12          6           0       -5.300095    5.342158    0.783237
     13          8           0       -5.471513    5.756191   -0.384578
     14          8           0       -5.471140    6.132837    1.729266
     15          1           0       -3.908654    5.530058    2.835428
     16          1           0       -3.416271    2.790034    2.102467
     17          1           0       -5.594438    3.463948    1.734599
     18          1           0       -4.713883    3.381477    0.152853
     19          7           0       -1.789759    5.219498    0.586531
     20          6           0       -0.559762    5.384605   -0.162032
     21          6           0       -0.737913    5.156850   -1.646650
     22          8           0       -1.661060    5.728504   -2.216922
     23          6           0       -0.107690    6.813986    0.100268
     24          6           0        0.382804    7.138696    1.505252
     25          6           0        0.748554    8.612281    1.642274
     26          6           0        1.081927    8.791966    3.117121
     27          7           0        1.852941   10.029082    3.302546
     28          1           0       -2.127655    6.044552    1.076951
     29          1           0        0.249635    4.717601    0.144861
     30          1           0       -0.880433    7.523131   -0.189871
     31          1           0        0.714014    7.037033   -0.593168
     32          1           0        1.291238    6.539387    1.640072
     33          1           0       -0.409515    6.849199    2.194107
     34          1           0       -0.063200    9.264039    1.301293
     35          1           0        1.656858    8.828703    1.098358
     36          1           0        1.750109    8.011191    3.469999
     37          1           0        0.181713    8.727225    3.739315
     38          1           0        2.810369    9.945018    3.001107
     39          1           0        1.389640   10.814426    2.865984
     40          1           0        1.908067   10.397568    4.248685
     41          7           0        0.153846    4.405814   -2.299421
     42          6           0       -0.155461    3.870982   -3.620021
     43          6           0       -1.011464    2.613275   -3.549803
     44          8           0       -1.161146    1.909891   -4.544965
     45          6           0        1.148569    3.675926   -4.388629
     46          6           0        2.415325    3.049593   -3.811796
     47          8           0        2.883258    1.964039   -4.229899
     48          8           0        3.045631    3.647791   -2.923104
     49          1           0        0.988354    4.072061   -1.841158
     50          1           0       -0.661065    4.661108   -4.179007
     51          1           0        1.400446    4.635960   -4.823707
     52          1           0        0.880611    3.169980   -5.317239
     53          7           0       -1.648206    2.313915   -2.418457
     54          6           0       -2.702602    1.326084   -2.252808
     55          6           0       -3.905938    1.475871   -3.172398
     56          8           0       -4.061836    2.568690   -3.717872
     57          1           0       -1.505288    2.913904   -1.625937
     58          1           0       -3.059774    1.442454   -1.232864
     59          1           0       -2.256215    0.351747   -2.414071
     60          7           0       -4.739277    0.465894   -3.428701
     61          6           0       -4.882245   -0.821584   -2.784294
     62          6           0       -6.358833   -1.032452   -2.473451
     63          8           0       -7.121757   -1.144383   -3.429651
     64          6           0       -4.426220   -1.958412   -3.692018
     65          6           0       -4.472635   -3.351213   -3.083453
     66          7           0       -3.355316   -4.079057   -3.040534
     67          8           0       -5.471449   -3.826692   -2.549422
     68          1           0       -5.543940    0.763980   -3.964017
     69          1           0       -4.236702   -1.033105   -1.927595
     70          1           0       -3.414334   -1.775988   -4.060676
     71          1           0       -5.080455   -1.948145   -4.566644
     72          1           0       -2.535486   -3.675279   -3.486115
     73          1           0       -3.224965   -4.953455   -2.552849
     74          7           0       -6.911218   -1.031029   -1.256583
     75          6           0       -6.337104   -0.499798   -0.040694
     76          6           0       -5.380013   -1.404476    0.731921
     77          8           0       -4.897425   -1.029613    1.795258
     78          1           0       -7.873386   -1.351283   -1.211083
     79          1           0       -7.129535   -0.225628    0.657148
     80          1           0       -5.902324    0.450005   -0.354767
     81          7           0       -5.100495   -2.622717    0.265917
     82          6           0       -3.981438   -3.428636    0.710335
     83          6           0       -2.647947   -2.803195    0.344241
     84          8           0       -2.453445   -2.321501   -0.767667
     85          6           0       -4.021728   -4.915275    0.383562
     86          6           0       -4.896818   -5.672066    1.360487
     87          6           0       -4.336467   -6.740267    2.069397
     88          6           0       -6.208486   -5.250296    1.629254
     89          6           0       -5.045438   -7.417065    3.060661
     90          6           0       -6.961757   -5.925251    2.593421
     91          6           0       -6.389545   -7.038039    3.239313
     92          8           0       -7.180386   -7.842601    4.008825
     93          1           0       -5.688247   -2.884254   -0.518140
     94          1           0       -4.079625   -3.401129    1.799051
     95          1           0       -3.091903   -5.479709    0.389828
     96          1           0       -4.361735   -5.127766   -0.636116
     97          1           0       -3.312543   -7.026487    1.874313
     98          1           0       -6.630164   -4.519933    0.947448
     99          1           0       -4.716962   -8.294742    3.600650
    100          1           0       -8.034722   -5.806978    2.661663
    101          1           0       -8.058269   -7.532623    4.206652
    102          7           0       -1.675064   -2.878425    1.258156
    103          6           0       -0.358219   -2.352601    0.964170
    104          6           0        0.543628   -3.392177    0.304810
    105          8           0        0.530967   -4.554963    0.696686
    106          6           0        0.420049   -1.815516    2.160388
    107          6           0       -0.469379   -0.745369    2.805215
    108          6           0        0.909753   -2.749978    3.248538
    109          6           0        0.068598    0.053096    3.995020
    110          1           0       -1.933953   -3.275530    2.148933
    111          1           0       -0.450603   -1.457422    0.353088
    112          1           0        1.255256   -1.316347    1.674013
    113          1           0       -1.389094   -1.190598    3.167700
    114          1           0       -0.661384    0.076290    2.119496
    115          1           0        1.467595   -3.626049    2.900670
    116          1           0        1.327298   -2.175530    4.077493
    117          1           0        0.037503   -3.208362    3.713366
    118          1           0        0.104916   -0.516748    4.919173
    119          1           0        0.998191    0.520446    3.680630
    120          1           0       -0.631488    0.848436    4.230420
    121          7           0        1.149324   -2.947665   -0.795436
    122          6           0        2.064539   -3.755808   -1.582701
    123          6           0        3.376499   -3.923006   -0.827118
    124          8           0        3.537214   -3.724560    0.381390
    125          6           0        1.463735   -5.097205   -1.979677
    126          8           0        0.301152   -4.994004   -2.769772
    127          1           0        1.017490   -1.975463   -1.030471
    128          1           0        2.352463   -3.133282   -2.435498
    129          1           0        1.402234   -5.800480   -1.144559
    130          1           0        2.115261   -5.542800   -2.731913
    131          1           0       -0.264082   -5.739675   -2.564381
    132          7           0        4.322562   -4.495992   -1.575015
    133          6           0        5.650488   -4.822404   -1.092554
    134          6           0        6.532704   -3.593936   -0.919753
    135          8           0        6.601502   -2.642774   -1.701967
    136          6           0        6.321020   -5.830826   -2.028541
    137          1           0        4.133925   -4.535011   -2.568340
    138          1           0        5.656584   -5.204006   -0.080357
    139          1           0        6.212499   -5.499125   -3.061206
    140          1           0        7.374181   -5.941856   -1.761290
    141          1           0        5.932844   -6.837186   -1.883078
    142          7           0        7.329364   -3.738898    0.137280
    143          6           0        8.364467   -2.851710    0.631100
    144          6           0        7.814506   -1.513298    1.111928
    145          8           0        8.205337   -0.410364    0.717736
    146          6           0        9.622204   -2.839233   -0.235931
    147          1           0        7.058258   -4.572782    0.649276
    148          1           0        8.699719   -3.321815    1.545708
    149          1           0        9.681958   -3.778724   -0.785009
    150          1           0        9.423253   -2.114172   -1.027577
    151          1           0       10.517418   -2.669319    0.356624
    152          7           0        6.764133   -1.556818    1.925698
    153          6           0        5.824786   -0.533139    2.313137
    154          6           0        5.477554   -0.463669    3.793408
    155          8           0        5.382320    0.628059    4.329654
    156          6           0        4.548616   -0.575834    1.470007
    157          6           0        3.813862    0.762447    1.400425
    158          6           0        4.446290    1.695724    0.367213
    159          8           0        4.168932    1.476718   -0.832833
    160          8           0        5.152060    2.652312    0.732491
    161          1           0        6.695941   -2.484307    2.324715
    162          1           0        6.420128    0.379325    2.195343
    163          1           0        3.877381   -1.320916    1.881950
    164          1           0        4.804019   -0.857100    0.442847
    165          1           0        3.742773    1.265127    2.362745
    166          1           0        2.824115    0.422831    1.113263
    167          7           0        5.311062   -1.599121    4.482922
    168          6           0        5.462369   -1.739626    5.919956
    169          1           0        6.424413   -1.328653    6.225522
    170          1           0        4.661066   -1.200123    6.425223
    171          1           0        5.416523   -2.794593    6.189629
    172          1           0        5.308685   -2.457252    3.948689
    173         20           0        5.338523    1.958459   -3.003750
    174          8           0        6.589634    0.644037   -4.858046
    175          1           0        6.433408    0.508466   -5.792826
    176          1           0        7.255265   -0.006207   -4.624981
 ---------------------------------------------------------------------

 SCF Done:  E(RB3LYP) =  -5333.27167641     A.U. after   33 cycles
 SCF Done:  E(RB3LYP) =  -5333.31737500     a.u. after    8 cycles

 The electronic state is 1-A.
 Alpha  occ. eigenvalues -- -145.47038 -19.25275 -19.14546 -19.13801 -19.12372
 Alpha  occ. eigenvalues --  -19.11661 -19.09686 -19.08349 -19.08329 -19.08097
 Alpha  occ. eigenvalues --  -19.07149 -19.06924 -19.06669 -19.06550 -19.05283
 Alpha  occ. eigenvalues --  -19.05181 -19.04879 -19.04731 -19.04611 -19.03226
 Alpha  occ. eigenvalues --  -19.02857 -19.02441 -18.96780 -18.95894 -15.52951
 Alpha  occ. eigenvalues --  -14.56483 -14.38661 -14.38052 -14.35643 -14.35197
 Alpha  occ. eigenvalues --  -14.34957 -14.33908 -14.33457 -14.33368 -14.33028
 Alpha  occ. eigenvalues --  -14.32835 -14.31373 -14.31357 -14.29746 -14.28198
 Alpha  occ. eigenvalues --  -12.66567 -12.66517 -12.66459 -10.33473 -10.30600
 Alpha  occ. eigenvalues --  -10.29946 -10.28956 -10.27096 -10.26653 -10.26617
 Alpha  occ. eigenvalues --  -10.26477 -10.26451 -10.26319 -10.26284 -10.25838
 Alpha  occ. eigenvalues --  -10.25726 -10.24920 -10.24884 -10.24471 -10.24184
 Alpha  occ. eigenvalues --  -10.24154 -10.24152 -10.23774 -10.22848 -10.22696
 Alpha  occ. eigenvalues --  -10.22620 -10.22504 -10.22468 -10.21857 -10.21801
 Alpha  occ. eigenvalues --  -10.21618 -10.21513 -10.21345 -10.21246 -10.20832
 Alpha  occ. eigenvalues --  -10.20436 -10.19810 -10.19210 -10.18224 -10.17906
 Alpha  occ. eigenvalues --  -10.17801 -10.17779 -10.17697 -10.17535 -10.17489
 Alpha  occ. eigenvalues --  -10.17483 -10.17287 -10.17075 -10.16839 -10.16718
 Alpha  occ. eigenvalues --  -10.16014 -10.15282 -10.14800 -10.14307 -10.14098
 Alpha  occ. eigenvalues --  -10.13428 -10.11749  -1.89560  -1.17113  -1.16681
 Alpha  occ. eigenvalues --   -1.16335  -1.12064  -1.10911  -1.05318  -1.04126
 Alpha  occ. eigenvalues --   -1.03276  -1.02754  -1.02275  -1.01653  -1.01646
 Alpha  occ. eigenvalues --   -1.00921  -1.00621  -1.00309  -1.00176  -1.00124
 Alpha  occ. eigenvalues --   -0.99722  -0.98595  -0.98044  -0.97915  -0.97023
 Alpha  occ. eigenvalues --   -0.95688  -0.95681  -0.94567  -0.92458  -0.91895
 Alpha  occ. eigenvalues --   -0.91548  -0.90974  -0.90421  -0.90338  -0.90313
 Alpha  occ. eigenvalues --   -0.89094  -0.88980  -0.88218  -0.88062  -0.87974
 Alpha  occ. eigenvalues --   -0.87962  -0.87392  -0.86711  -0.84619  -0.83692
 Alpha  occ. eigenvalues --   -0.82812  -0.80580  -0.80395  -0.80024  -0.79236
 Alpha  occ. eigenvalues --   -0.77503  -0.77371  -0.76502  -0.75464  -0.75393
 Alpha  occ. eigenvalues --   -0.73440  -0.73220  -0.72906  -0.72567  -0.72077
 Alpha  occ. eigenvalues --   -0.71964  -0.71065  -0.70130  -0.70101  -0.69602
 Alpha  occ. eigenvalues --   -0.69270  -0.68989  -0.68339  -0.68057  -0.66912
 Alpha  occ. eigenvalues --   -0.66563  -0.65851  -0.65360  -0.64185  -0.64177
 Alpha  occ. eigenvalues --   -0.62767  -0.62450  -0.62137  -0.61311  -0.61230
 Alpha  occ. eigenvalues --   -0.60363  -0.60325  -0.59389  -0.59288  -0.58909
 Alpha  occ. eigenvalues --   -0.58474  -0.58265  -0.57926  -0.57691  -0.57653
 Alpha  occ. eigenvalues --   -0.57519  -0.57378  -0.56563  -0.55731  -0.55582
 Alpha  occ. eigenvalues --   -0.55300  -0.55092  -0.55075  -0.54484  -0.54337
 Alpha  occ. eigenvalues --   -0.53669  -0.53491  -0.53168  -0.52700  -0.52501
 Alpha  occ. eigenvalues --   -0.51888  -0.51594  -0.51258  -0.51161  -0.50732
 Alpha  occ. eigenvalues --   -0.50262  -0.50171  -0.49840  -0.49815  -0.49337
 Alpha  occ. eigenvalues --   -0.49063  -0.48644  -0.48257  -0.48173  -0.47824
 Alpha  occ. eigenvalues --   -0.47515  -0.47377  -0.47345  -0.47064  -0.46747
 Alpha  occ. eigenvalues --   -0.46656  -0.46442  -0.46204  -0.46065  -0.45872
 Alpha  occ. eigenvalues --   -0.45555  -0.44643  -0.44571  -0.44487  -0.44361
 Alpha  occ. eigenvalues --   -0.44115  -0.43930  -0.43819  -0.43689  -0.43632
 Alpha  occ. eigenvalues --   -0.43486  -0.43219  -0.43125  -0.42954  -0.42835
 Alpha  occ. eigenvalues --   -0.42723  -0.42663  -0.42386  -0.42353  -0.42027
 Alpha  occ. eigenvalues --   -0.41977  -0.41929  -0.41807  -0.41516  -0.41456
 Alpha  occ. eigenvalues --   -0.41247  -0.40974  -0.40955  -0.40734  -0.40510
 Alpha  occ. eigenvalues --   -0.40126  -0.40039  -0.39988  -0.39816  -0.39702
 Alpha  occ. eigenvalues --   -0.39597  -0.39383  -0.39347  -0.39308  -0.39280
 Alpha  occ. eigenvalues --   -0.39214  -0.38899  -0.38789  -0.38616  -0.38408
 Alpha  occ. eigenvalues --   -0.38331  -0.38217  -0.38051  -0.37959  -0.37902
 Alpha  occ. eigenvalues --   -0.37595  -0.37391  -0.37353  -0.37282  -0.36850
 Alpha  occ. eigenvalues --   -0.36706  -0.36620  -0.36501  -0.36442  -0.36172
 Alpha  occ. eigenvalues --   -0.35553  -0.35536  -0.35368  -0.35097  -0.34994
 Alpha  occ. eigenvalues --   -0.34899  -0.34867  -0.34577  -0.34462  -0.34345
 Alpha  occ. eigenvalues --   -0.34126  -0.33994  -0.33662  -0.33498  -0.33188
 Alpha  occ. eigenvalues --   -0.33145  -0.32964  -0.32803  -0.32505  -0.32477
 Alpha  occ. eigenvalues --   -0.32346  -0.32224  -0.31725  -0.31555  -0.31422
 Alpha  occ. eigenvalues --   -0.31312  -0.31017  -0.30840  -0.30192  -0.29997
 Alpha  occ. eigenvalues --   -0.29824  -0.29695  -0.28407  -0.28072  -0.27694
 Alpha  occ. eigenvalues --   -0.27477  -0.27101  -0.26903  -0.26790  -0.26059
 Alpha  occ. eigenvalues --   -0.25494  -0.25282  -0.25206  -0.25140  -0.24814
 Alpha  occ. eigenvalues --   -0.24783  -0.24651  -0.24312  -0.24097  -0.23877
 Alpha  occ. eigenvalues --   -0.23629  -0.23132  -0.23090  -0.23047  -0.22914
 Alpha  occ. eigenvalues --   -0.22682  -0.22551  -0.21751  -0.21313  -0.21160
 Alpha  occ. eigenvalues --   -0.20972  -0.20818  -0.20701  -0.20565  -0.20336
 Alpha  occ. eigenvalues --   -0.19973  -0.19878  -0.18855  -0.18273  -0.18078
 Alpha  occ. eigenvalues --   -0.14339  -0.13755  -0.10760
 Alpha virt. eigenvalues --   -0.09908  -0.09620  -0.03735  -0.02937  -0.02861
 Alpha virt. eigenvalues --   -0.01931  -0.00718  -0.00525  -0.00281   0.00209
 Alpha virt. eigenvalues --    0.00837   0.01324   0.01491   0.01769   0.02418

 Mulliken charges:
               1
     1  C    0.073492
     2  C   -0.010036
     3  O   -0.298530
     4  H   -0.004898
     5  H   -0.001533
     6  H    0.039978
     7  N   -0.132371
     8  C    0.106831
     9  C    0.107770
    10  O   -0.309645
    11  C    0.112460
    12  C    0.000777
    13  O   -0.317927
    14  O   -0.388222
    15  H    0.099038
    16  H    0.013618
    17  H    0.005421
    18  H   -0.005636
    19  N   -0.088366
    20  C    0.177938
    21  C    0.035639
    22  O   -0.247872
    23  C   -0.034568
    24  C    0.007491
    25  C   -0.012160
    26  C    0.043422
    27  N    0.119055
    28  H    0.129683
    29  H   -0.012591
    30  H    0.023915
    31  H   -0.001564
    32  H    0.030472
    33  H    0.016896
    34  H    0.045893
    35  H    0.006345
    36  H    0.059979
    37  H    0.085690
    38  H    0.150969
    39  H    0.147130
    40  H    0.135308
    41  N   -0.166203
    42  C    0.121969
    43  C    0.074449
    44  O   -0.289049
    45  C    0.118902
    46  C    0.090367
    47  O   -0.432460
    48  O   -0.412853
    49  H    0.128665
    50  H    0.036893
    51  H   -0.019635
    52  H    0.000539
    53  N   -0.111054
    54  C    0.191387
    55  C    0.002276
    56  O   -0.253650
    57  H    0.122658
    58  H    0.037049
    59  H    0.012815
    60  N   -0.078882
    61  C    0.008586
    62  C    0.070010
    63  O   -0.275904
    64  C    0.163799
    65  C    0.003937
    66  N   -0.026666
    67  O   -0.303532
    68  H    0.130635
    69  H    0.033388
    70  H   -0.005013
    71  H    0.026550
    72  H    0.118791
    73  H    0.111833
    74  N   -0.137801
    75  C    0.176542
    76  C    0.022831
    77  O   -0.279641
    78  H    0.130149
    79  H    0.039811
    80  H    0.061379
    81  N   -0.147787
    82  C    0.120206
    83  C    0.088489
    84  O   -0.293899
    85  C    0.180792
    86  C   -0.084550
    87  C   -0.013134
    88  C    0.019064
    89  C   -0.003961
    90  C   -0.009119
    91  C    0.132751
    92  O   -0.212388
    93  H    0.149023
    94  H    0.007750
    95  H   -0.019751
    96  H    0.015566
    97  H   -0.030293
    98  H   -0.032487
    99  H   -0.026167
   100  H   -0.037365
   101  H    0.169229
   102  N   -0.108294
   103  C    0.125204
   104  C    0.118727
   105  O   -0.305086
   106  C   -0.097586
   107  C   -0.006233
   108  C    0.096259
   109  C    0.029044
   110  H    0.128515
   111  H    0.003074
   112  H   -0.018130
   113  H   -0.010181
   114  H    0.020724
   115  H    0.022594
   116  H    0.006177
   117  H   -0.035169
   118  H   -0.011632
   119  H    0.007041
   120  H    0.029586
   121  N   -0.103678
   122  C    0.085470
   123  C    0.077117
   124  O   -0.264090
   125  C    0.254074
   126  O   -0.312544
   127  H    0.139561
   128  H    0.012520
   129  H    0.032977
   130  H   -0.042848
   131  H    0.168616
   132  N   -0.112135
   133  C    0.075903
   134  C    0.072528
   135  O   -0.301565
   136  C    0.068152
   137  H    0.122183
   138  H   -0.016561
   139  H    0.023853
   140  H    0.009001
   141  H    0.035340
   142  N   -0.130825
   143  C    0.048425
   144  C    0.054306
   145  O   -0.270062
   146  C    0.095151
   147  H    0.118569
   148  H    0.001133
   149  H   -0.004696
   150  H    0.023435
   151  H    0.030543
   152  N   -0.107937
   153  C    0.102159
   154  C    0.035933
   155  O   -0.246240
   156  C    0.025786
   157  C    0.109001
   158  C    0.078158
   159  O   -0.482368
   160  O   -0.347856
   161  H    0.072299
   162  H    0.039082
   163  H    0.001189
   164  H   -0.000583
   165  H    0.012644
   166  H   -0.010630
   167  N   -0.157515
   168  C    0.134311
   169  H    0.023408
   170  H    0.043304
   171  H    0.011737
   172  H    0.106834
   173  Ca   1.360858
   174  O   -0.335199
   175  H    0.214461
   176  H    0.207552
 Sum of Mulliken charges =  -0.00000

 Dipole moment (field-independent basis, Debye):
    X=             39.4744    Y=              4.5766    Z=              6.6973  Tot=             40.2993
 Quadrupole moment (field-independent basis, Debye-Ang):
   XX=           -528.9304   YY=           -266.4081   ZZ=           -519.1121
   XY=            112.0416   XZ=            -98.8691   YZ=            119.3741

 ESP charges:
               1
     1  C   -0.387482
     2  C    0.713533
     3  O   -0.636353
     4  H    0.061557
     5  H    0.085885
     6  H    0.125597
     7  N   -0.468755
     8  C    0.193589
     9  C    0.751411
    10  O   -0.609162
    11  C   -0.334032
    12  C    0.723728
    13  O   -0.633842
    14  O   -0.688791
    15  H    0.211056
    16  H    0.041806
    17  H    0.098324
    18  H    0.062465
    19  N   -0.643626
    20  C   -0.014858
    21  C    0.699220
    22  O   -0.525716
    23  C   -0.019265
    24  C    0.134448
    25  C   -0.080446
    26  C    0.199633
    27  N   -0.392971
    28  H    0.363809
    29  H    0.066707
    30  H    0.043690
    31  H    0.002505
    32  H    0.016038
    33  H   -0.060862
    34  H    0.045684
    35  H    0.019228
    36  H    0.033217
    37  H    0.054891
    38  H    0.312719
    39  H    0.277593
    40  H    0.281936
    41  N   -0.807936
    42  C    0.393438
    43  C    0.441196
    44  O   -0.549662
    45  C   -0.133605
    46  C    0.748995
    47  O   -0.760795
    48  O   -0.791581
    49  H    0.420085
    50  H    0.037263
    51  H    0.030395
    52  H    0.011396
    53  N   -0.466144
    54  C    0.252138
    55  C    0.587914
    56  O   -0.529541
    57  H    0.264177
    58  H    0.002856
    59  H    0.006919
    60  N   -0.718252
    61  C    0.746232
    62  C    0.290197
    63  O   -0.524409
    64  C   -0.462620
    65  C    0.771747
    66  N   -0.826588
    67  O   -0.577867
    68  H    0.345699
    69  H   -0.152780
    70  H    0.114877
    71  H    0.104697
    72  H    0.348653
    73  H    0.373212
    74  N   -0.279072
    75  C   -0.173636
    76  C    0.519431
    77  O   -0.544412
    78  H    0.277225
    79  H    0.127300
    80  H    0.092690
    81  N   -0.318529
    82  C   -0.087675
    83  C    0.761115
    84  O   -0.550064
    85  C   -0.018251
    86  C   -0.046599
    87  C   -0.125318
    88  C   -0.016409
    89  C   -0.296065
    90  C   -0.378862
    91  C    0.442477
    92  O   -0.592555
    93  H    0.200845
    94  H    0.092044
    95  H    0.040963
    96  H    0.054808
    97  H    0.125292
    98  H    0.112731
    99  H    0.170005
   100  H    0.152183
   101  H    0.423081
   102  N   -0.703375
   103  C   -0.207267
   104  C    0.811283
   105  O   -0.561288
   106  C    0.358384
   107  C    0.178367
   108  C   -0.379050
   109  C   -0.366880
   110  H    0.354859
   111  H    0.082399
   112  H   -0.056244
   113  H   -0.008143
   114  H   -0.011109
   115  H    0.086376
   116  H    0.071218
   117  H    0.080236
   118  H    0.071273
   119  H    0.072020
   120  H    0.128711
   121  N   -0.813896
   122  C    0.548141
   123  C    0.429352
   124  O   -0.493838
   125  C    0.166834
   126  O   -0.622833
   127  H    0.389405
   128  H   -0.018463
   129  H    0.025989
   130  H   -0.023548
   131  H    0.410919
   132  N   -0.715897
   133  C    0.328047
   134  C    0.498313
   135  O   -0.527505
   136  C   -0.314095
   137  H    0.320540
   138  H    0.044335
   139  H    0.108440
   140  H    0.063376
   141  H    0.098958
   142  N   -0.445569
   143  C    0.274001
   144  C    0.502862
   145  O   -0.524406
   146  C   -0.495125
   147  H    0.239337
   148  H    0.040478
   149  H    0.135270
   150  H    0.134249
   151  H    0.140993
   152  N   -0.482948
   153  C    0.056935
   154  C    0.592660
   155  O   -0.523895
   156  C    0.035361
   157  C   -0.261085
   158  C    0.853771
   159  O   -0.843288
   160  O   -0.713378
   161  H    0.176965
   162  H    0.088042
   163  H   -0.044543
   164  H    0.053635
   165  H    0.071171
   166  H    0.072271
   167  N   -0.383526
   168  C   -0.217225
   169  H    0.103578
   170  H    0.119821
   171  H    0.103772
   172  H    0.300216
   173  Ca   1.599964
   174  O   -0.826047
   175  H    0.441830
   176  H    0.440353
 Sum of ESP charges =   0.00000

 Normal termination of Gaussian 16 at Thu Sep 19 18:16:36 2019.
