 Gaussian 16, Revision A.03,
 Gaussian 16:  ES64L-G16RevA.03 25-Dec-2016

 ----------------------------------------------------------------------
 #b3lyp/svp scf=(tight,noincore) Test #IOP(5/87=12) Density=Current Pop
 =(MK,readradii) iop(6/33=2) iop(6/42=6)
 ----------------------------------------------------------------------

 ----------------
 Ng-31_loop3_14.0
 ----------------
 Symbolic Z-matrix:
 Charge =  0 Multiplicity = 1

                         Standard orientation:
 ---------------------------------------------------------------------
 Center     Atomic      Atomic             Coordinates (Angstroms)
 Number     Number       Type             X           Y           Z
 ---------------------------------------------------------------------
      1          6           0        9.180769    0.467487    4.404598
      2          6           0        7.906483    0.662184    3.598692
      3          8           0        6.809993    0.785177    4.130748
      4          1           0       10.001832    0.219564    3.731097
      5          1           0        9.416095    1.386779    4.940456
      6          1           0        9.039755   -0.343718    5.118171
      7          7           0        8.028649    0.639594    2.266188
      8          6           0        6.910272    0.833819    1.366516
      9          6           0        6.205799   -0.405096    0.815691
     10          8           0        5.125648   -0.250805    0.258137
     11          6           0        7.273580    1.671641    0.143749
     12          6           0        8.481000    1.312524   -0.707117
     13          8           0        9.426553    0.790151   -0.082492
     14          8           0        8.570129    1.746391   -1.883559
     15          1           0        8.961046    0.619197    1.879899
     16          1           0        6.165572    1.417771    1.906351
     17          1           0        7.594610    2.677086    0.438912
     18          1           0        6.354387    1.736440   -0.435806
     19          7           0        6.791534   -1.597243    0.941386
     20          6           0        6.098087   -2.852976    0.721462
     21          6           0        5.800216   -3.003210   -0.764911
     22          8           0        6.589672   -2.668413   -1.632764
     23          6           0        6.933934   -3.960532    1.351128
     24          6           0        6.616418   -4.234201    2.823164
     25          6           0        7.513527   -5.310963    3.421226
     26          6           0        7.353726   -5.462460    4.931992
     27          7           0        6.165070   -6.246717    5.262049
     28          1           0        7.673304   -1.642140    1.429817
     29          1           0        5.139519   -2.878082    1.246835
     30          1           0        7.988746   -3.732903    1.196997
     31          1           0        6.787175   -4.928737    0.879491
     32          1           0        5.578244   -4.546146    2.914733
     33          1           0        6.631414   -3.262799    3.317788
     34          1           0        8.515899   -4.932381    3.223932
     35          1           0        7.334347   -6.211665    2.819620
     36          1           0        7.351427   -4.448034    5.343250
     37          1           0        8.307261   -5.920288    5.188826
     38          1           0        5.976767   -6.109149    6.242976
     39          1           0        5.423274   -5.896049    4.672074
     40          1           0        6.186131   -7.239508    5.072781
     41          7           0        4.619015   -3.582964   -1.012195
     42          6           0        4.063853   -3.597234   -2.352229
     43          6           0        3.425578   -2.317306   -2.873945
     44          8           0        2.676609   -2.288704   -3.851763
     45          6           0        3.061831   -4.758551   -2.413827
     46          6           0        1.958826   -4.635443   -1.375354
     47          8           0        2.200681   -5.052577   -0.218156
     48          8           0        0.907454   -4.027904   -1.656979
     49          1           0        4.054275   -3.968297   -0.267422
     50          1           0        4.889836   -3.928710   -2.978947
     51          1           0        3.505562   -5.720262   -2.155340
     52          1           0        2.569424   -4.888665   -3.378039
     53          7           0        3.603592   -1.267502   -2.069195
     54          6           0        3.206572    0.095291   -2.381080
     55          6           0        4.053693    0.857136   -3.382369
     56          8           0        4.903256    0.213853   -4.004566
     57          1           0        4.151636   -1.363385   -1.233161
     58          1           0        3.163019    0.634818   -1.439851
     59          1           0        2.188346    0.047812   -2.755729
     60          7           0        3.714753    2.095311   -3.744227
     61          6           0        2.662336    2.977682   -3.269634
     62          6           0        3.153629    4.377176   -2.940775
     63          8           0        3.296468    5.184427   -3.861288
     64          6           0        1.617010    3.052858   -4.377850
     65          6           0        1.070834    1.702937   -4.828078
     66          7           0        1.588695    1.075690   -5.887787
     67          8           0        0.112546    1.218770   -4.224202
     68          1           0        4.390499    2.506868   -4.365346
     69          1           0        2.093240    2.554761   -2.440196
     70          1           0        2.093781    3.470574   -5.261593
     71          1           0        0.809517    3.603297   -3.897463
     72          1           0        2.350114    1.597291   -6.311548
     73          1           0        1.538444    0.093523   -6.078369
     74          7           0        3.236900    4.791842   -1.672857
     75          6           0        3.341412    3.984496   -0.478634
     76          6           0        1.995400    3.503742    0.038305
     77          8           0        1.890138    2.365652    0.506784
     78          1           0        3.494891    5.749805   -1.536664
     79          1           0        3.885260    4.443366    0.351889
     80          1           0        3.851471    3.051361   -0.696576
     81          7           0        0.969936    4.361148    0.066187
     82          6           0       -0.353177    4.031604    0.562850
     83          6           0       -0.929304    2.968645   -0.355625
     84          8           0       -0.759426    2.867427   -1.564673
     85          6           0       -1.058718    5.383471    0.620011
     86          6           0       -0.649009    6.280362    1.769196
     87          6           0       -0.759942    5.869857    3.100165
     88          6           0       -0.235580    7.589724    1.485916
     89          6           0       -0.444016    6.728162    4.156528
     90          6           0        0.291777    8.376719    2.515592
     91          6           0        0.114606    7.993776    3.858933
     92          8           0        0.620476    8.799562    4.836791
     93          1           0        1.122881    5.314652   -0.220757
     94          1           0       -0.153895    3.648096    1.562704
     95          1           0       -2.098404    5.131364    0.820746
     96          1           0       -0.934726    5.851216   -0.348255
     97          1           0       -1.058191    4.853528    3.306861
     98          1           0       -0.160001    7.914169    0.464533
     99          1           0       -0.459008    6.318540    5.158568
    100          1           0        0.688537    9.359308    2.321427
    101          1           0        0.981534    9.618949    4.499830
    102          7           0       -1.869861    2.269600    0.288416
    103          6           0       -2.471384    1.035148   -0.181902
    104          6           0       -3.921482    1.146488   -0.644091
    105          8           0       -4.442724    0.339089   -1.409672
    106          6           0       -2.323244   -0.061499    0.871957
    107          6           0       -0.893760   -0.497754    1.195927
    108          6           0       -3.081677    0.312878    2.136560
    109          6           0       -0.032477   -0.942963    0.017376
    110          1           0       -2.053196    2.622667    1.219991
    111          1           0       -2.015083    0.761491   -1.130322
    112          1           0       -2.708086   -1.000558    0.467154
    113          1           0       -0.881345   -1.346771    1.876747
    114          1           0       -0.378632    0.330047    1.697412
    115          1           0       -2.581530    1.103833    2.696509
    116          1           0       -4.092957    0.648175    1.892044
    117          1           0       -3.177862   -0.598217    2.729903
    118          1           0        0.903445   -1.353195    0.397191
    119          1           0       -0.561109   -1.699551   -0.545317
    120          1           0        0.184271   -0.075001   -0.618441
    121          7           0       -4.601656    2.234515   -0.291727
    122          6           0       -5.856405    2.642113   -0.893448
    123          6           0       -7.008256    1.921775   -0.217761
    124          8           0       -7.099851    1.890837    1.001604
    125          6           0       -5.932783    4.161463   -0.750824
    126          8           0       -6.837941    4.649599   -1.713379
    127          1           0       -4.088680    2.838286    0.341690
    128          1           0       -5.868143    2.429968   -1.970925
    129          1           0       -4.942146    4.596668   -0.918860
    130          1           0       -6.121521    4.470885    0.273303
    131          1           0       -6.714219    5.583441   -1.943232
    132          7           0       -7.711878    1.160718   -1.060736
    133          6           0       -8.975490    0.602703   -0.617560
    134          6           0       -8.884623   -0.919861   -0.659289
    135          8           0       -8.285217   -1.523238   -1.537668
    136          6           0      -10.106759    1.046053   -1.543125
    137          1           0       -7.433792    1.156812   -2.028493
    138          1           0       -9.304255    1.016827    0.328915
    139          1           0      -10.057657    0.488846   -2.471839
    140          1           0      -10.976084    0.640902   -1.018886
    141          1           0      -10.281944    2.111527   -1.686217
    142          7           0       -9.636383   -1.459767    0.309606
    143          6           0       -9.696560   -2.853775    0.676239
    144          6           0       -8.320155   -3.422946    0.979809
    145          8           0       -8.048883   -4.536741    0.540636
    146          6           0      -10.502877   -3.561926   -0.406016
    147          1           0      -10.072954   -0.841777    0.992611
    148          1           0      -10.235775   -2.910608    1.626038
    149          1           0      -10.539223   -4.631385   -0.230693
    150          1           0      -11.529301   -3.288950   -0.180546
    151          1           0      -10.129904   -3.309275   -1.404995
    152          7           0       -7.529839   -2.639621    1.711931
    153          6           0       -6.251690   -3.129804    2.202602
    154          6           0       -5.924194   -2.658729    3.609703
    155          8           0       -5.582983   -3.547145    4.392706
    156          6           0       -5.144218   -2.803618    1.205552
    157          6           0       -3.900708   -3.681399    1.355828
    158          6           0       -3.138693   -3.904321    0.055891
    159          8           0       -3.759153   -4.003665   -1.015818
    160          8           0       -1.884716   -3.868675    0.021661
    161          1           0       -7.900818   -1.741953    2.009867
    162          1           0       -6.293996   -4.208905    2.319005
    163          1           0       -4.805639   -1.783829    1.425308
    164          1           0       -5.629217   -2.921986    0.238667
    165          1           0       -4.039092   -4.668780    1.796202
    166          1           0       -3.197880   -3.174163    2.016392
    167          7           0       -6.227231   -1.436139    4.064832
    168          6           0       -6.221178   -1.125833    5.483237
    169          1           0       -7.245094   -1.109676    5.855377
    170          1           0       -5.651695   -1.884917    6.019333
    171          1           0       -5.762767   -0.149077    5.640211
    172          1           0       -6.603506   -0.744312    3.443148
    173         20           0       -1.459524   -3.931636   -2.556894
    174          8           0       -0.409016   -5.585848   -4.296698
    175          1           0       -1.211111   -5.882918   -4.720246
    176          1           0        0.020511   -6.393140   -3.997554
 ---------------------------------------------------------------------

 SCF Done:  E(RB3LYP) =  -5333.33020209     A.U. after   34 cycles

 The electronic state is 1-A.
 Alpha  occ. eigenvalues -- -145.46484 -19.23284 -19.17162 -19.14440 -19.10822
 Alpha  occ. eigenvalues --  -19.10156 -19.09824 -19.08899 -19.08763 -19.08658
 Alpha  occ. eigenvalues --  -19.08515 -19.08348 -19.06623 -19.06603 -19.05788
 Alpha  occ. eigenvalues --  -19.05623 -19.05465 -19.04895 -19.04364 -19.04224
 Alpha  occ. eigenvalues --  -19.03914 -19.02050 -18.95844 -18.94997 -15.52369
 Alpha  occ. eigenvalues --  -14.57754 -14.36904 -14.35859 -14.35834 -14.35684
 Alpha  occ. eigenvalues --  -14.35487 -14.35444 -14.35370 -14.35092 -14.32769
 Alpha  occ. eigenvalues --  -14.32092 -14.31985 -14.31312 -14.29800 -14.29120
 Alpha  occ. eigenvalues --  -12.66003 -12.65930 -12.65876 -10.34499 -10.29072
 Alpha  occ. eigenvalues --  -10.28291 -10.28219 -10.27551 -10.27430 -10.27422
 Alpha  occ. eigenvalues --  -10.27357 -10.27289 -10.27063 -10.26613 -10.25033
 Alpha  occ. eigenvalues --  -10.24967 -10.24865 -10.24599 -10.24480 -10.24051
 Alpha  occ. eigenvalues --  -10.24003 -10.23970 -10.23683 -10.23657 -10.23480
 Alpha  occ. eigenvalues --  -10.23447 -10.22991 -10.22531 -10.22387 -10.22371
 Alpha  occ. eigenvalues --  -10.22225 -10.22095 -10.21894 -10.21574 -10.21553
 Alpha  occ. eigenvalues --  -10.21293 -10.20729 -10.20695 -10.20635 -10.20378
 Alpha  occ. eigenvalues --  -10.20278 -10.19618 -10.19130 -10.17869 -10.17564
 Alpha  occ. eigenvalues --  -10.17517 -10.17381 -10.17222 -10.16880 -10.16534
 Alpha  occ. eigenvalues --  -10.16509 -10.16104 -10.15267 -10.15123 -10.14359
 Alpha  occ. eigenvalues --  -10.13548 -10.10539  -1.88986  -1.16710  -1.16051
 Alpha  occ. eigenvalues --   -1.15743  -1.13260  -1.09212  -1.05862  -1.03983
 Alpha  occ. eigenvalues --   -1.03334  -1.03045  -1.02094  -1.02011  -1.01960
 Alpha  occ. eigenvalues --   -1.01712  -1.01380  -1.01292  -1.01165  -1.00140
 Alpha  occ. eigenvalues --   -0.98797  -0.98371  -0.98071  -0.97683  -0.97405
 Alpha  occ. eigenvalues --   -0.96313  -0.94243  -0.93124  -0.92813  -0.92541
 Alpha  occ. eigenvalues --   -0.92140  -0.91590  -0.91418  -0.91123  -0.90225
 Alpha  occ. eigenvalues --   -0.90193  -0.89910  -0.88962  -0.88816  -0.88492
 Alpha  occ. eigenvalues --   -0.87537  -0.86723  -0.86624  -0.86405  -0.85385
 Alpha  occ. eigenvalues --   -0.81548  -0.81124  -0.80248  -0.80013  -0.79438
 Alpha  occ. eigenvalues --   -0.78157  -0.76866  -0.76119  -0.75883  -0.75654
 Alpha  occ. eigenvalues --   -0.75411  -0.74785  -0.73763  -0.73111  -0.72307
 Alpha  occ. eigenvalues --   -0.72180  -0.71781  -0.71540  -0.71244  -0.70151
 Alpha  occ. eigenvalues --   -0.69179  -0.68786  -0.68573  -0.67440  -0.67352
 Alpha  occ. eigenvalues --   -0.66735  -0.66299  -0.65996  -0.63664  -0.63516
 Alpha  occ. eigenvalues --   -0.63293  -0.62574  -0.62337  -0.61856  -0.61675
 Alpha  occ. eigenvalues --   -0.61488  -0.60668  -0.60334  -0.59904  -0.59633
 Alpha  occ. eigenvalues --   -0.59456  -0.59160  -0.58801  -0.58668  -0.58376
 Alpha  occ. eigenvalues --   -0.58336  -0.57336  -0.56575  -0.56391  -0.56271
 Alpha  occ. eigenvalues --   -0.55747  -0.55594  -0.55336  -0.54351  -0.53994
 Alpha  occ. eigenvalues --   -0.53777  -0.53719  -0.53219  -0.52628  -0.52499
 Alpha  occ. eigenvalues --   -0.52211  -0.52172  -0.51692  -0.51142  -0.50721
 Alpha  occ. eigenvalues --   -0.50714  -0.50551  -0.50308  -0.49625  -0.49467
 Alpha  occ. eigenvalues --   -0.49111  -0.48928  -0.48876  -0.48799  -0.48674
 Alpha  occ. eigenvalues --   -0.48144  -0.47842  -0.47798  -0.47708  -0.47155
 Alpha  occ. eigenvalues --   -0.46866  -0.46714  -0.46175  -0.45931  -0.45668
 Alpha  occ. eigenvalues --   -0.45641  -0.45477  -0.45321  -0.44726  -0.44466
 Alpha  occ. eigenvalues --   -0.44208  -0.44191  -0.44005  -0.43826  -0.43502
 Alpha  occ. eigenvalues --   -0.43408  -0.43237  -0.43043  -0.42943  -0.42718
 Alpha  occ. eigenvalues --   -0.42610  -0.42489  -0.42385  -0.42320  -0.42027
 Alpha  occ. eigenvalues --   -0.41969  -0.41831  -0.41674  -0.41612  -0.41364
 Alpha  occ. eigenvalues --   -0.41190  -0.41068  -0.40995  -0.40834  -0.40697
 Alpha  occ. eigenvalues --   -0.40679  -0.40517  -0.40259  -0.40118  -0.40013
 Alpha  occ. eigenvalues --   -0.39818  -0.39567  -0.39298  -0.39248  -0.39165
 Alpha  occ. eigenvalues --   -0.39093  -0.38870  -0.38842  -0.38771  -0.38717
 Alpha  occ. eigenvalues --   -0.38659  -0.38550  -0.38445  -0.38380  -0.38190
 Alpha  occ. eigenvalues --   -0.38038  -0.37790  -0.37581  -0.37552  -0.37476
 Alpha  occ. eigenvalues --   -0.37285  -0.37182  -0.36985  -0.36756  -0.36478
 Alpha  occ. eigenvalues --   -0.36281  -0.36217  -0.35892  -0.35768  -0.35692
 Alpha  occ. eigenvalues --   -0.35540  -0.35452  -0.35393  -0.35156  -0.35018
 Alpha  occ. eigenvalues --   -0.34928  -0.34837  -0.34518  -0.34448  -0.34404
 Alpha  occ. eigenvalues --   -0.34097  -0.33894  -0.33423  -0.33291  -0.32979
 Alpha  occ. eigenvalues --   -0.32679  -0.32373  -0.32294  -0.32021  -0.31620
 Alpha  occ. eigenvalues --   -0.31199  -0.31032  -0.30762  -0.30369  -0.30245
 Alpha  occ. eigenvalues --   -0.29700  -0.28951  -0.28345  -0.27841  -0.27355
 Alpha  occ. eigenvalues --   -0.27249  -0.26961  -0.26894  -0.26875  -0.26759
 Alpha  occ. eigenvalues --   -0.26429  -0.25586  -0.25485  -0.25363  -0.25162
 Alpha  occ. eigenvalues --   -0.24974  -0.24954  -0.24850  -0.24214  -0.24103
 Alpha  occ. eigenvalues --   -0.23922  -0.23884  -0.23752  -0.23555  -0.23529
 Alpha  occ. eigenvalues --   -0.23511  -0.23329  -0.23034  -0.21750  -0.21428
 Alpha  occ. eigenvalues --   -0.21218  -0.21108  -0.21093  -0.21030  -0.20724
 Alpha  occ. eigenvalues --   -0.20486  -0.20232  -0.19603  -0.18808  -0.18014
 Alpha  occ. eigenvalues --   -0.12907  -0.12718  -0.10796
 Alpha virt. eigenvalues --   -0.09803  -0.09097  -0.04445  -0.03311  -0.03114
 Alpha virt. eigenvalues --   -0.02247  -0.01680  -0.01006  -0.00058   0.00336
 Alpha virt. eigenvalues --    0.00969   0.01017   0.01286   0.01438   0.01840

 Mulliken charges:
               1
     1  C    0.073369
     2  C   -0.021282
     3  O   -0.306987
     4  H    0.006210
     5  H    0.035890
     6  H   -0.003357
     7  N   -0.134425
     8  C    0.158963
     9  C    0.097188
    10  O   -0.291671
    11  C   -0.012298
    12  C    0.082911
    13  O   -0.403926
    14  O   -0.356971
    15  H    0.112669
    16  H    0.002666
    17  H   -0.002757
    18  H    0.001047
    19  N   -0.083381
    20  C    0.111150
    21  C    0.063165
    22  O   -0.222089
    23  C    0.040086
    24  C   -0.045077
    25  C   -0.070654
    26  C    0.061976
    27  N    0.120797
    28  H    0.107580
    29  H   -0.007428
    30  H    0.024834
    31  H   -0.001677
    32  H   -0.007117
    33  H    0.027314
    34  H    0.049681
    35  H    0.033661
    36  H    0.085814
    37  H    0.074994
    38  H    0.165175
    39  H    0.169191
    40  H    0.158313
    41  N   -0.188908
    42  C    0.118973
    43  C    0.126917
    44  O   -0.307192
    45  C    0.085836
    46  C    0.084923
    47  O   -0.377002
    48  O   -0.466295
    49  H    0.110502
    50  H    0.026509
    51  H   -0.028495
    52  H   -0.031352
    53  N   -0.131357
    54  C    0.149183
    55  C    0.029817
    56  O   -0.248299
    57  H    0.131598
    58  H    0.032922
    59  H    0.034029
    60  N   -0.132178
    61  C   -0.005143
    62  C    0.105514
    63  O   -0.266382
    64  C    0.162297
    65  C   -0.030222
    66  N   -0.028555
    67  O   -0.276172
    68  H    0.125618
    69  H    0.057976
    70  H   -0.008494
    71  H    0.013900
    72  H    0.109858
    73  H    0.131419
    74  N   -0.116097
    75  C    0.186922
    76  C    0.017414
    77  O   -0.273562
    78  H    0.117242
    79  H    0.057599
    80  H    0.058064
    81  N   -0.123758
    82  C    0.037671
    83  C    0.110097
    84  O   -0.231289
    85  C    0.166615
    86  C   -0.022491
    87  C   -0.010794
    88  C   -0.008443
    89  C   -0.007988
    90  C   -0.027614
    91  C    0.160588
    92  O   -0.194773
    93  H    0.101404
    94  H    0.018196
    95  H   -0.012686
    96  H    0.005500
    97  H   -0.032440
    98  H   -0.029272
    99  H   -0.012683
   100  H   -0.036731
   101  H    0.175290
   102  N   -0.163333
   103  C    0.151678
   104  C    0.055432
   105  O   -0.275132
   106  C   -0.109551
   107  C    0.015684
   108  C    0.045451
   109  C    0.046063
   110  H    0.117955
   111  H    0.039533
   112  H    0.016288
   113  H    0.005833
   114  H   -0.015029
   115  H   -0.012084
   116  H    0.010324
   117  H    0.017056
   118  H    0.030883
   119  H   -0.037122
   120  H    0.035156
   121  N   -0.116888
   122  C    0.096103
   123  C    0.108584
   124  O   -0.297654
   125  C    0.223024
   126  O   -0.322595
   127  H    0.098254
   128  H    0.008424
   129  H   -0.010684
   130  H   -0.008045
   131  H    0.177761
   132  N   -0.094785
   133  C    0.033071
   134  C    0.109984
   135  O   -0.243180
   136  C    0.081609
   137  H    0.135751
   138  H   -0.002039
   139  H    0.015948
   140  H   -0.014202
   141  H    0.034842
   142  N   -0.155124
   143  C    0.023021
   144  C    0.084787
   145  O   -0.251325
   146  C    0.108034
   147  H    0.121056
   148  H    0.008139
   149  H    0.012504
   150  H   -0.021491
   151  H    0.049796
   152  N   -0.130748
   153  C    0.086218
   154  C    0.060534
   155  O   -0.283126
   156  C    0.076764
   157  C    0.076486
   158  C    0.077589
   159  O   -0.409606
   160  O   -0.409971
   161  H    0.094806
   162  H    0.023046
   163  H   -0.018060
   164  H    0.046247
   165  H    0.021427
   166  H    0.000338
   167  N   -0.167437
   168  C    0.122545
   169  H    0.016497
   170  H    0.052820
   171  H    0.019998
   172  H    0.115951
   173  Ca   1.384602
   174  O   -0.287252
   175  H    0.175363
   176  H    0.209927
 Sum of Mulliken charges =  -0.00000

 Dipole moment (field-independent basis, Debye):
    X=            -13.1805    Y=            -15.0916    Z=             20.1660  Tot=             28.4279
 Quadrupole moment (field-independent basis, Debye-Ang):
   XX=           -626.0055   YY=           -336.5978   ZZ=           -457.3715
   XY=           -202.2054   XZ=            185.2713   YZ=            -51.4113

 ESP charges:
               1
     1  C   -0.517464
     2  C    0.701992
     3  O   -0.614549
     4  H    0.111657
     5  H    0.149724
     6  H    0.117852
     7  N   -0.455508
     8  C    0.080486
     9  C    0.536418
    10  O   -0.549973
    11  C   -0.235898
    12  C    0.790868
    13  O   -0.737953
    14  O   -0.668133
    15  H    0.299116
    16  H    0.071644
    17  H    0.059048
    18  H    0.019879
    19  N   -0.477081
    20  C    0.217022
    21  C    0.611566
    22  O   -0.515565
    23  C   -0.367654
    24  C    0.324629
    25  C   -0.171239
    26  C    0.030322
    27  N   -0.434810
    28  H    0.246509
    29  H    0.022854
    30  H    0.131011
    31  H    0.063526
    32  H   -0.053437
    33  H   -0.050369
    34  H    0.076364
    35  H    0.065406
    36  H    0.097971
    37  H    0.088136
    38  H    0.325033
    39  H    0.325221
    40  H    0.341326
    41  N   -0.549742
    42  C    0.132213
    43  C    0.526204
    44  O   -0.592563
    45  C   -0.252066
    46  C    0.743134
    47  O   -0.662213
    48  O   -0.816159
    49  H    0.287691
    50  H    0.079026
    51  H    0.041153
    52  H    0.062094
    53  N   -0.490197
    54  C    0.413236
    55  C    0.566965
    56  O   -0.532912
    57  H    0.266620
    58  H   -0.051173
    59  H   -0.037853
    60  N   -0.700278
    61  C    0.483539
    62  C    0.531283
    63  O   -0.547620
    64  C   -0.426117
    65  C    0.789224
    66  N   -0.896844
    67  O   -0.567659
    68  H    0.332644
    69  H   -0.014014
    70  H    0.091373
    71  H    0.089379
    72  H    0.368062
    73  H    0.426499
    74  N   -0.549317
    75  C    0.049199
    76  C    0.510702
    77  O   -0.487196
    78  H    0.327537
    79  H    0.093660
    80  H    0.048593
    81  N   -0.577870
    82  C    0.200822
    83  C    0.578974
    84  O   -0.468156
    85  C   -0.363848
    86  C    0.201164
    87  C   -0.186639
    88  C   -0.209907
    89  C   -0.240252
    90  C   -0.269393
    91  C    0.356862
    92  O   -0.541937
    93  H    0.293839
    94  H    0.078213
    95  H    0.076151
    96  H    0.132606
    97  H    0.122595
    98  H    0.153263
    99  H    0.173057
   100  H    0.138467
   101  H    0.412006
   102  N   -0.523650
   103  C   -0.276516
   104  C    0.786283
   105  O   -0.608225
   106  C    0.135744
   107  C    0.005554
   108  C   -0.437147
   109  C   -0.227664
   110  H    0.307039
   111  H    0.162253
   112  H    0.016477
   113  H    0.054868
   114  H   -0.012203
   115  H    0.109432
   116  H    0.083297
   117  H    0.114206
   118  H    0.116956
   119  H    0.117775
   120  H    0.039935
   121  N   -0.487508
   122  C   -0.053072
   123  C    0.795338
   124  O   -0.635221
   125  C    0.263863
   126  O   -0.673309
   127  H    0.276225
   128  H    0.115958
   129  H   -0.002166
   130  H   -0.001006
   131  H    0.429168
   132  N   -0.774409
   133  C    0.429016
   134  C    0.558387
   135  O   -0.477827
   136  C   -0.260590
   137  H    0.364171
   138  H   -0.008448
   139  H    0.066796
   140  H    0.021409
   141  H    0.094459
   142  N   -0.644742
   143  C    0.402171
   144  C    0.384877
   145  O   -0.477586
   146  C   -0.403502
   147  H    0.307232
   148  H    0.010039
   149  H    0.099448
   150  H    0.080922
   151  H    0.146611
   152  N   -0.444009
   153  C    0.149391
   154  C    0.513508
   155  O   -0.553689
   156  C   -0.284773
   157  C    0.161296
   158  C    0.666066
   159  O   -0.778275
   160  O   -0.767822
   161  H    0.169209
   162  H    0.071285
   163  H    0.034652
   164  H    0.193479
   165  H   -0.006196
   166  H   -0.018887
   167  N   -0.310476
   168  C   -0.168123
   169  H    0.075380
   170  H    0.125644
   171  H    0.071922
   172  H    0.306925
   173  Ca   1.624570
   174  O   -0.715571
   175  H    0.379741
   176  H    0.391558
 Sum of ESP charges =   0.00000

 Normal termination of Gaussian 16 at Wed Sep 18 14:30:14 2019.
