 Gaussian 16, Revision A.03,
 Gaussian 16:  ES64L-G16RevA.03 25-Dec-2016

 ----------------------------------------------------------------------
 #b3lyp/svp scf=(tight,noincore) Test #IOP(5/87=12) Density=Current Pop
 =(MK,readradii) iop(6/33=2) iop(6/42=6)
 ----------------------------------------------------------------------

 ----------------
 Ng-31_loop3_11.0
 ----------------
 Symbolic Z-matrix:
 Charge =  0 Multiplicity = 1

                         Standard orientation:
 ---------------------------------------------------------------------
 Center     Atomic      Atomic             Coordinates (Angstroms)
 Number     Number       Type             X           Y           Z
 ---------------------------------------------------------------------
      1          6           0        4.883743   -6.159100    2.335946
      2          6           0        5.028025   -4.759822    1.752332
      3          8           0        4.074758   -4.223624    1.182180
      4          1           0        4.287243   -6.112166    3.247456
      5          1           0        4.388625   -6.806622    1.611613
      6          1           0        5.870464   -6.560415    2.567477
      7          7           0        6.209212   -4.148423    1.900617
      8          6           0        6.740018   -2.906567    1.366164
      9          6           0        6.846913   -2.961102   -0.145259
     10          8           0        7.014760   -4.018564   -0.758449
     11          6           0        8.091050   -2.605113    2.020104
     12          6           0        9.020052   -3.803098    1.943380
     13          8           0       10.002154   -3.661562    1.190224
     14          8           0        8.797780   -4.779413    2.694383
     15          1           0        6.931320   -4.705743    2.326827
     16          1           0        6.089743   -2.081727    1.618315
     17          1           0        7.835474   -2.366392    3.054799
     18          1           0        8.606892   -1.783776    1.517895
     19          7           0        6.859885   -1.759453   -0.727985
     20          6           0        7.339271   -1.435267   -2.061586
     21          6           0        6.308711   -0.774358   -2.973312
     22          8           0        6.597333   -0.516444   -4.133949
     23          6           0        8.576668   -0.531435   -2.055511
     24          6           0        9.721219   -1.241161   -1.346079
     25          6           0       10.151159   -2.521747   -2.049393
     26          6           0       11.506332   -2.995793   -1.527293
     27          7           0       12.067894   -3.983353   -2.463441
     28          1           0        6.632556   -0.943082   -0.179112
     29          1           0        7.570442   -2.366353   -2.572702
     30          1           0        8.461139    0.421516   -1.537402
     31          1           0        8.872020   -0.381161   -3.090975
     32          1           0        9.471614   -1.274986   -0.287234
     33          1           0       10.603731   -0.591163   -1.412977
     34          1           0       10.148887   -2.391523   -3.134029
     35          1           0        9.395874   -3.264105   -1.809918
     36          1           0       11.377518   -3.495381   -0.566294
     37          1           0       12.223740   -2.191293   -1.420497
     38          1           0       12.893426   -4.391384   -2.055019
     39          1           0       11.500993   -4.780068   -2.681083
     40          1           0       12.302136   -3.514916   -3.325877
     41          7           0        5.110353   -0.566675   -2.424310
     42          6           0        3.962697   -0.051773   -3.145325
     43          6           0        3.606226    1.382278   -2.806910
     44          8           0        2.531230    1.864808   -3.141050
     45          6           0        2.780032   -1.004269   -2.960517
     46          6           0        2.350835   -1.197389   -1.522500
     47          8           0        1.210704   -1.674429   -1.282633
     48          8           0        3.040731   -0.944843   -0.507579
     49          1           0        4.893050   -0.909993   -1.503923
     50          1           0        4.203322    0.045170   -4.210127
     51          1           0        2.966853   -2.002092   -3.373250
     52          1           0        1.943615   -0.547027   -3.485813
     53          7           0        4.384752    2.077604   -1.968031
     54          6           0        4.135009    3.467075   -1.624957
     55          6           0        5.278032    4.262174   -1.033844
     56          8           0        6.397170    4.103831   -1.528169
     57          1           0        5.186236    1.686260   -1.514407
     58          1           0        3.316737    3.479167   -0.901089
     59          1           0        3.814487    3.859907   -2.586492
     60          7           0        5.110353    5.151218   -0.039819
     61          6           0        3.898032    5.585738    0.617120
     62          6           0        3.519988    4.784920    1.850965
     63          8           0        4.408120    4.429069    2.634030
     64          6           0        4.057841    7.052454    1.010190
     65          6           0        4.219954    7.991901   -0.175119
     66          7           0        3.632021    7.788753   -1.357560
     67          8           0        5.011724    8.933390   -0.139066
     68          1           0        5.898553    5.664915    0.320398
     69          1           0        3.067589    5.512946   -0.094263
     70          1           0        4.806871    7.282237    1.761890
     71          1           0        3.168461    7.361948    1.551039
     72          1           0        2.899066    7.088589   -1.376196
     73          1           0        3.897355    8.306007   -2.186081
     74          7           0        2.289881    4.327046    2.060223
     75          6           0        1.148733    4.570810    1.192777
     76          6           0        0.025174    3.558337    1.274099
     77          8           0        0.293323    2.369627    1.486145
     78          1           0        2.289242    3.637556    2.796703
     79          1           0        1.469408    4.474012    0.153596
     80          1           0        0.827519    5.572879    1.483772
     81          7           0       -1.229832    3.927024    1.012319
     82          6           0       -2.345688    3.004073    0.872222
     83          6           0       -3.176690    3.517601   -0.290415
     84          8           0       -3.660444    4.634350   -0.201236
     85          6           0       -3.128003    2.932150    2.179398
     86          6           0       -2.445478    2.447353    3.433843
     87          6           0       -2.404929    1.064622    3.611915
     88          6           0       -2.029614    3.288372    4.466241
     89          6           0       -1.961714    0.477421    4.796759
     90          6           0       -1.498677    2.739480    5.639366
     91          6           0       -1.458699    1.342377    5.800316
     92          8           0       -0.853842    0.836715    6.917166
     93          1           0       -1.337314    4.922367    0.892981
     94          1           0       -1.974980    2.018342    0.612588
     95          1           0       -4.007537    2.298873    2.016054
     96          1           0       -3.531389    3.926306    2.409687
     97          1           0       -2.935482    0.415180    2.918994
     98          1           0       -2.004831    4.359552    4.296356
     99          1           0       -1.933799   -0.576943    5.015020
    100          1           0       -1.090999    3.408506    6.372512
    101          1           0       -0.751598    1.614766    7.469691
    102          7           0       -3.612602    2.614127   -1.182108
    103          6           0       -4.670915    2.967568   -2.103494
    104          6           0       -6.041192    2.990517   -1.422895
    105          8           0       -6.941002    3.708436   -1.843649
    106          6           0       -4.601437    2.170222   -3.404844
    107          6           0       -5.516995    0.945842   -3.397895
    108          6           0       -4.790024    3.029223   -4.645267
    109          6           0       -4.955779   -0.150080   -4.289798
    110          1           0       -3.309370    1.676830   -0.977844
    111          1           0       -4.544610    3.994388   -2.426432
    112          1           0       -3.573277    1.796669   -3.423451
    113          1           0       -6.467020    1.315740   -3.787677
    114          1           0       -5.740957    0.478604   -2.437515
    115          1           0       -5.792264    3.464777   -4.562754
    116          1           0       -4.017348    3.786466   -4.518169
    117          1           0       -4.645764    2.401159   -5.524656
    118          1           0       -5.050536    0.113560   -5.349003
    119          1           0       -3.942053   -0.427767   -4.026267
    120          1           0       -5.610396   -1.009353   -4.148285
    121          7           0       -6.311655    2.139928   -0.425375
    122          6           0       -7.489098    2.176632    0.412468
    123          6           0       -8.500064    1.065630    0.169731
    124          8           0       -9.473285    1.055321    0.923411
    125          6           0       -6.838975    2.195675    1.799940
    126          8           0       -6.463873    0.868394    2.078009
    127          1           0       -5.507347    1.627735   -0.098194
    128          1           0       -7.989730    3.140694    0.285773
    129          1           0       -7.677341    2.593830    2.363958
    130          1           0       -6.010493    2.907069    1.776760
    131          1           0       -5.690106    0.651995    1.556324
    132          7           0       -8.380737    0.188991   -0.821413
    133          6           0       -9.354965   -0.857404   -1.072881
    134          6           0       -8.722860   -2.180987   -1.495694
    135          8           0       -7.939902   -2.248507   -2.434692
    136          6           0      -10.348531   -0.368406   -2.116054
    137          1           0       -7.610628    0.339837   -1.458498
    138          1           0       -9.890835   -1.009262   -0.144882
    139          1           0       -9.783187   -0.225451   -3.031723
    140          1           0      -11.072348   -1.173861   -2.256879
    141          1           0      -10.847698    0.593551   -1.931472
    142          7           0       -9.157602   -3.332460   -0.987746
    143          6           0       -8.594816   -4.649083   -1.215504
    144          6           0       -7.072590   -4.727817   -1.188502
    145          8           0       -6.489390   -5.554672   -1.898142
    146          6           0       -9.263166   -5.241297   -2.454170
    147          1           0      -10.044407   -3.266781   -0.499317
    148          1           0       -8.948917   -5.247992   -0.379729
    149          1           0       -9.037286   -6.283804   -2.643793
    150          1           0      -10.320157   -5.076031   -2.265606
    151          1           0       -8.846436   -4.630739   -3.260926
    152          7           0       -6.361895   -3.966173   -0.350461
    153          6           0       -5.000226   -4.172130    0.098247
    154          6           0       -5.027946   -5.193570    1.219403
    155          8           0       -4.593369   -6.333256    1.028462
    156          6           0       -4.366645   -2.853503    0.541416
    157          6           0       -4.207516   -1.828781   -0.575196
    158          6           0       -3.706548   -0.514611   -0.012890
    159          8           0       -2.492902   -0.254877   -0.131210
    160          8           0       -4.496288    0.288807    0.524727
    161          1           0       -6.890777   -3.322272    0.218903
    162          1           0       -4.468658   -4.575755   -0.766346
    163          1           0       -3.379409   -3.129817    0.909810
    164          1           0       -4.872453   -2.423451    1.412170
    165          1           0       -5.169784   -1.626163   -1.040262
    166          1           0       -3.488822   -2.284620   -1.267865
    167          7           0       -5.559096   -4.835398    2.390809
    168          6           0       -5.525050   -5.558260    3.644767
    169          1           0       -5.379075   -6.620171    3.447228
    170          1           0       -4.703128   -5.186924    4.257109
    171          1           0       -6.466847   -5.413354    4.174244
    172          1           0       -5.990975   -3.916916    2.399374
    173         20           0        1.682953   -2.604755    1.255781
    174          8           0        3.598509   -1.316228    2.586774
    175          1           0        4.438214   -1.326117    3.046010
    176          1           0        3.285098   -0.418984    2.661781
 ---------------------------------------------------------------------

 SCF Done:  E(RB3LYP) =  -5333.38292845     A.U. after   18 cycles

 The electronic state is 1-A.
 Alpha  occ. eigenvalues -- -145.54598 -19.23773 -19.16240 -19.14278 -19.11973
 Alpha  occ. eigenvalues --  -19.10697 -19.10504 -19.10465 -19.10261 -19.09481
 Alpha  occ. eigenvalues --  -19.09355 -19.09242 -19.09223 -19.08905 -19.07832
 Alpha  occ. eigenvalues --  -19.07398 -19.07058 -19.06485 -19.05101 -19.05030
 Alpha  occ. eigenvalues --  -19.04302 -19.04145 -19.03896 -19.03689 -15.60342
 Alpha  occ. eigenvalues --  -14.56295 -14.38560 -14.37565 -14.37330 -14.36703
 Alpha  occ. eigenvalues --  -14.36259 -14.36183 -14.35966 -14.35452 -14.35184
 Alpha  occ. eigenvalues --  -14.35125 -14.34075 -14.32479 -14.31961 -14.29317
 Alpha  occ. eigenvalues --  -12.73960 -12.73923 -12.73892 -10.32330 -10.31313
 Alpha  occ. eigenvalues --  -10.30641 -10.30436 -10.29787 -10.29460 -10.29396
 Alpha  occ. eigenvalues --  -10.28823 -10.28791 -10.28448 -10.27543 -10.26977
 Alpha  occ. eigenvalues --  -10.26954 -10.26769 -10.25822 -10.25762 -10.25473
 Alpha  occ. eigenvalues --  -10.25120 -10.24883 -10.24440 -10.24346 -10.24276
 Alpha  occ. eigenvalues --  -10.24026 -10.23819 -10.23650 -10.23150 -10.23071
 Alpha  occ. eigenvalues --  -10.22587 -10.22524 -10.22171 -10.21905 -10.21901
 Alpha  occ. eigenvalues --  -10.21822 -10.21665 -10.20645 -10.20002 -10.18949
 Alpha  occ. eigenvalues --  -10.18940 -10.18671 -10.18544 -10.18497 -10.18420
 Alpha  occ. eigenvalues --  -10.18277 -10.18013 -10.17678 -10.17638 -10.16761
 Alpha  occ. eigenvalues --  -10.16650 -10.16553 -10.15791 -10.15518 -10.14885
 Alpha  occ. eigenvalues --  -10.14624 -10.14040  -1.96571  -1.23961  -1.23589
 Alpha  occ. eigenvalues --   -1.23372  -1.11766  -1.09705  -1.06196  -1.05263
 Alpha  occ. eigenvalues --   -1.04978  -1.04637  -1.04482  -1.03820  -1.03547
 Alpha  occ. eigenvalues --   -1.02897  -1.02896  -1.02779  -1.02295  -1.01171
 Alpha  occ. eigenvalues --   -1.00554  -0.99999  -0.99647  -0.98894  -0.98616
 Alpha  occ. eigenvalues --   -0.97677  -0.95594  -0.95560  -0.94392  -0.94157
 Alpha  occ. eigenvalues --   -0.93715  -0.93477  -0.92851  -0.91936  -0.91701
 Alpha  occ. eigenvalues --   -0.91386  -0.91342  -0.90273  -0.90267  -0.89373
 Alpha  occ. eigenvalues --   -0.89250  -0.89210  -0.89013  -0.86645  -0.86504
 Alpha  occ. eigenvalues --   -0.83977  -0.82327  -0.80783  -0.80089  -0.79061
 Alpha  occ. eigenvalues --   -0.78800  -0.78689  -0.77508  -0.77160  -0.75652
 Alpha  occ. eigenvalues --   -0.74828  -0.74754  -0.74493  -0.74406  -0.73785
 Alpha  occ. eigenvalues --   -0.72543  -0.72237  -0.71842  -0.71148  -0.70971
 Alpha  occ. eigenvalues --   -0.70769  -0.70131  -0.68885  -0.68479  -0.67968
 Alpha  occ. eigenvalues --   -0.66731  -0.66562  -0.64961  -0.63789  -0.63686
 Alpha  occ. eigenvalues --   -0.63415  -0.63388  -0.63139  -0.62055  -0.61530
 Alpha  occ. eigenvalues --   -0.61267  -0.61253  -0.60771  -0.60157  -0.60026
 Alpha  occ. eigenvalues --   -0.59825  -0.59777  -0.59615  -0.58924  -0.58756
 Alpha  occ. eigenvalues --   -0.58179  -0.57512  -0.57435  -0.57121  -0.56796
 Alpha  occ. eigenvalues --   -0.56445  -0.56255  -0.55610  -0.55491  -0.54882
 Alpha  occ. eigenvalues --   -0.54695  -0.54305  -0.53859  -0.53560  -0.53535
 Alpha  occ. eigenvalues --   -0.53362  -0.53206  -0.52805  -0.52609  -0.52006
 Alpha  occ. eigenvalues --   -0.51874  -0.51702  -0.51258  -0.50771  -0.50353
 Alpha  occ. eigenvalues --   -0.50175  -0.50079  -0.49758  -0.48922  -0.48800
 Alpha  occ. eigenvalues --   -0.48706  -0.48477  -0.48296  -0.47791  -0.47650
 Alpha  occ. eigenvalues --   -0.47613  -0.47191  -0.47142  -0.47009  -0.46523
 Alpha  occ. eigenvalues --   -0.46424  -0.46389  -0.46204  -0.46077  -0.45866
 Alpha  occ. eigenvalues --   -0.45801  -0.45788  -0.45504  -0.45214  -0.45171
 Alpha  occ. eigenvalues --   -0.45127  -0.44903  -0.44675  -0.44261  -0.44147
 Alpha  occ. eigenvalues --   -0.43786  -0.43702  -0.43631  -0.43348  -0.43196
 Alpha  occ. eigenvalues --   -0.43151  -0.42750  -0.42700  -0.42509  -0.42419
 Alpha  occ. eigenvalues --   -0.42352  -0.42083  -0.41975  -0.41844  -0.41693
 Alpha  occ. eigenvalues --   -0.41566  -0.41512  -0.41440  -0.41199  -0.41078
 Alpha  occ. eigenvalues --   -0.41012  -0.40779  -0.40740  -0.40616  -0.40420
 Alpha  occ. eigenvalues --   -0.40181  -0.40064  -0.40030  -0.39950  -0.39922
 Alpha  occ. eigenvalues --   -0.39739  -0.39590  -0.39175  -0.39152  -0.38967
 Alpha  occ. eigenvalues --   -0.38899  -0.38793  -0.38669  -0.38553  -0.38489
 Alpha  occ. eigenvalues --   -0.38292  -0.38102  -0.38076  -0.37929  -0.37739
 Alpha  occ. eigenvalues --   -0.37504  -0.37437  -0.37431  -0.37013  -0.36760
 Alpha  occ. eigenvalues --   -0.36623  -0.36451  -0.36346  -0.36057  -0.35940
 Alpha  occ. eigenvalues --   -0.35830  -0.35697  -0.35588  -0.35477  -0.35282
 Alpha  occ. eigenvalues --   -0.35085  -0.34534  -0.34398  -0.34377  -0.34048
 Alpha  occ. eigenvalues --   -0.33913  -0.33904  -0.33635  -0.33183  -0.33142
 Alpha  occ. eigenvalues --   -0.32784  -0.32420  -0.32185  -0.31606  -0.30206
 Alpha  occ. eigenvalues --   -0.30203  -0.29977  -0.29843  -0.29723  -0.29364
 Alpha  occ. eigenvalues --   -0.28812  -0.28547  -0.28257  -0.27482  -0.27378
 Alpha  occ. eigenvalues --   -0.27328  -0.27280  -0.26873  -0.26471  -0.26437
 Alpha  occ. eigenvalues --   -0.26432  -0.26049  -0.25997  -0.25979  -0.25909
 Alpha  occ. eigenvalues --   -0.25500  -0.25112  -0.24955  -0.24868  -0.24772
 Alpha  occ. eigenvalues --   -0.24723  -0.24512  -0.24294  -0.23662  -0.23343
 Alpha  occ. eigenvalues --   -0.22766  -0.22508  -0.22364  -0.22173  -0.21887
 Alpha  occ. eigenvalues --   -0.21811  -0.21398  -0.21119  -0.21095  -0.20021
 Alpha  occ. eigenvalues --   -0.19772  -0.19520  -0.19181
 Alpha virt. eigenvalues --   -0.14898  -0.08690  -0.04808  -0.02729  -0.02431
 Alpha virt. eigenvalues --   -0.02192  -0.01815  -0.01257  -0.00847  -0.00743
 Alpha virt. eigenvalues --   -0.00543   0.00302   0.00772   0.00872   0.00958

 Mulliken charges:
               1
     1  C    0.045173
     2  C    0.053278
     3  O   -0.404884
     4  H    0.028179
     5  H    0.043911
     6  H    0.048735
     7  N   -0.089229
     8  C    0.054036
     9  C    0.105477
    10  O   -0.271733
    11  C    0.093958
    12  C    0.089897
    13  O   -0.386399
    14  O   -0.383142
    15  H    0.124306
    16  H   -0.054710
    17  H   -0.000999
    18  H   -0.013623
    19  N   -0.141814
    20  C    0.075254
    21  C    0.067228
    22  O   -0.268948
    23  C    0.053318
    24  C    0.032578
    25  C   -0.058358
    26  C    0.059103
    27  N    0.077597
    28  H    0.121176
    29  H    0.028830
    30  H    0.010438
    31  H    0.018195
    32  H    0.024044
    33  H   -0.014772
    34  H   -0.002372
    35  H    0.061444
    36  H    0.093185
    37  H    0.045669
    38  H    0.182329
    39  H    0.185114
    40  H    0.181089
    41  N   -0.156575
    42  C    0.138410
    43  C    0.061022
    44  O   -0.273523
    45  C    0.090810
    46  C    0.108587
    47  O   -0.413381
    48  O   -0.438432
    49  H    0.113079
    50  H    0.037280
    51  H    0.036740
    52  H    0.055839
    53  N   -0.149488
    54  C    0.220085
    55  C    0.009784
    56  O   -0.269860
    57  H    0.101305
    58  H    0.004283
    59  H    0.039908
    60  N   -0.062199
    61  C    0.010350
    62  C    0.058646
    63  O   -0.288495
    64  C    0.083857
    65  C   -0.007449
    66  N   -0.041278
    67  O   -0.254962
    68  H    0.138019
    69  H   -0.017316
    70  H    0.032727
    71  H    0.021545
    72  H    0.103721
    73  H    0.143920
    74  N   -0.110656
    75  C    0.186760
    76  C    0.022861
    77  O   -0.306914
    78  H    0.123717
    79  H    0.068052
    80  H    0.015123
    81  N   -0.130912
    82  C    0.163839
    83  C    0.044003
    84  O   -0.292730
    85  C    0.138207
    86  C   -0.003656
    87  C    0.025949
    88  C   -0.013338
    89  C   -0.040728
    90  C   -0.050670
    91  C    0.146612
    92  O   -0.199750
    93  H    0.110014
    94  H    0.016940
    95  H    0.016108
    96  H   -0.016312
    97  H    0.000736
    98  H   -0.038961
    99  H   -0.055833
   100  H   -0.051883
   101  H    0.166190
   102  N   -0.135038
   103  C    0.183548
   104  C    0.021674
   105  O   -0.284839
   106  C   -0.096657
   107  C   -0.029880
   108  C    0.081844
   109  C    0.037508
   110  H    0.142957
   111  H   -0.004065
   112  H   -0.013724
   113  H   -0.000792
   114  H    0.016110
   115  H    0.027221
   116  H    0.001789
   117  H    0.002400
   118  H   -0.004109
   119  H    0.012207
   120  H    0.015538
   121  N   -0.190457
   122  C    0.089315
   123  C    0.085166
   124  O   -0.307539
   125  C    0.260494
   126  O   -0.342983
   127  H    0.121013
   128  H    0.020919
   129  H   -0.010093
   130  H   -0.004736
   131  H    0.158072
   132  N   -0.125621
   133  C    0.131071
   134  C    0.039193
   135  O   -0.270432
   136  C    0.074705
   137  H    0.132366
   138  H   -0.011447
   139  H    0.014020
   140  H   -0.009968
   141  H    0.040949
   142  N   -0.143553
   143  C    0.068727
   144  C    0.085120
   145  O   -0.266278
   146  C    0.079868
   147  H    0.119625
   148  H    0.010143
   149  H    0.026456
   150  H   -0.015841
   151  H    0.042610
   152  N   -0.128982
   153  C    0.158589
   154  C    0.037182
   155  O   -0.262298
   156  C   -0.029950
   157  C    0.140210
   158  C    0.112244
   159  O   -0.368849
   160  O   -0.426341
   161  H    0.103723
   162  H    0.007610
   163  H   -0.031434
   164  H   -0.005646
   165  H    0.005358
   166  H   -0.004843
   167  N   -0.162652
   168  C    0.133588
   169  H    0.043793
   170  H    0.013276
   171  H    0.022762
   172  H    0.112989
   173  Ca   1.474600
   174  O   -0.308848
   175  H    0.208502
   176  H    0.198558
 Sum of Mulliken charges =  -0.00000

 Dipole moment (field-independent basis, Debye):
    X=             32.8853    Y=            -13.3621    Z=              2.5274  Tot=             35.5862
 Quadrupole moment (field-independent basis, Debye-Ang):
   XX=           -374.6919   YY=           -603.3660   ZZ=           -549.7177
   XY=            -73.6393   XZ=           -128.4781   YZ=             19.4479

 ESP charges:
               1
     1  C   -0.540059
     2  C    0.865851
     3  O   -0.784234
     4  H    0.127537
     5  H    0.161419
     6  H    0.164420
     7  N   -0.512431
     8  C    0.123659
     9  C    0.612960
    10  O   -0.522934
    11  C   -0.362604
    12  C    0.826372
    13  O   -0.732894
    14  O   -0.683081
    15  H    0.247322
    16  H    0.018771
    17  H    0.101165
    18  H    0.079698
    19  N   -0.556013
    20  C    0.207866
    21  C    0.342301
    22  O   -0.514097
    23  C   -0.297929
    24  C    0.104068
    25  C   -0.179410
    26  C    0.254966
    27  N   -0.365338
    28  H    0.323668
    29  H    0.077772
    30  H    0.110040
    31  H    0.097402
    32  H    0.014336
    33  H    0.001750
    34  H    0.053746
    35  H    0.061474
    36  H    0.052719
    37  H    0.012374
    38  H    0.311566
    39  H    0.327100
    40  H    0.300138
    41  N   -0.134308
    42  C   -0.017624
    43  C    0.569742
    44  O   -0.539131
    45  C   -0.108895
    46  C    0.834961
    47  O   -0.805573
    48  O   -0.765977
    49  H    0.083274
    50  H    0.079058
    51  H    0.040877
    52  H    0.087226
    53  N   -0.362706
    54  C   -0.217145
    55  C    0.787567
    56  O   -0.581588
    57  H    0.228791
    58  H    0.132416
    59  H    0.125614
    60  N   -0.758031
    61  C    0.457062
    62  C    0.503766
    63  O   -0.569764
    64  C   -0.459900
    65  C    0.737479
    66  N   -0.857560
    67  O   -0.558497
    68  H    0.378698
    69  H   -0.073774
    70  H    0.149119
    71  H    0.124670
    72  H    0.348749
    73  H    0.422135
    74  N   -0.424746
    75  C   -0.216119
    76  C    0.857329
    77  O   -0.614201
    78  H    0.289324
    79  H    0.083886
    80  H    0.099661
    81  N   -0.788152
    82  C    0.312134
    83  C    0.673808
    84  O   -0.574351
    85  C   -0.147529
    86  C    0.066475
    87  C   -0.140475
    88  C   -0.104970
    89  C   -0.267558
    90  C   -0.361280
    91  C    0.374644
    92  O   -0.542462
    93  H    0.318144
    94  H    0.046243
    95  H    0.122364
    96  H    0.052217
    97  H    0.127968
    98  H    0.123528
    99  H    0.148239
   100  H    0.151877
   101  H    0.388006
   102  N   -0.867589
   103  C    0.427375
   104  C    0.269976
   105  O   -0.588011
   106  C    0.216863
   107  C    0.169975
   108  C   -0.398536
   109  C   -0.385898
   110  H    0.386811
   111  H    0.010252
   112  H   -0.012881
   113  H    0.001205
   114  H   -0.038357
   115  H    0.080516
   116  H    0.080552
   117  H    0.095700
   118  H    0.085290
   119  H    0.084514
   120  H    0.081189
   121  N    0.219808
   122  C   -0.078405
   123  C    0.512117
   124  O   -0.534140
   125  C    0.230449
   126  O   -0.568261
   127  H   -0.152979
   128  H    0.083860
   129  H    0.018443
   130  H   -0.049026
   131  H    0.266965
   132  N   -0.430705
   133  C    0.316229
   134  C    0.625567
   135  O   -0.490739
   136  C   -0.312118
   137  H    0.134655
   138  H   -0.024612
   139  H    0.077594
   140  H    0.046931
   141  H    0.121802
   142  N   -0.741267
   143  C    0.358973
   144  C    0.436589
   145  O   -0.482887
   146  C   -0.354861
   147  H    0.354593
   148  H    0.013848
   149  H    0.091131
   150  H    0.100094
   151  H    0.112859
   152  N   -0.314547
   153  C   -0.277284
   154  C    0.619736
   155  O   -0.540646
   156  C    0.169920
   157  C    0.091514
   158  C    0.377833
   159  O   -0.613482
   160  O   -0.404237
   161  H    0.164119
   162  H    0.153666
   163  H   -0.048834
   164  H   -0.021439
   165  H   -0.004436
   166  H    0.014622
   167  N   -0.429003
   168  C   -0.076684
   169  H    0.097769
   170  H    0.052778
   171  H    0.070902
   172  H    0.309351
   173  Ca   1.729608
   174  O   -0.916432
   175  H    0.473192
   176  H    0.454383
 Sum of ESP charges =   0.00000

 Normal termination of Gaussian 16 at Wed Sep 18 14:21:47 2019.
