 Gaussian 16, Revision A.03,
 Gaussian 16:  ES64L-G16RevA.03 25-Dec-2016

 ----------------------------------------------------------------------
 #b3lyp/svp scf=(tight,noincore) Test #IOP(5/87=12) Density=Current Pop
 =(MK,readradii) iop(6/33=2) iop(6/42=6)
 ----------------------------------------------------------------------

 ----------------
 Ng-31_loop3_22.0
 ----------------
 Symbolic Z-matrix:
 Charge =  0 Multiplicity = 1

                         Standard orientation:
 ---------------------------------------------------------------------
 Center     Atomic      Atomic             Coordinates (Angstroms)
 Number     Number       Type             X           Y           Z
 ---------------------------------------------------------------------
      1          6           0        4.862758   -5.448252    4.402777
      2          6           0        4.159824   -4.307147    3.694637
      3          8           0        3.073524   -3.819615    4.020312
      4          1           0        5.931850   -5.241434    4.452074
      5          1           0        4.465986   -5.549116    5.413267
      6          1           0        4.697693   -6.374739    3.852634
      7          7           0        4.739425   -3.814510    2.593061
      8          6           0        4.244011   -2.755883    1.735813
      9          6           0        3.227688   -3.363701    0.783635
     10          8           0        2.203197   -2.740233    0.491733
     11          6           0        5.430188   -2.126686    1.017275
     12          6           0        6.672524   -2.955692    0.698605
     13          8           0        7.747516   -2.321351    0.723177
     14          8           0        6.571612   -4.163355    0.379127
     15          1           0        5.574922   -4.237793    2.220803
     16          1           0        3.615443   -2.132354    2.377852
     17          1           0        5.822215   -1.295725    1.585445
     18          1           0        5.013404   -1.767504    0.072882
     19          7           0        3.557967   -4.523553    0.213583
     20          6           0        2.724468   -5.279577   -0.686531
     21          6           0        2.726885   -4.556922   -2.029872
     22          8           0        3.761406   -4.425404   -2.674129
     23          6           0        3.238699   -6.716341   -0.808497
     24          6           0        3.213176   -7.532015    0.483720
     25          6           0        1.900308   -7.888675    1.178320
     26          6           0        2.061653   -8.867575    2.342718
     27          7           0        0.878717   -9.061717    3.197336
     28          1           0        4.542497   -4.786049    0.248187
     29          1           0        1.687496   -5.259682   -0.344048
     30          1           0        4.268755   -6.726258   -1.138627
     31          1           0        2.540969   -7.246767   -1.458668
     32          1           0        3.904273   -7.051026    1.170113
     33          1           0        3.617771   -8.498955    0.196090
     34          1           0        1.209211   -8.369664    0.491928
     35          1           0        1.472754   -7.017401    1.667993
     36          1           0        2.894744   -8.540750    2.957898
     37          1           0        2.306986   -9.819243    1.864556
     38          1           0        0.148286   -9.519998    2.681053
     39          1           0        1.043547   -9.773121    3.904751
     40          1           0        0.601853   -8.221651    3.691335
     41          7           0        1.535526   -4.169032   -2.508208
     42          6           0        1.416034   -3.256319   -3.619998
     43          6           0        1.715021   -1.804931   -3.240812
     44          8           0        1.534410   -0.876281   -4.027317
     45          6           0        0.003855   -3.484124   -4.153621
     46          6           0       -1.090584   -3.456792   -3.096476
     47          8           0       -2.039704   -4.240359   -3.334794
     48          8           0       -0.886305   -2.665747   -2.147836
     49          1           0        0.798756   -4.464131   -1.880843
     50          1           0        2.105767   -3.460272   -4.429116
     51          1           0        0.037151   -4.439105   -4.666850
     52          1           0       -0.261088   -2.739679   -4.903292
     53          7           0        2.203875   -1.550710   -2.023030
     54          6           0        3.046321   -0.402963   -1.798619
     55          6           0        4.475970   -0.584605   -2.284430
     56          8           0        4.845112   -1.650063   -2.787553
     57          1           0        2.249786   -2.341591   -1.398932
     58          1           0        3.003603   -0.104200   -0.744382
     59          1           0        2.574330    0.415814   -2.335673
     60          7           0        5.339833    0.412541   -2.112559
     61          6           0        5.035560    1.779201   -1.719294
     62          6           0        6.202546    2.301792   -0.897259
     63          8           0        7.277426    2.447414   -1.481747
     64          6           0        4.774151    2.517585   -3.028743
     65          6           0        4.698943    4.030826   -2.876607
     66          7           0        4.646739    4.766668   -4.002135
     67          8           0        4.847721    4.522960   -1.758051
     68          1           0        6.323771    0.214856   -2.260161
     69          1           0        4.095778    1.870887   -1.169928
     70          1           0        3.829126    2.318195   -3.518101
     71          1           0        5.612322    2.266590   -3.684389
     72          1           0        4.475733    4.329928   -4.894556
     73          1           0        4.357181    5.716399   -3.846680
     74          7           0        6.178927    2.598826    0.403823
     75          6           0        5.293994    1.963983    1.360311
     76          6           0        4.019319    2.749864    1.639049
     77          8           0        3.252378    2.319643    2.504387
     78          1           0        7.063780    2.852590    0.815575
     79          1           0        5.843840    1.822609    2.292289
     80          1           0        5.010919    0.947650    1.091918
     81          7           0        3.702282    3.791387    0.871183
     82          6           0        2.366960    4.367148    0.937621
     83          6           0        1.310448    3.523959    0.242125
     84          8           0        1.490563    3.041095   -0.869811
     85          6           0        2.449062    5.735539    0.274850
     86          6           0        3.296020    6.805391    0.912798
     87          6           0        2.730727    7.593729    1.926636
     88          6           0        4.648259    6.974846    0.593836
     89          6           0        3.552946    8.434981    2.678733
     90          6           0        5.525934    7.788453    1.318357
     91          6           0        4.913313    8.573582    2.316389
     92          8           0        5.685767    9.508208    2.932822
     93          1           0        4.344262    4.027884    0.140957
     94          1           0        2.209216    4.519331    2.005403
     95          1           0        1.416316    6.010202    0.065812
     96          1           0        2.925518    5.495129   -0.672774
     97          1           0        1.715308    7.515210    2.287828
     98          1           0        5.069322    6.433691   -0.247090
     99          1           0        3.067991    9.040031    3.432280
    100          1           0        6.541395    8.029843    1.044187
    101          1           0        6.571195    9.261441    2.672585
    102          7           0        0.247278    3.122091    0.951118
    103          6           0       -0.787642    2.179674    0.590714
    104          6           0       -1.968845    2.883683   -0.064443
    105          8           0       -2.452997    3.911413    0.404778
    106          6           0       -1.139565    1.148276    1.664012
    107          6           0        0.108605    0.327623    1.965178
    108          6           0       -1.757351    1.858615    2.857184
    109          6           0       -0.082573   -0.744503    3.039932
    110          1           0        0.186646    3.456646    1.893560
    111          1           0       -0.445194    1.574062   -0.242150
    112          1           0       -1.936292    0.577018    1.185691
    113          1           0        0.864355    1.004525    2.367603
    114          1           0        0.449963   -0.150095    1.052676
    115          1           0       -2.706290    2.326544    2.579413
    116          1           0       -1.937967    1.150210    3.668320
    117          1           0       -1.213595    2.695076    3.311565
    118          1           0        0.696330   -1.502489    2.987317
    119          1           0       -0.184679   -0.241223    4.009047
    120          1           0       -1.066843   -1.195556    2.934274
    121          7           0       -2.502511    2.310134   -1.146497
    122          6           0       -3.577725    2.825460   -1.954182
    123          6           0       -4.931361    3.007207   -1.272100
    124          8           0       -5.030161    3.017038   -0.048237
    125          6           0       -3.150636    4.144164   -2.602268
    126          8           0       -2.327467    3.878962   -3.716252
    127          1           0       -2.154005    1.381736   -1.375232
    128          1           0       -3.833484    2.048060   -2.675526
    129          1           0       -2.677869    4.784713   -1.851276
    130          1           0       -3.953398    4.767737   -2.988702
    131          1           0       -1.743294    3.146788   -3.526350
    132          7           0       -5.964482    3.234059   -2.090330
    133          6           0       -7.334321    3.367640   -1.653641
    134          6           0       -7.903646    2.152747   -0.942373
    135          8           0       -7.856832    1.019520   -1.409283
    136          6           0       -8.142163    3.806343   -2.873080
    137          1           0       -5.707931    3.180395   -3.069055
    138          1           0       -7.440639    4.270892   -1.050456
    139          1           0       -7.841117    4.840698   -3.054412
    140          1           0       -7.894369    3.194315   -3.737557
    141          1           0       -9.211608    3.730928   -2.641779
    142          7           0       -8.539731    2.360012    0.217901
    143          6           0       -9.263950    1.357781    0.970192
    144          6           0       -8.350945    0.199469    1.356502
    145          8           0       -8.843526   -0.918488    1.457677
    146          6           0      -10.512594    0.932229    0.202147
    147          1           0       -8.351948    3.217140    0.715364
    148          1           0       -9.759328    1.814979    1.829244
    149          1           0      -11.166888    1.726465   -0.125709
    150          1           0      -10.157162    0.484906   -0.727030
    151          1           0      -11.044316    0.269846    0.884804
    152          7           0       -7.038246    0.340464    1.516003
    153          6           0       -6.117759   -0.674018    2.008882
    154          6           0       -6.020805   -0.544231    3.520655
    155          8           0       -5.717906   -1.560400    4.154889
    156          6           0       -4.723165   -0.470147    1.410597
    157          6           0       -3.968507   -1.792455    1.298378
    158          6           0       -4.395323   -2.624082    0.087954
    159          8           0       -4.247775   -2.218817   -1.087754
    160          8           0       -4.939059   -3.733893    0.226769
    161          1           0       -6.713086    1.286842    1.362572
    162          1           0       -6.525304   -1.619686    1.662301
    163          1           0       -4.201575    0.093319    2.170235
    164          1           0       -4.787167    0.141468    0.516432
    165          1           0       -4.055829   -2.361966    2.219536
    166          1           0       -2.905155   -1.666687    1.087751
    167          7           0       -6.442019    0.599683    4.068868
    168          6           0       -6.741195    0.623514    5.484963
    169          1           0       -7.587156   -0.032985    5.688257
    170          1           0       -5.872626    0.279410    6.045946
    171          1           0       -6.990345    1.640992    5.787212
    172          1           0       -6.576801    1.448147    3.534693
    173         20           0       -4.380647   -4.566686   -2.301162
    174          8           0       -6.720483   -3.438684   -2.603616
    175          1           0       -7.338211   -2.783488   -2.272511
    176          1           0       -7.090287   -3.724927   -3.437469
 ---------------------------------------------------------------------

 SCF Done:  E(RB3LYP) =  -5333.34288073     A.U. after   38 cycles

 The electronic state is 1-A.
 Alpha  occ. eigenvalues -- -145.47777 -19.21175 -19.14102 -19.11233 -19.10651
 Alpha  occ. eigenvalues --  -19.09886 -19.09385 -19.07957 -19.07831 -19.07716
 Alpha  occ. eigenvalues --  -19.06944 -19.06882 -19.06617 -19.06239 -19.06055
 Alpha  occ. eigenvalues --  -19.05642 -19.05633 -19.05123 -19.05018 -19.04240
 Alpha  occ. eigenvalues --  -19.03481 -19.03065 -18.98600 -18.96871 -15.53707
 Alpha  occ. eigenvalues --  -14.59561 -14.36828 -14.36556 -14.34733 -14.34583
 Alpha  occ. eigenvalues --  -14.34483 -14.33993 -14.32637 -14.32578 -14.31664
 Alpha  occ. eigenvalues --  -14.31617 -14.31426 -14.30763 -14.29927 -14.27591
 Alpha  occ. eigenvalues --  -12.67313 -12.67282 -12.67203 -10.35118 -10.29443
 Alpha  occ. eigenvalues --  -10.28279 -10.27683 -10.27407 -10.27110 -10.26428
 Alpha  occ. eigenvalues --  -10.25742 -10.25629 -10.25604 -10.25160 -10.24964
 Alpha  occ. eigenvalues --  -10.24508 -10.24443 -10.24380 -10.24311 -10.24292
 Alpha  occ. eigenvalues --  -10.23779 -10.23461 -10.23148 -10.22800 -10.22742
 Alpha  occ. eigenvalues --  -10.22438 -10.21887 -10.21731 -10.21430 -10.21017
 Alpha  occ. eigenvalues --  -10.20982 -10.20961 -10.20560 -10.20476 -10.20101
 Alpha  occ. eigenvalues --  -10.20030 -10.18783 -10.18553 -10.17890 -10.17887
 Alpha  occ. eigenvalues --  -10.17506 -10.17297 -10.17071 -10.17016 -10.16913
 Alpha  occ. eigenvalues --  -10.16847 -10.16827 -10.16679 -10.16634 -10.16370
 Alpha  occ. eigenvalues --  -10.16108 -10.15846 -10.15066 -10.14345 -10.13470
 Alpha  occ. eigenvalues --  -10.13115 -10.11861  -1.90372  -1.17936  -1.17520
 Alpha  occ. eigenvalues --   -1.17043  -1.14592  -1.07143  -1.04307  -1.03589
 Alpha  occ. eigenvalues --   -1.02907  -1.01811  -1.01643  -1.01069  -1.00709
 Alpha  occ. eigenvalues --   -1.00396  -1.00129  -0.99892  -0.99860  -0.99525
 Alpha  occ. eigenvalues --   -0.99457  -0.98609  -0.98521  -0.98135  -0.96835
 Alpha  occ. eigenvalues --   -0.95702  -0.93449  -0.93379  -0.92239  -0.91605
 Alpha  occ. eigenvalues --   -0.90826  -0.90708  -0.89783  -0.89725  -0.89673
 Alpha  occ. eigenvalues --   -0.89441  -0.89428  -0.89233  -0.88838  -0.88489
 Alpha  occ. eigenvalues --   -0.88210  -0.87831  -0.87006  -0.84488  -0.82525
 Alpha  occ. eigenvalues --   -0.82405  -0.81090  -0.80732  -0.78747  -0.78108
 Alpha  occ. eigenvalues --   -0.76865  -0.75967  -0.75907  -0.75077  -0.75043
 Alpha  occ. eigenvalues --   -0.74951  -0.74019  -0.73662  -0.72325  -0.71678
 Alpha  occ. eigenvalues --   -0.71598  -0.71310  -0.70123  -0.69849  -0.68701
 Alpha  occ. eigenvalues --   -0.68391  -0.68187  -0.67994  -0.67609  -0.67314
 Alpha  occ. eigenvalues --   -0.66205  -0.65351  -0.64271  -0.62779  -0.62422
 Alpha  occ. eigenvalues --   -0.62274  -0.61577  -0.61477  -0.60581  -0.60499
 Alpha  occ. eigenvalues --   -0.60075  -0.59780  -0.59665  -0.59500  -0.58456
 Alpha  occ. eigenvalues --   -0.58195  -0.57585  -0.57522  -0.57079  -0.56716
 Alpha  occ. eigenvalues --   -0.56589  -0.56392  -0.56103  -0.55857  -0.55370
 Alpha  occ. eigenvalues --   -0.54936  -0.54857  -0.54279  -0.53789  -0.53525
 Alpha  occ. eigenvalues --   -0.53078  -0.52742  -0.51999  -0.51811  -0.51457
 Alpha  occ. eigenvalues --   -0.51356  -0.51207  -0.50454  -0.50069  -0.49912
 Alpha  occ. eigenvalues --   -0.49741  -0.49453  -0.49243  -0.48873  -0.48538
 Alpha  occ. eigenvalues --   -0.48460  -0.48118  -0.47988  -0.47502  -0.47424
 Alpha  occ. eigenvalues --   -0.47200  -0.46891  -0.46842  -0.46580  -0.46447
 Alpha  occ. eigenvalues --   -0.46062  -0.45445  -0.45419  -0.45347  -0.45025
 Alpha  occ. eigenvalues --   -0.44780  -0.44554  -0.44489  -0.44354  -0.44146
 Alpha  occ. eigenvalues --   -0.43937  -0.43597  -0.43407  -0.43336  -0.43102
 Alpha  occ. eigenvalues --   -0.42960  -0.42725  -0.42516  -0.42378  -0.42073
 Alpha  occ. eigenvalues --   -0.42037  -0.41927  -0.41756  -0.41513  -0.41365
 Alpha  occ. eigenvalues --   -0.41246  -0.41002  -0.40895  -0.40761  -0.40668
 Alpha  occ. eigenvalues --   -0.40535  -0.40446  -0.40216  -0.40191  -0.40131
 Alpha  occ. eigenvalues --   -0.39877  -0.39774  -0.39577  -0.39496  -0.39375
 Alpha  occ. eigenvalues --   -0.39031  -0.38927  -0.38855  -0.38778  -0.38710
 Alpha  occ. eigenvalues --   -0.38656  -0.38434  -0.38400  -0.38243  -0.38149
 Alpha  occ. eigenvalues --   -0.37990  -0.37753  -0.37557  -0.37511  -0.37405
 Alpha  occ. eigenvalues --   -0.37228  -0.37129  -0.36990  -0.36897  -0.36831
 Alpha  occ. eigenvalues --   -0.36689  -0.36357  -0.36062  -0.35987  -0.35709
 Alpha  occ. eigenvalues --   -0.35522  -0.35444  -0.35162  -0.35016  -0.34843
 Alpha  occ. eigenvalues --   -0.34701  -0.34670  -0.34497  -0.34067  -0.33853
 Alpha  occ. eigenvalues --   -0.33822  -0.33709  -0.33503  -0.33459  -0.33211
 Alpha  occ. eigenvalues --   -0.33138  -0.33010  -0.32777  -0.32723  -0.32396
 Alpha  occ. eigenvalues --   -0.32169  -0.32108  -0.31822  -0.31601  -0.31246
 Alpha  occ. eigenvalues --   -0.30593  -0.30201  -0.30124  -0.29679  -0.29093
 Alpha  occ. eigenvalues --   -0.29025  -0.28778  -0.28313  -0.28084  -0.27379
 Alpha  occ. eigenvalues --   -0.27008  -0.26984  -0.26861  -0.26318  -0.25726
 Alpha  occ. eigenvalues --   -0.25132  -0.24997  -0.24677  -0.24527  -0.24431
 Alpha  occ. eigenvalues --   -0.24192  -0.24096  -0.23970  -0.23846  -0.23709
 Alpha  occ. eigenvalues --   -0.23459  -0.23431  -0.23150  -0.22808  -0.22706
 Alpha  occ. eigenvalues --   -0.22583  -0.22106  -0.22034  -0.21897  -0.21411
 Alpha  occ. eigenvalues --   -0.20750  -0.20693  -0.20428  -0.20352  -0.20010
 Alpha  occ. eigenvalues --   -0.19776  -0.19746  -0.19608  -0.18920  -0.18134
 Alpha  occ. eigenvalues --   -0.15339  -0.15243  -0.12966
 Alpha virt. eigenvalues --   -0.12122  -0.11378  -0.05466  -0.04559  -0.02506
 Alpha virt. eigenvalues --   -0.02029  -0.00139   0.00444   0.00503   0.01116
 Alpha virt. eigenvalues --    0.01441   0.02109   0.02243   0.02695   0.03042

 Mulliken charges:
               1
     1  C    0.053969
     2  C   -0.000584
     3  O   -0.309715
     4  H    0.046247
     5  H    0.010800
     6  H   -0.008431
     7  N   -0.142113
     8  C    0.124095
     9  C    0.052525
    10  O   -0.307535
    11  C    0.058198
    12  C    0.066658
    13  O   -0.346871
    14  O   -0.393770
    15  H    0.100807
    16  H    0.012865
    17  H   -0.000047
    18  H    0.036104
    19  N   -0.136313
    20  C    0.121896
    21  C    0.010462
    22  O   -0.232106
    23  C    0.094572
    24  C    0.007007
    25  C   -0.001058
    26  C   -0.018493
    27  N    0.088420
    28  H    0.120967
    29  H   -0.046978
    30  H    0.053851
    31  H   -0.019117
    32  H    0.026460
    33  H   -0.000028
    34  H    0.005615
    35  H    0.040259
    36  H    0.082692
    37  H    0.064192
    38  H    0.184227
    39  H    0.189014
    40  H    0.211268
    41  N   -0.153507
    42  C    0.170306
    43  C    0.073950
    44  O   -0.308919
    45  C    0.087379
    46  C    0.101111
    47  O   -0.513728
    48  O   -0.317578
    49  H    0.123859
    50  H    0.026473
    51  H   -0.034974
    52  H    0.015332
    53  N   -0.115588
    54  C    0.154652
    55  C    0.006739
    56  O   -0.244708
    57  H    0.134295
    58  H    0.034737
    59  H    0.028500
    60  N   -0.114671
    61  C    0.043393
    62  C    0.073525
    63  O   -0.279222
    64  C    0.099648
    65  C    0.055827
    66  N   -0.036017
    67  O   -0.288624
    68  H    0.141300
    69  H    0.017812
    70  H    0.039661
    71  H    0.034267
    72  H    0.124675
    73  H    0.126048
    74  N   -0.112204
    75  C    0.160056
    76  C    0.030437
    77  O   -0.302412
    78  H    0.128091
    79  H    0.032478
    80  H    0.057791
    81  N   -0.143259
    82  C    0.156483
    83  C    0.101816
    84  O   -0.290268
    85  C    0.080688
    86  C    0.012462
    87  C   -0.019647
    88  C   -0.007748
    89  C   -0.024181
    90  C   -0.027950
    91  C    0.123881
    92  O   -0.185412
    93  H    0.150881
    94  H   -0.012719
    95  H   -0.006817
    96  H    0.004311
    97  H   -0.031591
    98  H   -0.013014
    99  H   -0.031032
   100  H   -0.037342
   101  H    0.161107
   102  N   -0.097350
   103  C    0.121329
   104  C    0.078303
   105  O   -0.279161
   106  C   -0.068354
   107  C    0.025381
   108  C    0.045056
   109  C    0.036390
   110  H    0.114744
   111  H   -0.011386
   112  H   -0.017841
   113  H    0.015810
   114  H    0.024563
   115  H    0.016512
   116  H    0.003414
   117  H   -0.009915
   118  H    0.044387
   119  H   -0.006224
   120  H   -0.024913
   121  N   -0.123764
   122  C    0.042460
   123  C    0.071753
   124  O   -0.263445
   125  C    0.266415
   126  O   -0.320282
   127  H    0.148118
   128  H    0.014874
   129  H    0.023852
   130  H   -0.020494
   131  H    0.163488
   132  N   -0.121395
   133  C    0.096838
   134  C    0.096993
   135  O   -0.272401
   136  C    0.021076
   137  H    0.125132
   138  H   -0.006041
   139  H    0.033709
   140  H    0.022921
   141  H    0.026350
   142  N   -0.152138
   143  C    0.050476
   144  C    0.062067
   145  O   -0.281113
   146  C    0.060380
   147  H    0.120970
   148  H    0.019746
   149  H   -0.009379
   150  H    0.021569
   151  H    0.030098
   152  N   -0.129908
   153  C    0.081211
   154  C    0.082476
   155  O   -0.278360
   156  C    0.066432
   157  C    0.105805
   158  C    0.056941
   159  O   -0.430113
   160  O   -0.430660
   161  H    0.113245
   162  H    0.036478
   163  H   -0.007419
   164  H    0.018598
   165  H   -0.000523
   166  H    0.037257
   167  N   -0.163190
   168  C    0.141739
   169  H    0.026565
   170  H    0.034583
   171  H    0.004005
   172  H    0.107933
   173  Ca   1.324874
   174  O   -0.304426
   175  H    0.222443
   176  H    0.163584
 Sum of Mulliken charges =  -0.00000

 Dipole moment (field-independent basis, Debye):
    X=            -29.0364    Y=            -28.3791    Z=              2.8762  Tot=             40.7033
 Quadrupole moment (field-independent basis, Debye-Ang):
   XX=           -635.5132   YY=           -184.0728   ZZ=           -520.1072
   XY=             42.6638   XZ=             81.0453   YZ=            -86.7382

 ESP charges:
               1
     1  C   -0.478038
     2  C    0.713722
     3  O   -0.628595
     4  H    0.129543
     5  H    0.111045
     6  H    0.126316
     7  N   -0.436366
     8  C    0.108700
     9  C    0.565193
    10  O   -0.550222
    11  C   -0.400367
    12  C    0.784914
    13  O   -0.658716
    14  O   -0.718911
    15  H    0.215988
    16  H    0.088455
    17  H    0.080259
    18  H    0.137579
    19  N   -0.515444
    20  C    0.032819
    21  C    0.449862
    22  O   -0.471497
    23  C   -0.286748
    24  C    0.318823
    25  C   -0.221238
    26  C    0.294196
    27  N   -0.487720
    28  H    0.377877
    29  H    0.079430
    30  H    0.142570
    31  H    0.064218
    32  H   -0.084457
    33  H   -0.041859
    34  H    0.055443
    35  H    0.052233
    36  H   -0.009149
    37  H    0.020352
    38  H    0.343338
    39  H    0.338817
    40  H    0.386269
    41  N   -0.343803
    42  C   -0.091697
    43  C    0.578015
    44  O   -0.586561
    45  C    0.013613
    46  C    0.776014
    47  O   -0.877704
    48  O   -0.646173
    49  H    0.195971
    50  H    0.120569
    51  H   -0.012056
    52  H    0.016048
    53  N   -0.411118
    54  C    0.013416
    55  C    0.636307
    56  O   -0.518263
    57  H    0.308220
    58  H    0.029319
    59  H    0.099605
    60  N   -0.747536
    61  C    0.417799
    62  C    0.573886
    63  O   -0.568660
    64  C   -0.366402
    65  C    0.652866
    66  N   -0.769733
    67  O   -0.498058
    68  H    0.373456
    69  H    0.016824
    70  H    0.110246
    71  H    0.117789
    72  H    0.371518
    73  H    0.357164
    74  N   -0.504586
    75  C    0.031425
    76  C    0.410433
    77  O   -0.560019
    78  H    0.322031
    79  H    0.097873
    80  H    0.037861
    81  N   -0.189219
    82  C   -0.044126
    83  C    0.763338
    84  O   -0.596617
    85  C   -0.146897
    86  C    0.044858
    87  C   -0.151243
    88  C   -0.094452
    89  C   -0.262010
    90  C   -0.355375
    91  C    0.382481
    92  O   -0.533604
    93  H    0.111974
    94  H    0.096757
    95  H    0.061509
    96  H    0.032807
    97  H    0.129595
    98  H    0.140120
    99  H    0.156872
   100  H    0.164347
   101  H    0.385300
   102  N   -0.590135
   103  C   -0.120259
   104  C    0.624932
   105  O   -0.531632
   106  C    0.767264
   107  C    0.057951
   108  C   -0.540059
   109  C   -0.216150
   110  H    0.252390
   111  H    0.014961
   112  H   -0.277703
   113  H   -0.006819
   114  H   -0.010724
   115  H    0.119988
   116  H    0.114192
   117  H    0.111847
   118  H    0.080552
   119  H    0.025405
   120  H    0.013346
   121  N   -0.421724
   122  C   -0.161096
   123  C    0.634032
   124  O   -0.516948
   125  C    0.252235
   126  O   -0.629617
   127  H    0.332806
   128  H    0.100012
   129  H    0.042996
   130  H    0.044562
   131  H    0.395712
   132  N   -0.596216
   133  C    0.086257
   134  C    0.731661
   135  O   -0.545308
   136  C   -0.414197
   137  H    0.331091
   138  H    0.086544
   139  H    0.139686
   140  H    0.125182
   141  H    0.114143
   142  N   -0.647647
   143  C    0.338768
   144  C    0.262493
   145  O   -0.499153
   146  C   -0.255444
   147  H    0.275551
   148  H    0.030386
   149  H    0.070291
   150  H    0.079969
   151  H    0.064944
   152  N   -0.080760
   153  C   -0.498387
   154  C    0.684863
   155  O   -0.558805
   156  C    0.829962
   157  C   -0.327008
   158  C    0.757174
   159  O   -0.759592
   160  O   -0.822963
   161  H    0.114246
   162  H    0.227306
   163  H   -0.233186
   164  H   -0.161358
   165  H    0.071959
   166  H    0.075620
   167  N   -0.336187
   168  C   -0.278423
   169  H    0.120750
   170  H    0.119365
   171  H    0.115007
   172  H    0.269523
   173  Ca   1.593184
   174  O   -0.836707
   175  H    0.481437
   176  H    0.390711
 Sum of ESP charges =   0.00000

 Normal termination of Gaussian 16 at Wed Sep 18 14:36:50 2019.
