 Gaussian 16, Revision A.03,
 Gaussian 16:  ES64L-G16RevA.03 25-Dec-2016

 ----------------------------------------------------------------------
 #b3lyp/svp scf=(tight,noincore) Test #IOP(5/87=12) Density=Current Pop
 =(MK,readradii) iop(6/33=2) iop(6/42=6)
 ----------------------------------------------------------------------

 ----------------
 Ng-31_loop3_50.0
 ----------------
 Symbolic Z-matrix:
 Charge =  0 Multiplicity = 1

                         Standard orientation:
 ---------------------------------------------------------------------
 Center     Atomic      Atomic             Coordinates (Angstroms)
 Number     Number       Type             X           Y           Z
 ---------------------------------------------------------------------
      1          6           0        3.780482   -3.922227    5.962152
      2          6           0        3.720468   -2.725983    5.017959
      3          8           0        2.679688   -2.085491    4.903307
      4          1           0        2.874002   -4.517536    5.851080
      5          1           0        4.649090   -4.534916    5.719040
      6          1           0        3.859454   -3.570540    6.990663
      7          7           0        4.769683   -2.480407    4.228503
      8          6           0        4.752783   -1.616479    3.059126
      9          6           0        3.988366   -2.302501    1.937457
     10          8           0        3.301452   -1.657866    1.150821
     11          6           0        6.145967   -1.206519    2.580094
     12          6           0        7.172630   -2.306243    2.358580
     13          8           0        8.131394   -2.093663    1.580517
     14          8           0        6.938500   -3.374467    2.962054
     15          1           0        5.589386   -3.060742    4.263119
     16          1           0        4.176432   -0.709746    3.251102
     17          1           0        6.618083   -0.608933    3.354431
     18          1           0        6.185146   -0.548022    1.708632
     19          7           0        4.275227   -3.600939    1.753423
     20          6           0        3.777089   -4.474226    0.711296
     21          6           0        4.283026   -3.957921   -0.623004
     22          8           0        5.461437   -3.698424   -0.864268
     23          6           0        4.018771   -5.959629    0.978819
     24          6           0        3.519867   -6.995415   -0.022152
     25          6           0        3.474166   -8.420429    0.517334
     26          6           0        3.263302   -9.303369   -0.703344
     27          7           0        2.860166  -10.655958   -0.290326
     28          1           0        5.032832   -3.971707    2.305750
     29          1           0        2.692107   -4.413119    0.691823
     30          1           0        3.503047   -6.145918    1.927251
     31          1           0        5.072076   -6.226984    0.965755
     32          1           0        4.218495   -6.900310   -0.853401
     33          1           0        2.571073   -6.656936   -0.447972
     34          1           0        2.628280   -8.430427    1.198344
     35          1           0        4.370907   -8.586101    1.109372
     36          1           0        4.123320   -9.282103   -1.371189
     37          1           0        2.384893   -8.951936   -1.261369
     38          1           0        1.903765  -10.541793    0.030865
     39          1           0        2.920912  -11.367163   -1.007680
     40          1           0        3.352390  -11.041771    0.498954
     41          7           0        3.316124   -3.729476   -1.520062
     42          6           0        3.578362   -3.215644   -2.856515
     43          6           0        3.498923   -1.697802   -2.900599
     44          8           0        3.682580   -1.199419   -4.010367
     45          6           0        2.572755   -3.872516   -3.789829
     46          6           0        1.123881   -3.630950   -3.375692
     47          8           0        0.659726   -4.315719   -2.443355
     48          8           0        0.474991   -2.738319   -3.967259
     49          1           0        2.403640   -4.128561   -1.353614
     50          1           0        4.585371   -3.465227   -3.176891
     51          1           0        2.612457   -4.949503   -3.609484
     52          1           0        2.782879   -3.685136   -4.844123
     53          7           0        3.362920   -0.939314   -1.801145
     54          6           0        3.593784    0.487283   -1.796377
     55          6           0        5.015238    0.954623   -2.104212
     56          8           0        5.980973    0.225097   -1.939149
     57          1           0        3.172455   -1.381033   -0.914856
     58          1           0        3.303367    0.874259   -0.813266
     59          1           0        2.895964    1.027557   -2.436418
     60          7           0        5.221220    2.225822   -2.448632
     61          6           0        4.283166    3.333594   -2.465830
     62          6           0        4.981893    4.619823   -2.075964
     63          8           0        5.260394    5.460143   -2.934567
     64          6           0        3.757811    3.416657   -3.894677
     65          6           0        2.564734    4.349775   -3.967186
     66          7           0        1.998895    4.539480   -5.162819
     67          8           0        2.144838    4.985052   -3.012036
     68          1           0        6.126915    2.509855   -2.782760
     69          1           0        3.418016    3.122620   -1.835191
     70          1           0        3.422969    2.432776   -4.250288
     71          1           0        4.506613    3.756487   -4.601862
     72          1           0        2.459396    4.057916   -5.920931
     73          1           0        1.052324    4.895556   -5.256697
     74          7           0        5.330812    4.831001   -0.800716
     75          6           0        5.198793    3.949637    0.338349
     76          6           0        3.803949    3.855736    0.920838
     77          8           0        3.668771    3.182962    1.945534
     78          1           0        5.660760    5.770589   -0.629805
     79          1           0        5.895168    4.283958    1.112487
     80          1           0        5.610779    3.006334   -0.018088
     81          7           0        2.795423    4.489123    0.321924
     82          6           0        1.424016    4.488961    0.791437
     83          6           0        0.611730    3.342392    0.229236
     84          8           0        1.086139    2.697321   -0.707684
     85          6           0        0.757018    5.789210    0.341363
     86          6           0        1.188330    7.000045    1.128350
     87          6           0        0.220115    7.517766    1.997904
     88          6           0        2.344475    7.745037    0.852460
     89          6           0        0.524775    8.644273    2.772737
     90          6           0        2.611805    8.911951    1.579610
     91          6           0        1.751889    9.322756    2.621907
     92          8           0        2.001827   10.353969    3.476267
     93          1           0        3.180703    5.109574   -0.387159
     94          1           0        1.478454    4.526920    1.877805
     95          1           0       -0.317573    5.588679    0.375155
     96          1           0        1.100478    5.985304   -0.673616
     97          1           0       -0.752063    7.070155    2.102855
     98          1           0        3.069882    7.406291    0.135915
     99          1           0       -0.184441    8.917762    3.542943
    100          1           0        3.545340    9.392104    1.305995
    101          1           0        2.818776   10.817563    3.273600
    102          7           0       -0.543498    3.060579    0.844484
    103          6           0       -1.286958    1.837888    0.660923
    104          6           0       -2.293503    1.968164   -0.466550
    105          8           0       -2.685646    3.076290   -0.826939
    106          6           0       -1.848703    1.151796    1.911811
    107          6           0       -0.863822    0.319582    2.721458
    108          6           0       -2.687714    2.037838    2.828757
    109          6           0        0.391114    1.046346    3.221008
    110          1           0       -0.761341    3.580137    1.681804
    111          1           0       -0.545081    1.093512    0.357407
    112          1           0       -2.576085    0.475545    1.463590
    113          1           0       -0.602645   -0.534716    2.101327
    114          1           0       -1.382932   -0.010092    3.613949
    115          1           0       -2.064908    2.704668    3.420069
    116          1           0       -3.527390    2.477709    2.290186
    117          1           0       -3.120267    1.408976    3.603373
    118          1           0        0.956990    0.414161    3.899040
    119          1           0        1.025443    1.338904    2.380927
    120          1           0       -0.072975    1.875241    3.754069
    121          7           0       -2.688489    0.827612   -1.033671
    122          6           0       -3.791946    0.756677   -1.968471
    123          6           0       -5.153580    1.194020   -1.435757
    124          8           0       -5.357971    1.924732   -0.459394
    125          6           0       -3.428933    1.344973   -3.324912
    126          8           0       -2.340348    0.808127   -4.049052
    127          1           0       -2.355611   -0.049177   -0.640563
    128          1           0       -3.881316   -0.315279   -2.140001
    129          1           0       -3.258768    2.415132   -3.192991
    130          1           0       -4.220314    1.092244   -4.028932
    131          1           0       -1.490778    0.967068   -3.646226
    132          7           0       -6.136048    0.823422   -2.251547
    133          6           0       -7.523141    1.219672   -2.180420
    134          6           0       -8.322379   -0.033432   -1.867933
    135          8           0       -7.984456   -1.181943   -2.151538
    136          6           0       -7.880421    1.990488   -3.451637
    137          1           0       -5.956882    0.118880   -2.957394
    138          1           0       -7.671396    1.967963   -1.400881
    139          1           0       -8.948012    2.187297   -3.598321
    140          1           0       -7.468335    2.976470   -3.249091
    141          1           0       -7.463039    1.564992   -4.363364
    142          7           0       -9.321438    0.137434   -1.010211
    143          6           0       -9.960145   -0.812981   -0.126490
    144          6           0       -9.032419   -1.621770    0.762433
    145          8           0       -9.315554   -2.774089    1.110708
    146          6           0      -11.093733   -1.532686   -0.853471
    147          1           0       -9.512667    1.108584   -0.777835
    148          1           0      -10.407201   -0.155106    0.625801
    149          1           0      -10.641552   -2.035696   -1.713421
    150          1           0      -11.595901   -2.253408   -0.221738
    151          1           0      -11.835433   -0.822596   -1.227173
    152          7           0       -7.937138   -0.986887    1.185379
    153          6           0       -6.889822   -1.628382    1.954673
    154          6           0       -6.828274   -1.144772    3.396350
    155          8           0       -6.283932   -1.765094    4.315204
    156          6           0       -5.569608   -1.413339    1.227080
    157          6           0       -4.356637   -2.114930    1.847219
    158          6           0       -3.277704   -2.509369    0.844463
    159          8           0       -2.775034   -1.634690    0.118404
    160          8           0       -2.817313   -3.678357    0.841895
    161          1           0       -7.806895   -0.093126    0.743985
    162          1           0       -7.124553   -2.686830    2.011151
    163          1           0       -5.409714   -0.338837    1.123256
    164          1           0       -5.750043   -1.740996    0.197282
    165          1           0       -4.798182   -3.048158    2.178011
    166          1           0       -3.956101   -1.554057    2.684233
    167          7           0       -7.446588    0.008020    3.643044
    168          6           0       -7.690494    0.517156    4.980576
    169          1           0       -8.004367   -0.301173    5.628183
    170          1           0       -6.775807    0.960013    5.373578
    171          1           0       -8.474548    1.273341    4.944804
    172          1           0       -7.734838    0.630603    2.903110
    173         20           0       -1.534859   -3.482260   -1.302459
    174          8           0       -1.807007   -5.159824   -3.265980
    175          1           0       -1.554951   -5.996989   -3.663123
    176          1           0       -2.446457   -4.790934   -3.859970
 ---------------------------------------------------------------------

 SCF Done:  E(RB3LYP) =  -5333.39128434     A.U. after   31 cycles

 The electronic state is 1-A.
 Alpha  occ. eigenvalues -- -145.48117 -19.22500 -19.15099 -19.12961 -19.12626
 Alpha  occ. eigenvalues --  -19.12600 -19.12247 -19.11056 -19.10753 -19.09475
 Alpha  occ. eigenvalues --  -19.09323 -19.07698 -19.07615 -19.07362 -19.06833
 Alpha  occ. eigenvalues --  -19.06394 -19.06128 -19.05933 -19.05925 -19.04256
 Alpha  occ. eigenvalues --  -19.04065 -19.03328 -18.97815 -18.96841 -15.54067
 Alpha  occ. eigenvalues --  -14.58636 -14.38758 -14.37424 -14.37120 -14.35756
 Alpha  occ. eigenvalues --  -14.34115 -14.33652 -14.33618 -14.32667 -14.32548
 Alpha  occ. eigenvalues --  -14.32212 -14.31495 -14.30935 -14.30375 -14.28153
 Alpha  occ. eigenvalues --  -12.67702 -12.67671 -12.67525 -10.35982 -10.31091
 Alpha  occ. eigenvalues --  -10.31045 -10.29925 -10.29863 -10.28334 -10.28088
 Alpha  occ. eigenvalues --  -10.26616 -10.26419 -10.26280 -10.26069 -10.26069
 Alpha  occ. eigenvalues --  -10.25921 -10.25623 -10.25082 -10.24845 -10.23982
 Alpha  occ. eigenvalues --  -10.23970 -10.23955 -10.23946 -10.23751 -10.23706
 Alpha  occ. eigenvalues --  -10.23350 -10.23268 -10.22647 -10.22413 -10.22336
 Alpha  occ. eigenvalues --  -10.21432 -10.21200 -10.21079 -10.20971 -10.20890
 Alpha  occ. eigenvalues --  -10.20657 -10.20476 -10.20103 -10.19523 -10.19196
 Alpha  occ. eigenvalues --  -10.18401 -10.17800 -10.17752 -10.17510 -10.17298
 Alpha  occ. eigenvalues --  -10.17215 -10.17014 -10.16925 -10.16918 -10.16892
 Alpha  occ. eigenvalues --  -10.16786 -10.16714 -10.16299 -10.15451 -10.15372
 Alpha  occ. eigenvalues --  -10.13827 -10.10555  -1.90755  -1.18567  -1.18310
 Alpha  occ. eigenvalues --   -1.17482  -1.14212  -1.08803  -1.07574  -1.06176
 Alpha  occ. eigenvalues --   -1.03769  -1.03557  -1.03485  -1.02641  -1.02078
 Alpha  occ. eigenvalues --   -1.01084  -1.00962  -1.00501  -0.99880  -0.99805
 Alpha  occ. eigenvalues --   -0.99596  -0.98750  -0.98294  -0.98048  -0.97010
 Alpha  occ. eigenvalues --   -0.96976  -0.96381  -0.95751  -0.94376  -0.94000
 Alpha  occ. eigenvalues --   -0.92142  -0.91759  -0.91385  -0.90972  -0.90918
 Alpha  occ. eigenvalues --   -0.90419  -0.89995  -0.89295  -0.89105  -0.88636
 Alpha  occ. eigenvalues --   -0.88614  -0.87445  -0.86214  -0.85476  -0.83279
 Alpha  occ. eigenvalues --   -0.82213  -0.82140  -0.81964  -0.80828  -0.79983
 Alpha  occ. eigenvalues --   -0.78411  -0.77082  -0.76753  -0.75828  -0.75006
 Alpha  occ. eigenvalues --   -0.74881  -0.74340  -0.73649  -0.72843  -0.72469
 Alpha  occ. eigenvalues --   -0.72458  -0.71293  -0.71272  -0.70451  -0.69946
 Alpha  occ. eigenvalues --   -0.69370  -0.69142  -0.68641  -0.68191  -0.67222
 Alpha  occ. eigenvalues --   -0.67161  -0.66274  -0.65109  -0.64850  -0.63808
 Alpha  occ. eigenvalues --   -0.63473  -0.63376  -0.62718  -0.62272  -0.61409
 Alpha  occ. eigenvalues --   -0.61190  -0.60896  -0.60393  -0.59544  -0.59477
 Alpha  occ. eigenvalues --   -0.59360  -0.59250  -0.58313  -0.57845  -0.57671
 Alpha  occ. eigenvalues --   -0.57514  -0.57388  -0.57226  -0.56376  -0.55754
 Alpha  occ. eigenvalues --   -0.55329  -0.54870  -0.54616  -0.54192  -0.53999
 Alpha  occ. eigenvalues --   -0.53854  -0.53051  -0.52853  -0.52743  -0.52260
 Alpha  occ. eigenvalues --   -0.52095  -0.51796  -0.51648  -0.51576  -0.51126
 Alpha  occ. eigenvalues --   -0.50924  -0.50837  -0.50547  -0.50489  -0.49977
 Alpha  occ. eigenvalues --   -0.49803  -0.49482  -0.49341  -0.48957  -0.48642
 Alpha  occ. eigenvalues --   -0.48276  -0.48014  -0.47780  -0.47699  -0.47501
 Alpha  occ. eigenvalues --   -0.47422  -0.47140  -0.46847  -0.46448  -0.46205
 Alpha  occ. eigenvalues --   -0.45990  -0.45876  -0.45586  -0.45143  -0.44892
 Alpha  occ. eigenvalues --   -0.44669  -0.44583  -0.44443  -0.44345  -0.43783
 Alpha  occ. eigenvalues --   -0.43702  -0.43539  -0.43490  -0.43002  -0.42955
 Alpha  occ. eigenvalues --   -0.42787  -0.42642  -0.42521  -0.42512  -0.42258
 Alpha  occ. eigenvalues --   -0.42174  -0.41961  -0.41922  -0.41846  -0.41712
 Alpha  occ. eigenvalues --   -0.41485  -0.41443  -0.41214  -0.41118  -0.41105
 Alpha  occ. eigenvalues --   -0.41022  -0.40833  -0.40597  -0.40470  -0.40395
 Alpha  occ. eigenvalues --   -0.40225  -0.40223  -0.40074  -0.39680  -0.39649
 Alpha  occ. eigenvalues --   -0.39541  -0.39335  -0.38974  -0.38865  -0.38767
 Alpha  occ. eigenvalues --   -0.38635  -0.38340  -0.38276  -0.38231  -0.38140
 Alpha  occ. eigenvalues --   -0.38066  -0.37844  -0.37594  -0.37467  -0.37371
 Alpha  occ. eigenvalues --   -0.37263  -0.37132  -0.37049  -0.36927  -0.36761
 Alpha  occ. eigenvalues --   -0.36685  -0.36422  -0.36397  -0.36126  -0.35840
 Alpha  occ. eigenvalues --   -0.35726  -0.35493  -0.35336  -0.35066  -0.34950
 Alpha  occ. eigenvalues --   -0.34658  -0.34625  -0.33995  -0.33854  -0.33724
 Alpha  occ. eigenvalues --   -0.33523  -0.33421  -0.33270  -0.33223  -0.33207
 Alpha  occ. eigenvalues --   -0.32440  -0.32321  -0.32189  -0.32030  -0.31845
 Alpha  occ. eigenvalues --   -0.31280  -0.31040  -0.30876  -0.30747  -0.30673
 Alpha  occ. eigenvalues --   -0.30647  -0.30180  -0.30112  -0.29412  -0.28817
 Alpha  occ. eigenvalues --   -0.28678  -0.28474  -0.28105  -0.27952  -0.27582
 Alpha  occ. eigenvalues --   -0.27375  -0.26241  -0.26151  -0.26088  -0.25950
 Alpha  occ. eigenvalues --   -0.25767  -0.25309  -0.24700  -0.24427  -0.24397
 Alpha  occ. eigenvalues --   -0.24360  -0.24330  -0.24153  -0.23893  -0.23639
 Alpha  occ. eigenvalues --   -0.23374  -0.23301  -0.22837  -0.22686  -0.22601
 Alpha  occ. eigenvalues --   -0.22084  -0.21771  -0.21229  -0.21118  -0.20834
 Alpha  occ. eigenvalues --   -0.20531  -0.19812  -0.19557  -0.19429  -0.18812
 Alpha  occ. eigenvalues --   -0.14968  -0.14239  -0.12570
 Alpha virt. eigenvalues --   -0.11530  -0.08404  -0.06017  -0.04863  -0.02702
 Alpha virt. eigenvalues --   -0.02524  -0.01996  -0.01038  -0.00841   0.00016
 Alpha virt. eigenvalues --    0.00360   0.00680   0.00766   0.01458   0.01586

 Mulliken charges:
               1
     1  C    0.065385
     2  C    0.003287
     3  O   -0.308435
     4  H    0.010950
     5  H   -0.003746
     6  H    0.028219
     7  N   -0.123526
     8  C    0.117362
     9  C    0.094824
    10  O   -0.302087
    11  C    0.069091
    12  C    0.072782
    13  O   -0.325837
    14  O   -0.420731
    15  H    0.107839
    16  H    0.009995
    17  H    0.000244
    18  H    0.014358
    19  N   -0.122990
    20  C    0.165867
    21  C    0.047416
    22  O   -0.231584
    23  C    0.033948
    24  C   -0.071730
    25  C   -0.010682
    26  C    0.043903
    27  N    0.110517
    28  H    0.117232
    29  H   -0.050626
    30  H    0.008951
    31  H    0.037499
    32  H    0.034372
    33  H   -0.000978
    34  H    0.019042
    35  H    0.051193
    36  H    0.089946
    37  H    0.056277
    38  H    0.154524
    39  H    0.156150
    40  H    0.161985
    41  N   -0.179007
    42  C    0.101951
    43  C    0.092292
    44  O   -0.302899
    45  C    0.144672
    46  C    0.074037
    47  O   -0.489778
    48  O   -0.349068
    49  H    0.102293
    50  H    0.039975
    51  H   -0.044114
    52  H    0.021229
    53  N   -0.107524
    54  C    0.163967
    55  C    0.032163
    56  O   -0.235139
    57  H    0.127618
    58  H    0.047161
    59  H    0.009776
    60  N   -0.112814
    61  C   -0.009606
    62  C    0.057891
    63  O   -0.258141
    64  C    0.099762
    65  C    0.009242
    66  N   -0.038847
    67  O   -0.271012
    68  H    0.116663
    69  H    0.055795
    70  H    0.031518
    71  H    0.016680
    72  H    0.107682
    73  H    0.126556
    74  N   -0.176072
    75  C    0.204401
    76  C    0.008454
    77  O   -0.285347
    78  H    0.124068
    79  H    0.040888
    80  H    0.060337
    81  N   -0.123166
    82  C    0.117117
    83  C    0.127011
    84  O   -0.268140
    85  C    0.071299
    86  C    0.014715
    87  C   -0.018267
    88  C   -0.007546
    89  C   -0.023928
    90  C   -0.059141
    91  C    0.198704
    92  O   -0.199339
    93  H    0.143133
    94  H    0.012555
    95  H    0.008452
    96  H    0.031559
    97  H   -0.034990
    98  H   -0.042790
    99  H   -0.028739
   100  H   -0.043087
   101  H    0.174135
   102  N   -0.098752
   103  C    0.110454
   104  C    0.085303
   105  O   -0.265656
   106  C   -0.095604
   107  C    0.022573
   108  C    0.050363
   109  C    0.015432
   110  H    0.117778
   111  H   -0.004806
   112  H   -0.018552
   113  H   -0.016456
   114  H   -0.011083
   115  H    0.001297
   116  H    0.025788
   117  H   -0.008848
   118  H    0.048690
   119  H    0.045542
   120  H   -0.022699
   121  N   -0.140523
   122  C    0.075549
   123  C    0.111758
   124  O   -0.270138
   125  C    0.265707
   126  O   -0.327761
   127  H    0.127281
   128  H   -0.046847
   129  H    0.028044
   130  H   -0.030567
   131  H    0.172965
   132  N   -0.135756
   133  C    0.031282
   134  C    0.099663
   135  O   -0.273176
   136  C    0.068668
   137  H    0.126018
   138  H    0.014241
   139  H    0.011016
   140  H    0.034638
   141  H    0.025891
   142  N   -0.145682
   143  C    0.049815
   144  C    0.064044
   145  O   -0.261384
   146  C    0.095400
   147  H    0.117311
   148  H    0.012608
   149  H    0.033389
   150  H    0.029172
   151  H   -0.002097
   152  N   -0.150821
   153  C    0.121559
   154  C    0.073588
   155  O   -0.275419
   156  C   -0.043297
   157  C    0.141839
   158  C    0.107671
   159  O   -0.430507
   160  O   -0.446561
   161  H    0.111469
   162  H    0.036363
   163  H    0.017353
   164  H    0.004073
   165  H    0.005947
   166  H    0.058957
   167  N   -0.150964
   168  C    0.132604
   169  H    0.039546
   170  H    0.032283
   171  H    0.008900
   172  H    0.101507
   173  Ca   1.365050
   174  O   -0.293325
   175  H    0.195757
   176  H    0.177675
 Sum of Mulliken charges =  -0.00000

 Dipole moment (field-independent basis, Debye):
    X=            -23.1444    Y=            -32.4870    Z=             -9.9419  Tot=             41.1085
 Quadrupole moment (field-independent basis, Debye-Ang):
   XX=           -670.3115   YY=           -116.4778   ZZ=           -594.6992
   XY=            -72.6197   XZ=             12.0132   YZ=             60.5385

 ESP charges:
               1
     1  C   -0.488305
     2  C    0.733507
     3  O   -0.619319
     4  H    0.123894
     5  H    0.096467
     6  H    0.135819
     7  N   -0.623562
     8  C    0.252911
     9  C    0.585954
    10  O   -0.604671
    11  C   -0.253076
    12  C    0.750786
    13  O   -0.623644
    14  O   -0.753284
    15  H    0.330692
    16  H    0.032771
    17  H    0.053616
    18  H    0.062831
    19  N   -0.538836
    20  C    0.139258
    21  C    0.711306
    22  O   -0.531570
    23  C   -0.375940
    24  C    0.297530
    25  C   -0.160329
    26  C    0.097245
    27  N   -0.264514
    28  H    0.317463
    29  H    0.059504
    30  H    0.099219
    31  H    0.118592
    32  H   -0.035196
    33  H   -0.057179
    34  H    0.044057
    35  H    0.069517
    36  H    0.081076
    37  H    0.044419
    38  H    0.266734
    39  H    0.276476
    40  H    0.275896
    41  N   -0.518502
    42  C    0.015506
    43  C    0.625860
    44  O   -0.563329
    45  C   -0.086880
    46  C    0.664581
    47  O   -0.659095
    48  O   -0.669039
    49  H    0.131527
    50  H    0.105316
    51  H   -0.015428
    52  H    0.063788
    53  N   -0.583700
    54  C    0.089446
    55  C    0.628579
    56  O   -0.498778
    57  H    0.342241
    58  H    0.096969
    59  H    0.047887
    60  N   -0.799947
    61  C    0.833465
    62  C    0.304245
    63  O   -0.534973
    64  C   -0.392160
    65  C    0.704619
    66  N   -0.837552
    67  O   -0.539800
    68  H    0.341156
    69  H   -0.170756
    70  H    0.079850
    71  H    0.093478
    72  H    0.358624
    73  H    0.386874
    74  N   -0.326655
    75  C   -0.252300
    76  C    0.514898
    77  O   -0.541365
    78  H    0.278775
    79  H    0.156656
    80  H    0.134683
    81  N   -0.307950
    82  C   -0.022645
    83  C    0.776274
    84  O   -0.560348
    85  C   -0.168734
    86  C    0.166853
    87  C   -0.215115
    88  C   -0.158591
    89  C   -0.242386
    90  C   -0.351351
    91  C    0.400350
    92  O   -0.557795
    93  H    0.209121
    94  H    0.058337
    95  H    0.063547
    96  H    0.062293
    97  H    0.144686
    98  H    0.154966
    99  H    0.153305
   100  H    0.150570
   101  H    0.412269
   102  N   -0.544588
   103  C   -0.622199
   104  C    0.985342
   105  O   -0.581928
   106  C    1.032550
   107  C    0.077125
   108  C   -0.353947
   109  C   -0.369101
   110  H    0.293987
   111  H    0.120902
   112  H   -0.305813
   113  H   -0.047758
   114  H   -0.044330
   115  H    0.049340
   116  H    0.047553
   117  H    0.051513
   118  H    0.145380
   119  H    0.101919
   120  H    0.034532
   121  N   -0.717990
   122  C    0.140467
   123  C    0.693139
   124  O   -0.523302
   125  C    0.069499
   126  O   -0.595241
   127  H    0.298919
   128  H    0.054173
   129  H    0.054954
   130  H    0.081834
   131  H    0.414358
   132  N   -0.881693
   133  C    0.530383
   134  C    0.466962
   135  O   -0.498187
   136  C   -0.481095
   137  H    0.341489
   138  H    0.018703
   139  H    0.098181
   140  H    0.138565
   141  H    0.145000
   142  N   -0.569991
   143  C    0.390257
   144  C    0.459181
   145  O   -0.509330
   146  C   -0.365648
   147  H    0.266757
   148  H   -0.000460
   149  H    0.119469
   150  H    0.092763
   151  H    0.093688
   152  N   -0.558327
   153  C    0.235757
   154  C    0.405402
   155  O   -0.508865
   156  C    0.062170
   157  C   -0.167132
   158  C    0.680005
   159  O   -0.717164
   160  O   -0.705582
   161  H    0.216110
   162  H    0.072574
   163  H   -0.016145
   164  H    0.016539
   165  H    0.025990
   166  H    0.079953
   167  N   -0.265249
   168  C   -0.247933
   169  H    0.134677
   170  H    0.111962
   171  H    0.098843
   172  H    0.263339
   173  Ca   1.569141
   174  O   -0.868061
   175  H    0.458817
   176  H    0.422354
 Sum of ESP charges =  -0.00000

 Normal termination of Gaussian 16 at Wed Sep 18 19:57:07 2019.
