 Gaussian 16, Revision A.03,
 Gaussian 16:  ES64L-G16RevA.03 25-Dec-2016

 ----------------------------------------------------------------------
 #b3lyp/svp scf=(tight,noincore) Test #IOP(5/87=12) Density=Current Pop
 =(MK,readradii) iop(6/33=2) iop(6/42=6)
 ----------------------------------------------------------------------

 ----------------
 Ng-31_loop3_47.0
 ----------------
 Symbolic Z-matrix:
 Charge =  0 Multiplicity = 1

                         Standard orientation:
 ---------------------------------------------------------------------
 Center     Atomic      Atomic             Coordinates (Angstroms)
 Number     Number       Type             X           Y           Z
 ---------------------------------------------------------------------
      1          6           0       -4.920252    0.070145    5.536112
      2          6           0       -4.483657    0.012003    4.081669
      3          8           0       -3.350887    0.319171    3.711289
      4          1           0       -4.628377    1.028470    5.964278
      5          1           0       -6.002957   -0.038464    5.595496
      6          1           0       -4.442493   -0.736565    6.092072
      7          7           0       -5.411216   -0.322362    3.182818
      8          6           0       -5.088426   -0.687919    1.814653
      9          6           0       -5.267640    0.551752    0.959260
     10          8           0       -4.429759    0.807966    0.098324
     11          6           0       -5.915585   -1.837827    1.234722
     12          6           0       -7.433102   -1.806321    1.371288
     13          8           0       -7.997356   -0.952470    2.088404
     14          8           0       -8.100090   -2.615116    0.690422
     15          1           0       -6.335107   -0.658093    3.397782
     16          1           0       -4.099937   -1.160979    1.800404
     17          1           0       -5.624626   -2.696686    1.845380
     18          1           0       -5.599618   -1.937958    0.195954
     19          7           0       -6.434195    1.213949    0.988333
     20          6           0       -6.817720    2.208654    0.008247
     21          6           0       -6.926378    1.434125   -1.290675
     22          8           0       -7.750860    0.529130   -1.408209
     23          6           0       -8.183089    2.787642    0.383801
     24          6           0       -8.129060    3.859443    1.463303
     25          6           0       -9.514833    4.096374    2.045451
     26          6           0       -9.393623    5.100129    3.187854
     27          7           0      -10.776421    5.345224    3.607139
     28          1           0       -7.099492    0.895621    1.672473
     29          1           0       -6.142811    3.064384    0.003303
     30          1           0       -8.852716    1.984608    0.704016
     31          1           0       -8.638301    3.311750   -0.451718
     32          1           0       -7.724020    4.769177    1.008520
     33          1           0       -7.463141    3.534837    2.264167
     34          1           0       -9.957143    3.184399    2.445407
     35          1           0      -10.233355    4.393458    1.274175
     36          1           0       -9.040853    6.061933    2.810251
     37          1           0       -8.820101    4.787722    4.065621
     38          1           0      -11.293664    5.730761    2.823099
     39          1           0      -11.168492    4.463444    3.935231
     40          1           0      -10.867397    6.094231    4.284052
     41          7           0       -6.082409    1.835371   -2.249224
     42          6           0       -5.870008    1.239381   -3.554820
     43          6           0       -5.046749   -0.040867   -3.518609
     44          8           0       -4.834208   -0.638763   -4.568869
     45          6           0       -5.061494    2.276972   -4.329229
     46          6           0       -3.765295    2.602719   -3.607664
     47          8           0       -2.711222    2.035835   -3.950845
     48          8           0       -3.738304    3.502527   -2.736218
     49          1           0       -5.586844    2.710217   -2.129387
     50          1           0       -6.759597    0.944701   -4.112668
     51          1           0       -5.634235    3.175870   -4.538395
     52          1           0       -4.932524    1.903405   -5.346438
     53          7           0       -4.554998   -0.413495   -2.342034
     54          6           0       -3.678132   -1.558052   -2.165414
     55          6           0       -4.430215   -2.869273   -1.950775
     56          8           0       -5.564002   -3.069642   -2.368363
     57          1           0       -4.861796    0.090277   -1.526627
     58          1           0       -3.205960   -1.387874   -1.194696
     59          1           0       -2.960858   -1.511820   -2.983205
     60          7           0       -3.728495   -3.899933   -1.459115
     61          6           0       -2.365548   -3.860351   -0.986455
     62          6           0       -2.335620   -4.341880    0.457440
     63          8           0       -2.952828   -5.348192    0.783158
     64          6           0       -1.452233   -4.814370   -1.750722
     65          6           0       -1.245440   -4.600822   -3.246093
     66          7           0       -0.388870   -5.398187   -3.897934
     67          8           0       -1.757409   -3.640149   -3.823757
     68          1           0       -4.142237   -4.808735   -1.323117
     69          1           0       -1.936030   -2.857449   -1.067713
     70          1           0       -1.783796   -5.845530   -1.683828
     71          1           0       -0.491884   -4.811263   -1.243653
     72          1           0        0.199823   -6.084104   -3.442020
     73          1           0       -0.416741   -5.363191   -4.901826
     74          7           0       -1.735337   -3.648571    1.432776
     75          6           0       -1.114309   -2.356029    1.231385
     76          6           0        0.328116   -2.450058    0.754449
     77          8           0        0.804710   -1.590260    0.008657
     78          1           0       -1.589806   -4.172181    2.292750
     79          1           0       -1.166781   -1.798074    2.170817
     80          1           0       -1.753752   -1.768171    0.580512
     81          7           0        1.019883   -3.510330    1.173832
     82          6           0        2.459738   -3.664493    1.062241
     83          6           0        2.818110   -3.884643   -0.398068
     84          8           0        2.577770   -4.912525   -1.024403
     85          6           0        2.924360   -4.870080    1.875437
     86          6           0        2.872812   -4.818670    3.393067
     87          6           0        2.911939   -3.618975    4.105388
     88          6           0        2.783793   -5.988380    4.154350
     89          6           0        3.155950   -3.552979    5.472576
     90          6           0        2.741006   -5.985106    5.554907
     91          6           0        3.048523   -4.764051    6.189697
     92          8           0        3.265670   -4.751167    7.540838
     93          1           0        0.583079   -4.148630    1.817862
     94          1           0        2.908021   -2.774296    1.490832
     95          1           0        3.886899   -5.184081    1.496596
     96          1           0        2.294781   -5.678541    1.504734
     97          1           0        3.089515   -2.710312    3.542628
     98          1           0        2.809239   -6.933295    3.624834
     99          1           0        3.448678   -2.606635    5.913420
    100          1           0        2.680621   -6.891378    6.125454
    101          1           0        3.002919   -5.573197    7.971916
    102          7           0        3.572809   -2.914939   -0.932487
    103          6           0        4.130457   -2.824891   -2.263697
    104          6           0        5.537338   -2.244240   -2.284407
    105          8           0        6.059887   -2.371213   -3.393199
    106          6           0        3.299505   -1.892317   -3.130429
    107          6           0        2.015246   -2.634033   -3.467381
    108          6           0        3.021971   -0.452352   -2.683242
    109          6           0        1.208283   -1.974758   -4.572717
    110          1           0        3.800944   -2.185992   -0.274695
    111          1           0        4.227174   -3.862905   -2.604393
    112          1           0        3.760087   -1.897595   -4.114521
    113          1           0        1.345875   -2.638528   -2.599958
    114          1           0        2.293365   -3.633948   -3.801624
    115          1           0        3.957895   -0.002235   -2.331045
    116          1           0        2.647309    0.240914   -3.434515
    117          1           0        2.440030   -0.404768   -1.760648
    118          1           0        0.311997   -2.555917   -4.800588
    119          1           0        0.837886   -0.992109   -4.269884
    120          1           0        1.768689   -1.790051   -5.486516
    121          7           0        6.128153   -1.652157   -1.251075
    122          6           0        7.422839   -0.998696   -1.275097
    123          6           0        7.498142    0.264017   -0.433083
    124          8           0        6.884929    0.492729    0.609155
    125          6           0        8.563382   -1.958376   -0.924135
    126          8           0        8.381699   -3.195711   -1.559899
    127          1           0        5.538887   -1.425703   -0.465783
    128          1           0        7.610444   -0.648756   -2.292420
    129          1           0        8.679927   -2.153277    0.142744
    130          1           0        9.531608   -1.506684   -1.148440
    131          1           0        7.689697   -3.606439   -1.036224
    132          7           0        8.310669    1.165591   -0.982141
    133          6           0        8.717489    2.396847   -0.316781
    134          6           0        7.580720    3.410053   -0.252988
    135          8           0        6.615840    3.232571   -0.997909
    136          6           0        9.966973    2.889938   -1.036747
    137          1           0        8.671495    0.969376   -1.908858
    138          1           0        9.103292    2.072162    0.641674
    139          1           0       10.431675    3.763331   -0.567559
    140          1           0       10.698204    2.083490   -0.993816
    141          1           0        9.693591    3.232181   -2.035862
    142          7           0        7.791408    4.476849    0.512294
    143          6           0        7.006051    5.667125    0.716642
    144          6           0        5.567275    5.536675    1.207566
    145          8           0        5.116307    6.518158    1.798682
    146          6           0        7.094303    6.669734   -0.431264
    147          1           0        8.633099    4.468572    1.074956
    148          1           0        7.579108    6.218860    1.464568
    149          1           0        6.591360    6.198548   -1.270270
    150          1           0        6.453045    7.513860   -0.157516
    151          1           0        8.134304    6.788721   -0.709004
    152          7           0        4.961668    4.361687    1.025235
    153          6           0        3.616079    4.087537    1.480572
    154          6           0        3.499303    4.144373    3.002194
    155          8           0        2.413256    4.481802    3.460388
    156          6           0        3.170442    2.734082    0.923196
    157          6           0        2.822583    2.763420   -0.566983
    158          6           0        1.646801    3.638595   -0.978086
    159          8           0        0.564659    3.720173   -0.358880
    160          8           0        1.564636    4.050455   -2.153807
    161          1           0        5.348871    3.786451    0.293062
    162          1           0        3.010474    4.880565    1.053664
    163          1           0        2.225756    2.527655    1.424251
    164          1           0        3.855820    1.961802    1.247605
    165          1           0        2.567757    1.727105   -0.767268
    166          1           0        3.689162    2.908982   -1.209441
    167          7           0        4.482077    3.791605    3.833223
    168          6           0        4.386875    3.736938    5.282723
    169          1           0        4.626700    4.715623    5.699476
    170          1           0        3.373190    3.458972    5.570228
    171          1           0        5.089784    2.997772    5.665724
    172          1           0        5.341744    3.541628    3.364839
    173         20           0       -1.057716    3.170876   -2.523961
    174          8           0        0.471066    2.126857   -4.406977
    175          1           0        1.194928    2.535287   -4.882906
    176          1           0        0.133890    1.467155   -5.011713
 ---------------------------------------------------------------------

 SCF Done:  E(RB3LYP) =  -5333.38625349     A.U. after   33 cycles

 The electronic state is 1-A.
 Alpha  occ. eigenvalues -- -145.43049 -19.18241 -19.16592 -19.13863 -19.12176
 Alpha  occ. eigenvalues --  -19.12143 -19.10380 -19.10039 -19.08872 -19.08580
 Alpha  occ. eigenvalues --  -19.08026 -19.07946 -19.07521 -19.07292 -19.06328
 Alpha  occ. eigenvalues --  -19.05705 -19.05414 -19.05048 -19.04232 -19.04021
 Alpha  occ. eigenvalues --  -19.03291 -19.02684 -18.98240 -18.96014 -15.48994
 Alpha  occ. eigenvalues --  -14.57624 -14.38382 -14.37749 -14.37368 -14.36622
 Alpha  occ. eigenvalues --  -14.35714 -14.35172 -14.33525 -14.33387 -14.33173
 Alpha  occ. eigenvalues --  -14.31489 -14.31432 -14.30589 -14.30212 -14.28439
 Alpha  occ. eigenvalues --  -12.62643 -12.62566 -12.62472 -10.34774 -10.30905
 Alpha  occ. eigenvalues --  -10.30485 -10.28943 -10.28751 -10.28316 -10.27290
 Alpha  occ. eigenvalues --  -10.27224 -10.26822 -10.26729 -10.26498 -10.26111
 Alpha  occ. eigenvalues --  -10.26097 -10.25042 -10.24986 -10.24844 -10.24785
 Alpha  occ. eigenvalues --  -10.24506 -10.24463 -10.24422 -10.24084 -10.23862
 Alpha  occ. eigenvalues --  -10.22991 -10.22889 -10.22844 -10.22749 -10.22346
 Alpha  occ. eigenvalues --  -10.21819 -10.21575 -10.21573 -10.20848 -10.20737
 Alpha  occ. eigenvalues --  -10.20466 -10.20299 -10.20196 -10.20042 -10.19902
 Alpha  occ. eigenvalues --  -10.19708 -10.19679 -10.19430 -10.18583 -10.18160
 Alpha  occ. eigenvalues --  -10.18074 -10.17670 -10.17389 -10.16831 -10.16830
 Alpha  occ. eigenvalues --  -10.16733 -10.16712 -10.16528 -10.16160 -10.15274
 Alpha  occ. eigenvalues --  -10.14681 -10.12275  -1.85624  -1.13514  -1.13253
 Alpha  occ. eigenvalues --   -1.12971  -1.12459  -1.05670  -1.05050  -1.04463
 Alpha  occ. eigenvalues --   -1.03990  -1.03702  -1.03224  -1.02865  -1.02594
 Alpha  occ. eigenvalues --   -1.01907  -1.01778  -1.01315  -1.00212  -1.00166
 Alpha  occ. eigenvalues --   -0.99932  -0.99114  -0.98320  -0.97943  -0.96842
 Alpha  occ. eigenvalues --   -0.95653  -0.95215  -0.94649  -0.93791  -0.93570
 Alpha  occ. eigenvalues --   -0.92435  -0.92208  -0.91998  -0.91251  -0.91223
 Alpha  occ. eigenvalues --   -0.89309  -0.88804  -0.88625  -0.88270  -0.88014
 Alpha  occ. eigenvalues --   -0.87851  -0.87773  -0.87202  -0.86038  -0.85226
 Alpha  occ. eigenvalues --   -0.82057  -0.81463  -0.80889  -0.80808  -0.79456
 Alpha  occ. eigenvalues --   -0.78741  -0.77082  -0.76507  -0.75983  -0.75884
 Alpha  occ. eigenvalues --   -0.75443  -0.74864  -0.74477  -0.73767  -0.73173
 Alpha  occ. eigenvalues --   -0.72702  -0.71485  -0.71195  -0.71110  -0.69317
 Alpha  occ. eigenvalues --   -0.69182  -0.68865  -0.68740  -0.68089  -0.67013
 Alpha  occ. eigenvalues --   -0.66994  -0.66792  -0.66364  -0.65391  -0.63452
 Alpha  occ. eigenvalues --   -0.62984  -0.62472  -0.62440  -0.61973  -0.61652
 Alpha  occ. eigenvalues --   -0.60756  -0.60427  -0.60286  -0.60248  -0.59417
 Alpha  occ. eigenvalues --   -0.59254  -0.58876  -0.58210  -0.57813  -0.57367
 Alpha  occ. eigenvalues --   -0.56943  -0.56856  -0.56724  -0.56154  -0.56021
 Alpha  occ. eigenvalues --   -0.55632  -0.55517  -0.55424  -0.55408  -0.54899
 Alpha  occ. eigenvalues --   -0.54613  -0.53817  -0.53564  -0.52975  -0.52919
 Alpha  occ. eigenvalues --   -0.52838  -0.52295  -0.51663  -0.51171  -0.50957
 Alpha  occ. eigenvalues --   -0.50673  -0.50619  -0.50384  -0.49960  -0.49729
 Alpha  occ. eigenvalues --   -0.49485  -0.49146  -0.48856  -0.48712  -0.48511
 Alpha  occ. eigenvalues --   -0.47911  -0.47876  -0.47745  -0.47589  -0.47465
 Alpha  occ. eigenvalues --   -0.47152  -0.46507  -0.46437  -0.46340  -0.45805
 Alpha  occ. eigenvalues --   -0.45198  -0.45027  -0.44950  -0.44580  -0.44497
 Alpha  occ. eigenvalues --   -0.44400  -0.44275  -0.44115  -0.44103  -0.43875
 Alpha  occ. eigenvalues --   -0.43758  -0.43675  -0.43564  -0.43499  -0.43413
 Alpha  occ. eigenvalues --   -0.43203  -0.43165  -0.43088  -0.42962  -0.42745
 Alpha  occ. eigenvalues --   -0.42581  -0.42515  -0.42245  -0.42090  -0.41975
 Alpha  occ. eigenvalues --   -0.41892  -0.41660  -0.41588  -0.41557  -0.41225
 Alpha  occ. eigenvalues --   -0.41127  -0.41088  -0.40739  -0.40490  -0.40299
 Alpha  occ. eigenvalues --   -0.40238  -0.40190  -0.40052  -0.39830  -0.39543
 Alpha  occ. eigenvalues --   -0.39437  -0.39191  -0.39044  -0.38796  -0.38684
 Alpha  occ. eigenvalues --   -0.38524  -0.38295  -0.38207  -0.38039  -0.37982
 Alpha  occ. eigenvalues --   -0.37633  -0.37606  -0.37267  -0.37187  -0.37136
 Alpha  occ. eigenvalues --   -0.36956  -0.36893  -0.36875  -0.36716  -0.36594
 Alpha  occ. eigenvalues --   -0.36214  -0.36163  -0.35982  -0.35821  -0.35686
 Alpha  occ. eigenvalues --   -0.35528  -0.35439  -0.35354  -0.35297  -0.35164
 Alpha  occ. eigenvalues --   -0.34690  -0.34496  -0.34476  -0.34385  -0.34370
 Alpha  occ. eigenvalues --   -0.34269  -0.33798  -0.33797  -0.33433  -0.33352
 Alpha  occ. eigenvalues --   -0.33270  -0.32752  -0.32419  -0.32259  -0.32145
 Alpha  occ. eigenvalues --   -0.31756  -0.31325  -0.31053  -0.30960  -0.30600
 Alpha  occ. eigenvalues --   -0.29870  -0.29508  -0.29270  -0.28834  -0.28553
 Alpha  occ. eigenvalues --   -0.28196  -0.28173  -0.27904  -0.27742  -0.27151
 Alpha  occ. eigenvalues --   -0.26916  -0.26754  -0.26284  -0.25961  -0.25649
 Alpha  occ. eigenvalues --   -0.25467  -0.25341  -0.25126  -0.24707  -0.24503
 Alpha  occ. eigenvalues --   -0.24127  -0.23907  -0.23888  -0.23733  -0.23488
 Alpha  occ. eigenvalues --   -0.23481  -0.23017  -0.22951  -0.22903  -0.22623
 Alpha  occ. eigenvalues --   -0.21910  -0.21250  -0.21202  -0.21169  -0.20723
 Alpha  occ. eigenvalues --   -0.20204  -0.20072  -0.18783  -0.18455  -0.17929
 Alpha  occ. eigenvalues --   -0.15219  -0.14468  -0.11799
 Alpha virt. eigenvalues --   -0.10541  -0.04661  -0.04100  -0.02806  -0.02659
 Alpha virt. eigenvalues --   -0.01080  -0.00826  -0.00685  -0.00655   0.00561
 Alpha virt. eigenvalues --    0.00737   0.01349   0.01866   0.02045   0.02220

 Mulliken charges:
               1
     1  C    0.071214
     2  C    0.002894
     3  O   -0.302086
     4  H    0.018585
     5  H   -0.005062
     6  H    0.032303
     7  N   -0.129660
     8  C    0.094606
     9  C    0.129053
    10  O   -0.332312
    11  C    0.020629
    12  C    0.067488
    13  O   -0.411971
    14  O   -0.326415
    15  H    0.097321
    16  H   -0.023120
    17  H    0.006753
    18  H    0.035270
    19  N   -0.120690
    20  C    0.155400
    21  C    0.050855
    22  O   -0.236687
    23  C    0.007641
    24  C    0.027668
    25  C   -0.086679
    26  C    0.065922
    27  N    0.092128
    28  H    0.104432
    29  H   -0.011188
    30  H    0.048728
    31  H   -0.005052
    32  H    0.012961
    33  H    0.015868
    34  H    0.037391
    35  H    0.020548
    36  H    0.057178
    37  H    0.086624
    38  H    0.164758
    39  H    0.184943
    40  H    0.159319
    41  N   -0.133849
    42  C    0.080786
    43  C    0.064105
    44  O   -0.278587
    45  C    0.119046
    46  C    0.109700
    47  O   -0.454741
    48  O   -0.433547
    49  H    0.123032
    50  H    0.025871
    51  H   -0.005245
    52  H    0.016721
    53  N   -0.149657
    54  C    0.167868
    55  C    0.052429
    56  O   -0.223309
    57  H    0.152275
    58  H   -0.015024
    59  H    0.061710
    60  N   -0.099328
    61  C    0.052593
    62  C    0.066782
    63  O   -0.262366
    64  C    0.034929
    65  C    0.062769
    66  N   -0.054160
    67  O   -0.256517
    68  H    0.123951
    69  H    0.028896
    70  H    0.013749
    71  H    0.018629
    72  H    0.123591
    73  H    0.130010
    74  N   -0.150000
    75  C    0.175288
    76  C    0.053053
    77  O   -0.273125
    78  H    0.130168
    79  H    0.065688
    80  H    0.044654
    81  N   -0.104529
    82  C    0.065635
    83  C    0.103625
    84  O   -0.285460
    85  C    0.111108
    86  C   -0.032930
    87  C   -0.009927
    88  C   -0.025004
    89  C   -0.009083
    90  C    0.000458
    91  C    0.150158
    92  O   -0.211281
    93  H    0.107856
    94  H   -0.003092
    95  H    0.017937
    96  H    0.012981
    97  H   -0.022702
    98  H   -0.023807
    99  H   -0.011656
   100  H   -0.037027
   101  H    0.177132
   102  N   -0.131039
   103  C    0.148347
   104  C    0.038195
   105  O   -0.271898
   106  C   -0.063336
   107  C    0.025476
   108  C    0.017380
   109  C    0.026790
   110  H    0.112109
   111  H    0.029731
   112  H   -0.001298
   113  H    0.018961
   114  H   -0.019992
   115  H   -0.020721
   116  H    0.008033
   117  H    0.047685
   118  H    0.026623
   119  H   -0.028407
   120  H   -0.020425
   121  N   -0.123776
   122  C    0.085854
   123  C    0.077533
   124  O   -0.281561
   125  C    0.265011
   126  O   -0.279439
   127  H    0.104698
   128  H    0.015426
   129  H   -0.018996
   130  H   -0.013518
   131  H    0.164463
   132  N   -0.128702
   133  C    0.067288
   134  C    0.121042
   135  O   -0.292531
   136  C    0.027674
   137  H    0.129680
   138  H    0.011901
   139  H    0.013247
   140  H    0.035136
   141  H    0.029952
   142  N   -0.098476
   143  C    0.027749
   144  C    0.076884
   145  O   -0.277850
   146  C    0.064337
   147  H    0.123509
   148  H    0.010683
   149  H    0.013812
   150  H    0.046745
   151  H    0.000426
   152  N   -0.152120
   153  C    0.131524
   154  C    0.037022
   155  O   -0.277727
   156  C    0.025144
   157  C    0.082310
   158  C    0.073585
   159  O   -0.421211
   160  O   -0.429124
   161  H    0.143066
   162  H    0.024195
   163  H    0.023551
   164  H   -0.017575
   165  H    0.008965
   166  H    0.006174
   167  N   -0.148666
   168  C    0.141943
   169  H    0.024756
   170  H    0.040644
   171  H    0.004375
   172  H    0.100277
   173  Ca   1.387861
   174  O   -0.299832
   175  H    0.193358
   176  H    0.200309
 Sum of Mulliken charges =  -0.00000

 Dipole moment (field-independent basis, Debye):
    X=             -0.3172    Y=             22.6029    Z=             16.1480  Tot=             27.7803
 Quadrupole moment (field-independent basis, Debye-Ang):
   XX=           -265.3347   YY=           -466.5260   ZZ=           -508.8248
   XY=           -284.4054   XZ=           -142.9291   YZ=              6.3921

 ESP charges:
               1
     1  C   -0.445156
     2  C    0.765673
     3  O   -0.616405
     4  H    0.112067
     5  H    0.100591
     6  H    0.120835
     7  N   -0.708962
     8  C    0.476380
     9  C    0.434940
    10  O   -0.598282
    11  C   -0.282857
    12  C    0.693931
    13  O   -0.721195
    14  O   -0.616996
    15  H    0.290600
    16  H   -0.044859
    17  H    0.071750
    18  H    0.052306
    19  N   -0.418552
    20  C    0.244896
    21  C    0.365531
    22  O   -0.445597
    23  C   -0.234530
    24  C    0.030416
    25  C    0.058887
    26  C    0.018460
    27  N   -0.336338
    28  H    0.281050
    29  H    0.045426
    30  H    0.093561
    31  H    0.070172
    32  H    0.015085
    33  H   -0.018851
    34  H    0.040859
    35  H    0.006888
    36  H    0.064941
    37  H    0.105665
    38  H    0.294217
    39  H    0.298039
    40  H    0.303653
    41  N   -0.393385
    42  C   -0.028025
    43  C    0.517965
    44  O   -0.533335
    45  C   -0.091345
    46  C    0.603172
    47  O   -0.684603
    48  O   -0.716246
    49  H    0.233240
    50  H    0.109897
    51  H    0.054063
    52  H    0.055119
    53  N   -0.403385
    54  C   -0.085156
    55  C    0.650392
    56  O   -0.497039
    57  H    0.372111
    58  H    0.011501
    59  H    0.143690
    60  N   -0.680079
    61  C    0.625313
    62  C    0.281754
    63  O   -0.515108
    64  C   -0.341393
    65  C    0.727873
    66  N   -0.877079
    67  O   -0.553052
    68  H    0.326694
    69  H   -0.071703
    70  H    0.084120
    71  H    0.049774
    72  H    0.391384
    73  H    0.395233
    74  N   -0.266952
    75  C   -0.234534
    76  C    0.671921
    77  O   -0.581340
    78  H    0.261765
    79  H    0.136288
    80  H    0.113627
    81  N   -0.451163
    82  C   -0.223886
    83  C    0.726184
    84  O   -0.560694
    85  C   -0.153543
    86  C    0.048490
    87  C   -0.140499
    88  C   -0.096380
    89  C   -0.265915
    90  C   -0.342344
    91  C    0.409822
    92  O   -0.558804
    93  H    0.302626
    94  H    0.132320
    95  H    0.095580
    96  H    0.087006
    97  H    0.123395
    98  H    0.118881
    99  H    0.174757
   100  H    0.163301
   101  H    0.409284
   102  N   -0.446211
   103  C   -0.351287
   104  C    0.776671
   105  O   -0.575839
   106  C    0.193150
   107  C    0.108372
   108  C   -0.477384
   109  C   -0.237701
   110  H    0.267627
   111  H    0.187603
   112  H    0.033693
   113  H    0.012103
   114  H    0.004571
   115  H    0.122288
   116  H    0.109617
   117  H    0.182309
   118  H    0.052018
   119  H    0.078118
   120  H    0.032122
   121  N   -0.622645
   122  C    0.059524
   123  C    0.598819
   124  O   -0.553364
   125  C    0.317874
   126  O   -0.580746
   127  H    0.294121
   128  H    0.083696
   129  H   -0.039390
   130  H    0.009388
   131  H    0.384284
   132  N   -0.699556
   133  C    0.557227
   134  C    0.395885
   135  O   -0.456020
   136  C   -0.347986
   137  H    0.308631
   138  H   -0.043222
   139  H    0.086185
   140  H    0.087600
   141  H    0.102973
   142  N   -0.652141
   143  C    0.471179
   144  C    0.271412
   145  O   -0.489594
   146  C   -0.361709
   147  H    0.305691
   148  H   -0.011382
   149  H    0.101180
   150  H    0.108714
   151  H    0.094361
   152  N   -0.181886
   153  C   -0.372316
   154  C    0.495604
   155  O   -0.507906
   156  C   -0.014947
   157  C    0.115371
   158  C    0.699689
   159  O   -0.759619
   160  O   -0.758743
   161  H    0.233320
   162  H    0.238218
   163  H    0.053240
   164  H    0.037450
   165  H   -0.044406
   166  H   -0.034684
   167  N   -0.163259
   168  C   -0.183754
   169  H    0.084520
   170  H    0.100898
   171  H    0.082671
   172  H    0.166884
   173  Ca   1.619657
   174  O   -0.855651
   175  H    0.443688
   176  H    0.423339
 Sum of ESP charges =   0.00000

 Normal termination of Gaussian 16 at Wed Sep 18 19:56:14 2019.
