 Gaussian 16, Revision A.03,
 Gaussian 16:  ES64L-G16RevA.03 25-Dec-2016

 ----------------------------------------------------------------------
 #b3lyp/svp scf=(tight,noincore) Test #IOP(5/87=12) Density=Current Pop
 =(MK,readradii) iop(6/33=2) iop(6/42=6)
 ----------------------------------------------------------------------

 ----------------
 Ng-31_loop3_48.0
 ----------------
 Symbolic Z-matrix:
 Charge =  0 Multiplicity = 1

                         Standard orientation:
 ---------------------------------------------------------------------
 Center     Atomic      Atomic             Coordinates (Angstroms)
 Number     Number       Type             X           Y           Z
 ---------------------------------------------------------------------
      1          6           0        5.277898   -0.940921    5.493965
      2          6           0        4.836040   -0.480072    4.113792
      3          8           0        3.764450   -0.845491    3.639277
      4          1           0        5.015309   -1.990313    5.627293
      5          1           0        6.356836   -0.821940    5.589312
      6          1           0        4.776731   -0.342317    6.255110
      7          7           0        5.658968    0.256348    3.348497
      8          6           0        5.292717    0.632334    1.998018
      9          6           0        5.101265   -0.561933    1.066046
     10          8           0        4.058453   -0.953609    0.554351
     11          6           0        6.303363    1.633640    1.454528
     12          6           0        7.757757    1.366772    1.838086
     13          8           0        8.185339    0.426896    2.542294
     14          8           0        8.593838    2.146870    1.329149
     15          1           0        6.543470    0.561242    3.729019
     16          1           0        4.308971    1.095091    2.036736
     17          1           0        6.104929    2.548737    2.015618
     18          1           0        6.151134    1.782689    0.392308
     19          7           0        6.182113   -1.324672    0.943171
     20          6           0        6.558175   -2.224604   -0.131259
     21          6           0        6.406824   -1.586627   -1.505806
     22          8           0        7.289841   -0.843702   -1.917198
     23          6           0        7.943701   -2.773236    0.201639
     24          6           0        8.252509   -4.157539   -0.351483
     25          6           0        9.708122   -4.471042   -0.020114
     26          6           0       10.179602   -5.689706   -0.803673
     27          7           0       11.643338   -5.622210   -0.764663
     28          1           0        6.833734   -1.207643    1.719891
     29          1           0        5.811249   -3.022279   -0.135297
     30          1           0        8.023483   -2.891176    1.288020
     31          1           0        8.670096   -2.043254   -0.157774
     32          1           0        8.186735   -4.141596   -1.438369
     33          1           0        7.548344   -4.876844    0.052560
     34          1           0        9.900296   -4.630293    1.042575
     35          1           0       10.361709   -3.650425   -0.308927
     36          1           0        9.816209   -5.611017   -1.829029
     37          1           0        9.833144   -6.623820   -0.358368
     38          1           0       11.967446   -5.065050   -1.536626
     39          1           0       11.764948   -5.192355    0.147443
     40          1           0       12.044785   -6.537843   -0.931564
     41          7           0        5.338672   -1.872769   -2.254187
     42          6           0        4.967292   -1.387852   -3.569912
     43          6           0        4.449336    0.036850   -3.513806
     44          8           0        4.672043    0.746733   -4.480175
     45          6           0        3.845970   -2.245962   -4.130345
     46          6           0        2.631950   -2.449456   -3.237236
     47          8           0        1.581130   -2.910941   -3.732726
     48          8           0        2.777107   -2.323886   -1.995197
     49          1           0        4.565326   -2.331241   -1.797417
     50          1           0        5.893487   -1.404858   -4.148162
     51          1           0        4.224290   -3.219907   -4.448788
     52          1           0        3.461565   -1.803970   -5.057370
     53          7           0        3.930743    0.470715   -2.357726
     54          6           0        3.542242    1.835488   -2.051520
     55          6           0        4.726725    2.783818   -1.922794
     56          8           0        5.895950    2.480714   -2.132418
     57          1           0        3.793844   -0.238822   -1.656003
     58          1           0        2.870508    1.949817   -1.199815
     59          1           0        2.888448    2.179095   -2.856683
     60          7           0        4.575788    3.982894   -1.361426
     61          6           0        3.355166    4.671208   -0.974118
     62          6           0        2.891138    4.300583    0.421165
     63          8           0        3.639489    3.728831    1.215879
     64          6           0        3.581744    6.180369   -1.087234
     65          6           0        2.487185    7.157459   -0.677190
     66          7           0        2.661531    7.680315    0.538180
     67          8           0        1.568594    7.607204   -1.353444
     68          1           0        5.463366    4.426592   -1.208333
     69          1           0        2.549977    4.466048   -1.675674
     70          1           0        3.893922    6.385168   -2.111784
     71          1           0        4.449925    6.364149   -0.458993
     72          1           0        3.502115    7.546926    1.094710
     73          1           0        1.992960    8.396173    0.773887
     74          7           0        1.607168    4.387142    0.789034
     75          6           0        0.422748    4.763445    0.047652
     76          6           0       -0.701457    3.753972    0.277714
     77          8           0       -0.550296    2.707939    0.894045
     78          1           0        1.438838    4.174881    1.766127
     79          1           0        0.570912    4.745007   -1.032259
     80          1           0        0.146831    5.757213    0.391011
     81          7           0       -1.741841    4.055167   -0.506240
     82          6           0       -2.977732    3.305767   -0.457530
     83          6           0       -3.400208    3.026404   -1.894356
     84          8           0       -3.577281    3.932587   -2.706316
     85          6           0       -4.086589    4.065544    0.280493
     86          6           0       -3.889396    4.617158    1.668058
     87          6           0       -4.475003    3.982280    2.765871
     88          6           0       -3.180168    5.820028    1.757513
     89          6           0       -4.493986    4.621609    4.004862
     90          6           0       -3.019240    6.352453    3.044497
     91          6           0       -3.671964    5.758384    4.136849
     92          8           0       -3.416854    6.197959    5.403614
     93          1           0       -1.672701    4.835488   -1.146333
     94          1           0       -2.753578    2.363499    0.037127
     95          1           0       -4.885057    3.334856    0.366767
     96          1           0       -4.580855    4.869913   -0.250535
     97          1           0       -4.916825    3.008738    2.586956
     98          1           0       -2.807384    6.317740    0.876937
     99          1           0       -4.932455    4.160937    4.889128
    100          1           0       -2.479396    7.287639    2.995550
    101          1           0       -2.661516    6.778613    5.513630
    102          7           0       -3.872854    1.802761   -2.116845
    103          6           0       -4.297295    1.316527   -3.409101
    104          6           0       -5.795135    1.003539   -3.325349
    105          8           0       -6.415099    0.618377   -4.315851
    106          6           0       -3.472539    0.079556   -3.763755
    107          6           0       -3.905083   -1.146505   -2.977191
    108          6           0       -3.369530   -0.309852   -5.229855
    109          6           0       -2.965053   -2.349527   -3.029918
    110          1           0       -3.605729    1.085205   -1.459838
    111          1           0       -4.097486    2.093763   -4.158354
    112          1           0       -2.428963    0.228355   -3.483383
    113          1           0       -4.900248   -1.460072   -3.289315
    114          1           0       -4.013008   -0.922438   -1.917216
    115          1           0       -4.277052   -0.651625   -5.731249
    116          1           0       -3.079557    0.573965   -5.796321
    117          1           0       -2.498056   -0.944200   -5.409114
    118          1           0       -3.238849   -3.113317   -2.296324
    119          1           0       -2.766455   -2.628931   -4.061321
    120          1           0       -1.955196   -2.133187   -2.672726
    121          7           0       -6.401075    0.998782   -2.139594
    122          6           0       -7.821434    0.869170   -1.894070
    123          6           0       -8.311468   -0.476256   -1.366247
    124          8           0       -9.506399   -0.718464   -1.235199
    125          6           0       -8.167274    1.925354   -0.847423
    126          8           0       -7.750743    3.170364   -1.350465
    127          1           0       -5.813801    1.313928   -1.380455
    128          1           0       -8.291675    1.041736   -2.864015
    129          1           0       -7.534531    1.648259   -0.000632
    130          1           0       -9.226205    1.848331   -0.604046
    131          1           0       -7.840594    3.176471   -2.306493
    132          7           0       -7.437013   -1.462238   -1.133504
    133          6           0       -7.826496   -2.842089   -0.963459
    134          6           0       -6.717265   -3.654692   -0.324489
    135          8           0       -5.591674   -3.552675   -0.797500
    136          6           0       -8.260296   -3.483440   -2.274445
    137          1           0       -6.448881   -1.315012   -1.282229
    138          1           0       -8.661121   -2.832784   -0.249726
    139          1           0       -8.129655   -4.569456   -2.272426
    140          1           0       -9.288676   -3.208724   -2.524775
    141          1           0       -7.552461   -3.138375   -3.029958
    142          7           0       -7.096152   -4.526124    0.621635
    143          6           0       -6.396247   -5.650514    1.196249
    144          6           0       -5.060702   -5.321324    1.854924
    145          8           0       -4.267867   -6.236915    2.042023
    146          6           0       -6.318311   -6.746397    0.142415
    147          1           0       -8.096767   -4.477923    0.754476
    148          1           0       -6.962214   -6.134145    1.992668
    149          1           0       -5.791049   -7.657821    0.438389
    150          1           0       -7.321967   -7.015911   -0.193943
    151          1           0       -5.722414   -6.322346   -0.661381
    152          7           0       -4.844240   -4.089930    2.317432
    153          6           0       -3.579966   -3.548963    2.779456
    154          6           0       -3.615281   -3.217028    4.265919
    155          8           0       -2.631544   -3.390361    4.980284
    156          6           0       -3.275924   -2.256363    2.018575
    157          6           0       -2.724700   -2.475710    0.617918
    158          6           0       -1.211616   -2.649170    0.593640
    159          8           0       -0.458081   -1.956829   -0.124307
    160          8           0       -0.722798   -3.670952    1.123373
    161          1           0       -5.614949   -3.447142    2.200253
    162          1           0       -2.738513   -4.220932    2.633113
    163          1           0       -2.517127   -1.617109    2.469111
    164          1           0       -4.195448   -1.675341    1.932037
    165          1           0       -3.003330   -1.604171    0.026154
    166          1           0       -3.158906   -3.326950    0.105710
    167          7           0       -4.762541   -2.850001    4.848144
    168          6           0       -5.155426   -2.853974    6.241279
    169          1           0       -4.283591   -3.057025    6.863662
    170          1           0       -5.571146   -1.880974    6.505084
    171          1           0       -5.905992   -3.626802    6.405415
    172          1           0       -5.510661   -2.573199    4.226937
    173         20           0        1.660845   -3.112683    0.226055
    174          8           0        1.333021   -1.489321    2.268536
    175          1           0        2.051002   -1.039036    2.724107
    176          1           0        0.614964   -1.478303    2.899150
 ---------------------------------------------------------------------

 SCF Done:  E(RB3LYP) =  -5333.37075843     A.U. after   29 cycles

 The electronic state is 1-A.
 Alpha  occ. eigenvalues -- -145.42883 -19.15529 -19.13498 -19.12631 -19.11891
 Alpha  occ. eigenvalues --  -19.10152 -19.09899 -19.09856 -19.09508 -19.08963
 Alpha  occ. eigenvalues --  -19.08890 -19.08768 -19.07795 -19.07590 -19.07166
 Alpha  occ. eigenvalues --  -19.06396 -19.06265 -19.06003 -19.05599 -19.05078
 Alpha  occ. eigenvalues --  -19.04153 -19.02717 -18.98657 -18.96249 -15.48788
 Alpha  occ. eigenvalues --  -14.58038 -14.38356 -14.36368 -14.35986 -14.35805
 Alpha  occ. eigenvalues --  -14.35780 -14.35324 -14.35226 -14.34773 -14.34307
 Alpha  occ. eigenvalues --  -14.32288 -14.32012 -14.31533 -14.30934 -14.30546
 Alpha  occ. eigenvalues --  -12.62387 -12.62368 -12.62300 -10.34931 -10.30327
 Alpha  occ. eigenvalues --  -10.28859 -10.28774 -10.28627 -10.28368 -10.28269
 Alpha  occ. eigenvalues --  -10.28057 -10.28020 -10.27040 -10.26794 -10.26077
 Alpha  occ. eigenvalues --  -10.25936 -10.25404 -10.25086 -10.25005 -10.24997
 Alpha  occ. eigenvalues --  -10.24651 -10.24483 -10.24337 -10.24116 -10.24115
 Alpha  occ. eigenvalues --  -10.23826 -10.23764 -10.23665 -10.23077 -10.23039
 Alpha  occ. eigenvalues --  -10.22929 -10.22895 -10.22312 -10.22288 -10.20702
 Alpha  occ. eigenvalues --  -10.20400 -10.20382 -10.19396 -10.19296 -10.19049
 Alpha  occ. eigenvalues --  -10.19001 -10.18940 -10.18852 -10.18750 -10.18740
 Alpha  occ. eigenvalues --  -10.18640 -10.18563 -10.18539 -10.18263 -10.17795
 Alpha  occ. eigenvalues --  -10.17364 -10.16516 -10.16366 -10.15701 -10.15625
 Alpha  occ. eigenvalues --  -10.14318 -10.12108  -1.85495  -1.14049  -1.12889
 Alpha  occ. eigenvalues --   -1.12850  -1.12371  -1.05106  -1.04178  -1.03909
 Alpha  occ. eigenvalues --   -1.03496  -1.02768  -1.02664  -1.02478  -1.02388
 Alpha  occ. eigenvalues --   -1.01695  -1.01694  -1.01372  -1.01281  -1.00969
 Alpha  occ. eigenvalues --   -1.00232  -0.99664  -0.99265  -0.98981  -0.98540
 Alpha  occ. eigenvalues --   -0.97280  -0.95281  -0.93965  -0.92820  -0.92740
 Alpha  occ. eigenvalues --   -0.92709  -0.92535  -0.91614  -0.90513  -0.90367
 Alpha  occ. eigenvalues --   -0.90264  -0.90069  -0.89940  -0.89464  -0.89174
 Alpha  occ. eigenvalues --   -0.89083  -0.88135  -0.87972  -0.86705  -0.85082
 Alpha  occ. eigenvalues --   -0.81630  -0.81469  -0.81024  -0.80412  -0.78869
 Alpha  occ. eigenvalues --   -0.78803  -0.77941  -0.77707  -0.76436  -0.75741
 Alpha  occ. eigenvalues --   -0.75492  -0.74912  -0.74545  -0.74434  -0.73379
 Alpha  occ. eigenvalues --   -0.72917  -0.72766  -0.72097  -0.70710  -0.70316
 Alpha  occ. eigenvalues --   -0.69871  -0.69408  -0.69060  -0.68094  -0.67821
 Alpha  occ. eigenvalues --   -0.67508  -0.66343  -0.65477  -0.64571  -0.64547
 Alpha  occ. eigenvalues --   -0.62764  -0.62245  -0.62067  -0.61993  -0.60997
 Alpha  occ. eigenvalues --   -0.60840  -0.60560  -0.60376  -0.60134  -0.59702
 Alpha  occ. eigenvalues --   -0.59367  -0.58975  -0.58877  -0.58527  -0.57900
 Alpha  occ. eigenvalues --   -0.57822  -0.57483  -0.57341  -0.57028  -0.56602
 Alpha  occ. eigenvalues --   -0.56115  -0.55651  -0.55518  -0.55340  -0.54803
 Alpha  occ. eigenvalues --   -0.54466  -0.54105  -0.53282  -0.53091  -0.52174
 Alpha  occ. eigenvalues --   -0.51945  -0.51392  -0.51257  -0.51073  -0.50834
 Alpha  occ. eigenvalues --   -0.50448  -0.50305  -0.49621  -0.49522  -0.49465
 Alpha  occ. eigenvalues --   -0.49407  -0.49199  -0.49049  -0.48808  -0.48685
 Alpha  occ. eigenvalues --   -0.48384  -0.48136  -0.48009  -0.47833  -0.47775
 Alpha  occ. eigenvalues --   -0.47378  -0.47138  -0.46837  -0.46487  -0.46383
 Alpha  occ. eigenvalues --   -0.45997  -0.45902  -0.45830  -0.45660  -0.45573
 Alpha  occ. eigenvalues --   -0.44949  -0.44845  -0.44659  -0.44519  -0.44390
 Alpha  occ. eigenvalues --   -0.44198  -0.44093  -0.43865  -0.43829  -0.43532
 Alpha  occ. eigenvalues --   -0.43327  -0.43072  -0.42940  -0.42876  -0.42776
 Alpha  occ. eigenvalues --   -0.42249  -0.42081  -0.41933  -0.41677  -0.41400
 Alpha  occ. eigenvalues --   -0.41285  -0.41241  -0.41194  -0.40984  -0.40901
 Alpha  occ. eigenvalues --   -0.40826  -0.40783  -0.40663  -0.40620  -0.40440
 Alpha  occ. eigenvalues --   -0.40250  -0.40059  -0.40026  -0.39955  -0.39845
 Alpha  occ. eigenvalues --   -0.39465  -0.39250  -0.39049  -0.39018  -0.38856
 Alpha  occ. eigenvalues --   -0.38727  -0.38509  -0.38483  -0.38393  -0.38221
 Alpha  occ. eigenvalues --   -0.38138  -0.38023  -0.37974  -0.37868  -0.37812
 Alpha  occ. eigenvalues --   -0.37569  -0.37410  -0.37272  -0.37147  -0.36853
 Alpha  occ. eigenvalues --   -0.36832  -0.36674  -0.36434  -0.36382  -0.36148
 Alpha  occ. eigenvalues --   -0.35949  -0.35714  -0.35635  -0.35545  -0.35446
 Alpha  occ. eigenvalues --   -0.35370  -0.34998  -0.34890  -0.34579  -0.34444
 Alpha  occ. eigenvalues --   -0.34191  -0.34082  -0.34056  -0.33632  -0.33349
 Alpha  occ. eigenvalues --   -0.33233  -0.33051  -0.32909  -0.32907  -0.32621
 Alpha  occ. eigenvalues --   -0.32427  -0.32331  -0.31035  -0.30989  -0.30445
 Alpha  occ. eigenvalues --   -0.29986  -0.29280  -0.29206  -0.28793  -0.27907
 Alpha  occ. eigenvalues --   -0.27857  -0.27759  -0.27313  -0.27253  -0.27169
 Alpha  occ. eigenvalues --   -0.26974  -0.26172  -0.26152  -0.25852  -0.25835
 Alpha  occ. eigenvalues --   -0.25605  -0.25368  -0.25138  -0.24725  -0.24660
 Alpha  occ. eigenvalues --   -0.24600  -0.24459  -0.24391  -0.24315  -0.24022
 Alpha  occ. eigenvalues --   -0.23598  -0.23422  -0.23384  -0.22757  -0.22652
 Alpha  occ. eigenvalues --   -0.22579  -0.22258  -0.22160  -0.21852  -0.21832
 Alpha  occ. eigenvalues --   -0.21490  -0.20970  -0.20349  -0.19167  -0.18776
 Alpha  occ. eigenvalues --   -0.15746  -0.14908  -0.11824
 Alpha virt. eigenvalues --   -0.10585  -0.06468  -0.05236  -0.04078  -0.01798
 Alpha virt. eigenvalues --   -0.01637  -0.00652  -0.00310   0.00228   0.00912
 Alpha virt. eigenvalues --    0.00936   0.01170   0.01283   0.01706   0.01762

 Mulliken charges:
               1
     1  C    0.077381
     2  C    0.023066
     3  O   -0.340558
     4  H    0.019633
     5  H    0.016081
     6  H    0.036166
     7  N   -0.117617
     8  C    0.126967
     9  C    0.055380
    10  O   -0.317385
    11  C    0.050385
    12  C    0.035737
    13  O   -0.406780
    14  O   -0.350538
    15  H    0.115715
    16  H   -0.008063
    17  H    0.013822
    18  H    0.043395
    19  N   -0.133564
    20  C    0.206188
    21  C    0.016626
    22  O   -0.253920
    23  C    0.010898
    24  C    0.036382
    25  C   -0.100363
    26  C    0.033548
    27  N    0.105789
    28  H    0.121486
    29  H   -0.081621
    30  H    0.004325
    31  H    0.055716
    32  H    0.015899
    33  H    0.010160
    34  H    0.038038
    35  H    0.027472
    36  H    0.070614
    37  H    0.072215
    38  H    0.176938
    39  H    0.187510
    40  H    0.165038
    41  N   -0.125722
    42  C    0.124929
    43  C    0.065164
    44  O   -0.265996
    45  C    0.050846
    46  C    0.113058
    47  O   -0.334774
    48  O   -0.494547
    49  H    0.102458
    50  H    0.000570
    51  H    0.002812
    52  H    0.029597
    53  N   -0.139046
    54  C    0.182176
    55  C    0.043921
    56  O   -0.244447
    57  H    0.142084
    58  H    0.030362
    59  H    0.013798
    60  N   -0.090687
    61  C    0.059723
    62  C    0.043469
    63  O   -0.249952
    64  C    0.056715
    65  C    0.010925
    66  N   -0.066535
    67  O   -0.260102
    68  H    0.128871
    69  H    0.022101
    70  H    0.042349
    71  H    0.003366
    72  H    0.128075
    73  H    0.121071
    74  N   -0.113784
    75  C    0.130298
    76  C    0.069300
    77  O   -0.246585
    78  H    0.130669
    79  H    0.047357
    80  H    0.031671
    81  N   -0.163967
    82  C    0.144678
    83  C    0.085772
    84  O   -0.277806
    85  C    0.153096
    86  C   -0.044044
    87  C    0.017403
    88  C   -0.022564
    89  C    0.007891
    90  C   -0.048524
    91  C    0.192659
    92  O   -0.218775
    93  H    0.134133
    94  H   -0.000196
    95  H   -0.043305
    96  H    0.018950
    97  H   -0.034924
    98  H   -0.030902
    99  H   -0.014754
   100  H   -0.033990
   101  H    0.175500
   102  N   -0.164353
   103  C    0.159557
   104  C    0.048328
   105  O   -0.270909
   106  C   -0.077668
   107  C   -0.035989
   108  C    0.067994
   109  C    0.027786
   110  H    0.134477
   111  H    0.038751
   112  H    0.008221
   113  H    0.022330
   114  H   -0.044145
   115  H    0.024303
   116  H   -0.018171
   117  H    0.024466
   118  H    0.020033
   119  H    0.008769
   120  H    0.021636
   121  N   -0.134289
   122  C    0.044333
   123  C    0.065222
   124  O   -0.280764
   125  C    0.256752
   126  O   -0.302733
   127  H    0.108069
   128  H    0.042210
   129  H   -0.020182
   130  H    0.028411
   131  H    0.173934
   132  N   -0.135256
   133  C    0.087040
   134  C    0.031295
   135  O   -0.262031
   136  C    0.067120
   137  H    0.123231
   138  H   -0.008711
   139  H    0.010138
   140  H    0.048360
   141  H    0.032582
   142  N   -0.125707
   143  C    0.057380
   144  C    0.058063
   145  O   -0.261203
   146  C    0.045172
   147  H    0.125632
   148  H    0.034065
   149  H    0.037029
   150  H    0.000448
   151  H    0.032182
   152  N   -0.107687
   153  C    0.123015
   154  C    0.060468
   155  O   -0.268531
   156  C    0.022718
   157  C    0.111315
   158  C    0.089246
   159  O   -0.432527
   160  O   -0.450464
   161  H    0.102899
   162  H    0.041743
   163  H    0.016886
   164  H   -0.042274
   165  H   -0.020302
   166  H    0.045085
   167  N   -0.157394
   168  C    0.127561
   169  H    0.047891
   170  H    0.018453
   171  H    0.018435
   172  H    0.083549
   173  Ca   1.412589
   174  O   -0.326647
   175  H    0.176800
   176  H    0.183916
 Sum of Mulliken charges =  -0.00000

 Dipole moment (field-independent basis, Debye):
    X=             15.9383    Y=            -23.6162    Z=              8.1229  Tot=             29.6266
 Quadrupole moment (field-independent basis, Debye-Ang):
   XX=           -272.9915   YY=           -395.5177   ZZ=           -615.6076
   XY=           -268.7693   XZ=            -54.1861   YZ=             39.5835

 ESP charges:
               1
     1  C   -0.458877
     2  C    0.794935
     3  O   -0.688716
     4  H    0.123102
     5  H    0.109733
     6  H    0.129076
     7  N   -0.720706
     8  C    0.607401
     9  C    0.341384
    10  O   -0.546131
    11  C   -0.621486
    12  C    0.783326
    13  O   -0.733707
    14  O   -0.651954
    15  H    0.345567
    16  H   -0.024990
    17  H    0.146074
    18  H    0.188260
    19  N   -0.277736
    20  C    0.093385
    21  C    0.549320
    22  O   -0.511210
    23  C   -0.033605
    24  C   -0.335979
    25  C    0.199640
    26  C    0.095672
    27  N   -0.359243
    28  H    0.180495
    29  H   -0.013028
    30  H    0.075709
    31  H    0.065960
    32  H    0.097292
    33  H    0.087879
    34  H   -0.001157
    35  H   -0.001101
    36  H    0.049366
    37  H    0.044911
    38  H    0.322619
    39  H    0.279833
    40  H    0.307956
    41  N   -0.518676
    42  C    0.127941
    43  C    0.468356
    44  O   -0.543403
    45  C   -0.331454
    46  C    0.782407
    47  O   -0.652099
    48  O   -0.835031
    49  H    0.247673
    50  H    0.087008
    51  H    0.092639
    52  H    0.099517
    53  N   -0.175582
    54  C   -0.221259
    55  C    0.668603
    56  O   -0.500803
    57  H    0.229785
    58  H    0.118863
    59  H    0.092441
    60  N   -0.707307
    61  C    0.468531
    62  C    0.470948
    63  O   -0.549272
    64  C   -0.589441
    65  C    0.778125
    66  N   -0.796738
    67  O   -0.585208
    68  H    0.351231
    69  H    0.015865
    70  H    0.171690
    71  H    0.156804
    72  H    0.359504
    73  H    0.362395
    74  N   -0.491767
    75  C   -0.015021
    76  C    0.626363
    77  O   -0.519259
    78  H    0.317935
    79  H    0.068033
    80  H    0.052302
    81  N   -0.606097
    82  C    0.205975
    83  C    0.641984
    84  O   -0.524701
    85  C   -0.328046
    86  C    0.142053
    87  C   -0.185300
    88  C   -0.107170
    89  C   -0.252215
    90  C   -0.390588
    91  C    0.442922
    92  O   -0.589749
    93  H    0.302116
    94  H    0.057601
    95  H    0.115172
    96  H    0.111736
    97  H    0.131134
    98  H    0.143686
    99  H    0.168299
   100  H    0.159202
   101  H    0.424839
   102  N   -0.788500
   103  C    0.115932
   104  C    0.309537
   105  O   -0.531826
   106  C    0.317489
   107  C   -0.245609
   108  C   -0.436052
   109  C   -0.194707
   110  H    0.352964
   111  H    0.103400
   112  H    0.023899
   113  H    0.116830
   114  H    0.007091
   115  H    0.117960
   116  H    0.068649
   117  H    0.145390
   118  H    0.015156
   119  H    0.068924
   120  H    0.085632
   121  N    0.145529
   122  C   -0.346923
   123  C    0.640884
   124  O   -0.544246
   125  C    0.360270
   126  O   -0.636388
   127  H    0.122944
   128  H    0.150439
   129  H   -0.025952
   130  H    0.003102
   131  H    0.400582
   132  N   -0.587128
   133  C    0.360336
   134  C    0.499545
   135  O   -0.425865
   136  C   -0.367195
   137  H    0.200358
   138  H   -0.018823
   139  H    0.077517
   140  H    0.130167
   141  H    0.120143
   142  N   -0.713789
   143  C    0.321805
   144  C    0.517652
   145  O   -0.509117
   146  C   -0.255383
   147  H    0.346385
   148  H    0.033833
   149  H    0.068295
   150  H    0.076178
   151  H    0.093031
   152  N   -0.691840
   153  C    0.425882
   154  C    0.458846
   155  O   -0.538943
   156  C   -0.778446
   157  C    0.696080
   158  C    0.494400
   159  O   -0.740894
   160  O   -0.766541
   161  H    0.301327
   162  H    0.056353
   163  H    0.185170
   164  H    0.130696
   165  H   -0.136023
   166  H   -0.024315
   167  N   -0.304457
   168  C   -0.061516
   169  H    0.100324
   170  H    0.045450
   171  H    0.052216
   172  H    0.232895
   173  Ca   1.685541
   174  O   -0.878770
   175  H    0.444082
   176  H    0.437376
 Sum of ESP charges =   0.00000

 Normal termination of Gaussian 16 at Wed Sep 18 19:54:15 2019.
