 Gaussian 16, Revision A.03,
 Gaussian 16:  ES64L-G16RevA.03 25-Dec-2016

 ----------------------------------------------------------------------
 #b3lyp/svp scf=(tight,noincore) Test #IOP(5/87=12) Density=Current Pop
 =(MK,readradii) iop(6/33=2) iop(6/42=6)
 ----------------------------------------------------------------------

 ----------------
 Ng-31_loop3_38.0
 ----------------
 Symbolic Z-matrix:
 Charge =  0 Multiplicity = 1

                         Standard orientation:
 ---------------------------------------------------------------------
 Center     Atomic      Atomic             Coordinates (Angstroms)
 Number     Number       Type             X           Y           Z
 ---------------------------------------------------------------------
      1          6           0        5.960114    1.360625    5.977671
      2          6           0        5.218291    1.321112    4.645666
      3          8           0        4.175330    0.669575    4.683531
      4          1           0        6.331667    0.364080    6.215905
      5          1           0        6.799001    2.053713    5.906859
      6          1           0        5.280362    1.691072    6.762660
      7          7           0        5.700048    1.936484    3.573227
      8          6           0        5.021095    1.962971    2.288034
      9          6           0        5.050068    0.665173    1.491931
     10          8           0        4.051581    0.230958    0.924409
     11          6           0        5.560442    3.125245    1.460916
     12          6           0        7.035123    3.120530    1.084892
     13          8           0        7.288105    3.972536    0.201837
     14          8           0        7.877532    2.423079    1.686646
     15          1           0        6.672765    2.195849    3.644298
     16          1           0        3.987735    2.173040    2.555127
     17          1           0        5.359172    4.079197    1.949963
     18          1           0        5.063782    3.126824    0.487249
     19          7           0        6.223614    0.029674    1.497522
     20          6           0        6.535462   -1.032775    0.557919
     21          6           0        6.763069   -0.454398   -0.828110
     22          8           0        7.857158   -0.466769   -1.387141
     23          6           0        7.618452   -1.932165    1.166138
     24          6           0        7.409654   -3.392310    0.775138
     25          6           0        8.479875   -4.331517    1.326334
     26          6           0        8.015244   -5.775242    1.161785
     27          7           0        8.689421   -6.778475    2.014726
     28          1           0        7.049108    0.415742    1.925204
     29          1           0        5.674445   -1.705108    0.553781
     30          1           0        7.576148   -1.916063    2.253406
     31          1           0        8.608004   -1.613681    0.864219
     32          1           0        7.278671   -3.559911   -0.297314
     33          1           0        6.460028   -3.652895    1.245144
     34          1           0        8.659510   -4.142217    2.379756
     35          1           0        9.425493   -4.216458    0.806270
     36          1           0        8.082712   -6.079118    0.126021
     37          1           0        6.957120   -5.810808    1.421804
     38          1           0        8.258464   -7.682125    1.921482
     39          1           0        9.655603   -6.868792    1.754466
     40          1           0        8.583631   -6.562493    2.999439
     41          7           0        5.611021   -0.109158   -1.403953
     42          6           0        5.461076    0.467609   -2.727114
     43          6           0        4.338969    1.501822   -2.819201
     44          8           0        4.050864    1.902662   -3.939479
     45          6           0        5.296857   -0.708629   -3.689349
     46          6           0        4.159418   -1.665044   -3.378863
     47          8           0        3.247230   -1.444444   -2.558772
     48          8           0        3.987961   -2.735747   -4.008066
     49          1           0        4.766499   -0.302822   -0.883206
     50          1           0        6.345223    1.050451   -2.976070
     51          1           0        6.236306   -1.254033   -3.759135
     52          1           0        5.022850   -0.298517   -4.657920
     53          7           0        3.695047    1.871492   -1.710820
     54          6           0        2.638362    2.844030   -1.600876
     55          6           0        2.767543    4.264834   -2.151902
     56          8           0        3.853617    4.817875   -2.044716
     57          1           0        3.969292    1.397081   -0.856991
     58          1           0        2.463664    2.906013   -0.526521
     59          1           0        1.687669    2.492976   -2.014450
     60          7           0        1.747710    4.930501   -2.696995
     61          6           0        0.341145    4.589825   -2.666752
     62          6           0       -0.382061    5.926061   -2.739881
     63          8           0       -0.519584    6.406000   -3.868440
     64          6           0        0.036011    3.635237   -3.820596
     65          6           0       -1.362348    3.053393   -3.771103
     66          7           0       -1.524070    1.734948   -3.606940
     67          8           0       -2.362974    3.741700   -3.968031
     68          1           0        2.070342    5.699258   -3.265696
     69          1           0        0.063933    4.093828   -1.733992
     70          1           0        0.834725    2.945175   -4.099828
     71          1           0       -0.051611    4.270508   -4.707531
     72          1           0       -0.773538    1.054106   -3.599478
     73          1           0       -2.476154    1.406304   -3.578139
     74          7           0       -0.733079    6.661806   -1.684388
     75          6           0       -0.321542    6.449943   -0.306327
     76          6           0       -1.287258    5.599115    0.500509
     77          8           0       -0.811189    4.734442    1.236172
     78          1           0       -1.374300    7.425948   -1.842887
     79          1           0       -0.150573    7.386926    0.232220
     80          1           0        0.660523    5.972596   -0.315679
     81          7           0       -2.603587    5.616448    0.265824
     82          6           0       -3.515878    4.638882    0.833529
     83          6           0       -3.455764    3.408288   -0.058562
     84          8           0       -3.170423    3.533420   -1.246258
     85          6           0       -4.929942    5.209340    0.832511
     86          6           0       -5.221950    6.131351    1.999014
     87          6           0       -6.027359    5.687266    3.048874
     88          6           0       -4.624517    7.398860    2.049934
     89          6           0       -6.342506    6.570807    4.091341
     90          6           0       -4.885939    8.252618    3.132734
     91          6           0       -5.715898    7.830428    4.186833
     92          8           0       -5.856816    8.499072    5.366646
     93          1           0       -2.966451    6.240288   -0.434000
     94          1           0       -3.305822    4.391334    1.866000
     95          1           0       -5.572980    4.329254    0.875526
     96          1           0       -5.362515    5.614420   -0.084762
     97          1           0       -6.603479    4.789681    2.885695
     98          1           0       -3.847658    7.712913    1.388375
     99          1           0       -6.947044    6.268772    4.933902
    100          1           0       -4.324141    9.173674    3.138929
    101          1           0       -5.504239    9.387813    5.389643
    102          7           0       -3.701102    2.186054    0.421910
    103          6           0       -3.374659    0.966326   -0.281367
    104          6           0       -4.620207    0.142548   -0.621510
    105          8           0       -5.649871    0.291989    0.027304
    106          6           0       -2.184560    0.273800    0.374127
    107          6           0       -0.973345    1.193165    0.399177
    108          6           0       -2.484483   -0.135081    1.810568
    109          6           0        0.356756    0.582273    0.854083
    110          1           0       -4.115012    2.056048    1.338412
    111          1           0       -3.085154    1.202505   -1.310787
    112          1           0       -1.900875   -0.582828   -0.234652
    113          1           0       -1.177428    1.967571    1.138734
    114          1           0       -0.731661    1.543653   -0.601147
    115          1           0       -2.611222    0.788131    2.371031
    116          1           0       -3.442697   -0.649866    1.821653
    117          1           0       -1.697679   -0.773304    2.232600
    118          1           0        1.185507    1.223155    0.550699
    119          1           0        0.291693    0.492682    1.930810
    120          1           0        0.618324   -0.415165    0.490627
    121          7           0       -4.484208   -0.643453   -1.695478
    122          6           0       -5.503892   -1.546921   -2.179617
    123          6           0       -5.879786   -2.658052   -1.212615
    124          8           0       -5.498802   -2.730415   -0.047877
    125          6           0       -6.661797   -0.818284   -2.858766
    126          8           0       -6.138370   -0.037174   -3.908953
    127          1           0       -3.601912   -0.797625   -2.158927
    128          1           0       -5.129024   -2.143219   -3.015143
    129          1           0       -7.241349   -0.204079   -2.168786
    130          1           0       -7.126400   -1.621773   -3.428282
    131          1           0       -5.390201    0.437249   -3.536173
    132          7           0       -6.529271   -3.648922   -1.837871
    133          6           0       -7.027804   -4.877871   -1.255679
    134          6           0       -5.874667   -5.751948   -0.796586
    135          8           0       -4.866034   -5.867688   -1.481760
    136          6           0       -7.987970   -5.652425   -2.155317
    137          1           0       -6.804665   -3.510274   -2.804223
    138          1           0       -7.578134   -4.506979   -0.390072
    139          1           0       -8.837950   -5.017640   -2.406478
    140          1           0       -7.511894   -5.992027   -3.069987
    141          1           0       -8.449244   -6.462114   -1.588369
    142          7           0       -6.039480   -6.394022    0.362067
    143          6           0       -5.079450   -7.317113    0.923177
    144          6           0       -3.649829   -6.908148    1.239929
    145          8           0       -2.853287   -7.812873    1.467071
    146          6           0       -5.150230   -8.598406    0.101059
    147          1           0       -6.877261   -6.098436    0.848331
    148          1           0       -5.482373   -7.579989    1.905445
    149          1           0       -4.886055   -9.402749    0.784172
    150          1           0       -6.165373   -8.754702   -0.276243
    151          1           0       -4.384679   -8.485598   -0.671732
    152          7           0       -3.367270   -5.606616    1.155217
    153          6           0       -2.175862   -5.025795    1.752539
    154          6           0       -2.186916   -5.016658    3.269079
    155          8           0       -1.244103   -5.362657    3.981743
    156          6           0       -1.976708   -3.648000    1.121176
    157          6           0       -0.508931   -3.244622    1.003632
    158          6           0        0.084974   -3.535937   -0.374488
    159          8           0        0.060002   -2.667565   -1.276877
    160          8           0        0.699458   -4.614411   -0.516623
    161          1           0       -4.136063   -5.046094    0.837771
    162          1           0       -1.344678   -5.679196    1.472004
    163          1           0       -2.407075   -2.925888    1.811132
    164          1           0       -2.471086   -3.505929    0.166396
    165          1           0       -0.011735   -3.776137    1.815844
    166          1           0       -0.509658   -2.182463    1.245951
    167          7           0       -3.291569   -4.605076    3.898953
    168          6           0       -3.700390   -4.958876    5.245909
    169          1           0       -3.307358   -5.943965    5.497465
    170          1           0       -3.311906   -4.222860    5.949557
    171          1           0       -4.788758   -4.977604    5.302776
    172          1           0       -4.066463   -4.293807    3.323756
    173         20           0        2.046670   -3.930818   -2.661738
    174          8           0        3.557539   -3.691217   -0.480714
    175          1           0        3.596408   -4.574287   -0.106046
    176          1           0        3.260459   -3.145958    0.243259
 ---------------------------------------------------------------------

 SCF Done:  E(RB3LYP) =  -5333.34947970     A.U. after   33 cycles

 The electronic state is 1-A.
 Alpha  occ. eigenvalues -- -145.46438 -19.19755 -19.15863 -19.13369 -19.12097
 Alpha  occ. eigenvalues --  -19.11226 -19.10206 -19.09766 -19.09497 -19.08903
 Alpha  occ. eigenvalues --  -19.08649 -19.08330 -19.08071 -19.07648 -19.07227
 Alpha  occ. eigenvalues --  -19.07082 -19.06076 -19.05565 -19.05245 -19.05168
 Alpha  occ. eigenvalues --  -19.04766 -19.04152 -18.98439 -18.96596 -15.52357
 Alpha  occ. eigenvalues --  -14.58847 -14.37845 -14.37728 -14.37455 -14.35447
 Alpha  occ. eigenvalues --  -14.34874 -14.34695 -14.34615 -14.34183 -14.32934
 Alpha  occ. eigenvalues --  -14.32599 -14.32209 -14.31555 -14.31499 -14.30679
 Alpha  occ. eigenvalues --  -12.65965 -12.65945 -12.65842 -10.35415 -10.30522
 Alpha  occ. eigenvalues --  -10.29750 -10.28834 -10.28466 -10.27758 -10.27678
 Alpha  occ. eigenvalues --  -10.27403 -10.26940 -10.26772 -10.26641 -10.26103
 Alpha  occ. eigenvalues --  -10.25808 -10.25586 -10.25244 -10.25020 -10.25019
 Alpha  occ. eigenvalues --  -10.24899 -10.24705 -10.24426 -10.24417 -10.24037
 Alpha  occ. eigenvalues --  -10.23931 -10.23483 -10.23009 -10.22774 -10.22522
 Alpha  occ. eigenvalues --  -10.22343 -10.22315 -10.22173 -10.21956 -10.21750
 Alpha  occ. eigenvalues --  -10.20459 -10.19774 -10.19687 -10.19078 -10.18714
 Alpha  occ. eigenvalues --  -10.18713 -10.18701 -10.18661 -10.18629 -10.18433
 Alpha  occ. eigenvalues --  -10.18252 -10.18228 -10.17625 -10.17404 -10.17022
 Alpha  occ. eigenvalues --  -10.16476 -10.16348 -10.16102 -10.15779 -10.14757
 Alpha  occ. eigenvalues --  -10.13618 -10.11645  -1.89034  -1.16619  -1.16327
 Alpha  occ. eigenvalues --   -1.15703  -1.14166  -1.05768  -1.05378  -1.04398
 Alpha  occ. eigenvalues --   -1.04345  -1.03721  -1.03126  -1.02701  -1.02171
 Alpha  occ. eigenvalues --   -1.01900  -1.01608  -1.01596  -1.01308  -1.00944
 Alpha  occ. eigenvalues --   -1.00512  -0.99470  -0.98801  -0.98673  -0.97952
 Alpha  occ. eigenvalues --   -0.97385  -0.94824  -0.94581  -0.93737  -0.93392
 Alpha  occ. eigenvalues --   -0.92830  -0.91965  -0.91437  -0.90686  -0.90657
 Alpha  occ. eigenvalues --   -0.90524  -0.90236  -0.89737  -0.89328  -0.89220
 Alpha  occ. eigenvalues --   -0.88884  -0.87586  -0.87337  -0.86839  -0.84507
 Alpha  occ. eigenvalues --   -0.82393  -0.82096  -0.81601  -0.80141  -0.79849
 Alpha  occ. eigenvalues --   -0.78340  -0.77960  -0.76691  -0.76320  -0.75110
 Alpha  occ. eigenvalues --   -0.74650  -0.74048  -0.73945  -0.73583  -0.73216
 Alpha  occ. eigenvalues --   -0.72970  -0.72004  -0.71851  -0.70707  -0.70462
 Alpha  occ. eigenvalues --   -0.69514  -0.69093  -0.68717  -0.68471  -0.67618
 Alpha  occ. eigenvalues --   -0.66787  -0.66674  -0.65677  -0.64820  -0.64690
 Alpha  occ. eigenvalues --   -0.63300  -0.62984  -0.62191  -0.61733  -0.61451
 Alpha  occ. eigenvalues --   -0.61120  -0.60677  -0.60306  -0.60096  -0.59341
 Alpha  occ. eigenvalues --   -0.58970  -0.58796  -0.58628  -0.57956  -0.57920
 Alpha  occ. eigenvalues --   -0.57664  -0.57428  -0.57264  -0.56826  -0.56800
 Alpha  occ. eigenvalues --   -0.56119  -0.55994  -0.55464  -0.55053  -0.54751
 Alpha  occ. eigenvalues --   -0.54171  -0.54112  -0.53624  -0.53290  -0.53049
 Alpha  occ. eigenvalues --   -0.52901  -0.52198  -0.51989  -0.51762  -0.51446
 Alpha  occ. eigenvalues --   -0.51419  -0.50635  -0.50584  -0.50358  -0.50303
 Alpha  occ. eigenvalues --   -0.49720  -0.49091  -0.48973  -0.48418  -0.48111
 Alpha  occ. eigenvalues --   -0.47833  -0.47775  -0.47501  -0.47444  -0.47056
 Alpha  occ. eigenvalues --   -0.46989  -0.46389  -0.46294  -0.46021  -0.45852
 Alpha  occ. eigenvalues --   -0.45657  -0.45573  -0.45116  -0.44937  -0.44759
 Alpha  occ. eigenvalues --   -0.44738  -0.44653  -0.44386  -0.44215  -0.44059
 Alpha  occ. eigenvalues --   -0.43893  -0.43715  -0.43593  -0.43493  -0.43330
 Alpha  occ. eigenvalues --   -0.43231  -0.43080  -0.42898  -0.42725  -0.42671
 Alpha  occ. eigenvalues --   -0.42490  -0.42242  -0.42229  -0.41931  -0.41795
 Alpha  occ. eigenvalues --   -0.41755  -0.41627  -0.41520  -0.41375  -0.41257
 Alpha  occ. eigenvalues --   -0.41101  -0.41046  -0.40900  -0.40677  -0.40619
 Alpha  occ. eigenvalues --   -0.40514  -0.40197  -0.40042  -0.39901  -0.39742
 Alpha  occ. eigenvalues --   -0.39362  -0.39192  -0.39113  -0.39035  -0.38833
 Alpha  occ. eigenvalues --   -0.38828  -0.38628  -0.38374  -0.38365  -0.38296
 Alpha  occ. eigenvalues --   -0.38038  -0.37908  -0.37722  -0.37419  -0.37228
 Alpha  occ. eigenvalues --   -0.37198  -0.37139  -0.37070  -0.36755  -0.36676
 Alpha  occ. eigenvalues --   -0.36282  -0.36218  -0.36116  -0.36108  -0.35781
 Alpha  occ. eigenvalues --   -0.35772  -0.35642  -0.35433  -0.35342  -0.35270
 Alpha  occ. eigenvalues --   -0.34926  -0.34723  -0.34622  -0.34534  -0.34397
 Alpha  occ. eigenvalues --   -0.34210  -0.34124  -0.33921  -0.33684  -0.33617
 Alpha  occ. eigenvalues --   -0.33567  -0.33079  -0.32917  -0.32661  -0.32653
 Alpha  occ. eigenvalues --   -0.32112  -0.32052  -0.31653  -0.31483  -0.30226
 Alpha  occ. eigenvalues --   -0.29554  -0.29358  -0.29072  -0.28990  -0.28738
 Alpha  occ. eigenvalues --   -0.28727  -0.27481  -0.27379  -0.27280  -0.26659
 Alpha  occ. eigenvalues --   -0.26557  -0.26388  -0.26314  -0.26040  -0.25746
 Alpha  occ. eigenvalues --   -0.25572  -0.25282  -0.25129  -0.25084  -0.25027
 Alpha  occ. eigenvalues --   -0.24752  -0.24646  -0.24224  -0.24063  -0.23857
 Alpha  occ. eigenvalues --   -0.23704  -0.23658  -0.23514  -0.22879  -0.22702
 Alpha  occ. eigenvalues --   -0.22498  -0.22178  -0.22038  -0.21792  -0.21084
 Alpha  occ. eigenvalues --   -0.20939  -0.20533  -0.20180  -0.19927  -0.19840
 Alpha  occ. eigenvalues --   -0.14997  -0.14790  -0.12450
 Alpha virt. eigenvalues --   -0.11465  -0.09852  -0.05116  -0.04848  -0.02925
 Alpha virt. eigenvalues --   -0.01396  -0.01093  -0.00586  -0.00449   0.00312
 Alpha virt. eigenvalues --    0.00340   0.00924   0.01353   0.01515   0.01979

 Mulliken charges:
               1
     1  C    0.072371
     2  C   -0.018790
     3  O   -0.318768
     4  H    0.013922
     5  H   -0.010792
     6  H    0.031956
     7  N   -0.114790
     8  C    0.168197
     9  C    0.081935
    10  O   -0.312831
    11  C    0.009109
    12  C    0.067827
    13  O   -0.343630
    14  O   -0.397763
    15  H    0.113641
    16  H   -0.007046
    17  H    0.017628
    18  H    0.001869
    19  N   -0.115144
    20  C    0.072709
    21  C    0.117685
    22  O   -0.271643
    23  C    0.097762
    24  C   -0.056413
    25  C    0.028054
    26  C    0.008527
    27  N    0.114606
    28  H    0.119988
    29  H   -0.019838
    30  H   -0.007823
    31  H    0.026479
    32  H    0.033508
    33  H   -0.006583
    34  H    0.007469
    35  H    0.040073
    36  H    0.067937
    37  H    0.045330
    38  H    0.153046
    39  H    0.166314
    40  H    0.166411
    41  N   -0.179420
    42  C    0.139108
    43  C    0.071884
    44  O   -0.290144
    45  C    0.111807
    46  C    0.089764
    47  O   -0.407628
    48  O   -0.476858
    49  H    0.143642
    50  H    0.048948
    51  H    0.015348
    52  H    0.035203
    53  N   -0.116843
    54  C    0.176713
    55  C    0.009770
    56  O   -0.234022
    57  H    0.138543
    58  H    0.046970
    59  H   -0.008610
    60  N   -0.117561
    61  C    0.020534
    62  C    0.095160
    63  O   -0.268538
    64  C    0.138822
    65  C   -0.000011
    66  N   -0.061038
    67  O   -0.257425
    68  H    0.137752
    69  H    0.031388
    70  H    0.015641
    71  H    0.027607
    72  H    0.119253
    73  H    0.112214
    74  N   -0.122814
    75  C    0.187570
    76  C    0.045209
    77  O   -0.284801
    78  H    0.126018
    79  H    0.036659
    80  H    0.044980
    81  N   -0.101889
    82  C    0.140637
    83  C    0.079584
    84  O   -0.264280
    85  C    0.106916
    86  C   -0.031038
    87  C    0.020426
    88  C    0.007147
    89  C   -0.013301
    90  C   -0.053890
    91  C    0.171559
    92  O   -0.202859
    93  H    0.112183
    94  H    0.006453
    95  H   -0.020543
    96  H    0.016729
    97  H   -0.019419
    98  H   -0.056038
    99  H   -0.020277
   100  H   -0.041879
   101  H    0.175072
   102  N   -0.130708
   103  C    0.115310
   104  C    0.124290
   105  O   -0.258924
   106  C   -0.065326
   107  C   -0.001663
   108  C    0.045654
   109  C    0.021774
   110  H    0.120163
   111  H   -0.018042
   112  H   -0.026537
   113  H    0.021923
   114  H   -0.011318
   115  H   -0.012855
   116  H    0.015097
   117  H    0.034856
   118  H    0.010793
   119  H   -0.001157
   120  H    0.022223
   121  N   -0.148914
   122  C   -0.049329
   123  C    0.130027
   124  O   -0.262592
   125  C    0.321783
   126  O   -0.320198
   127  H    0.135425
   128  H    0.014204
   129  H    0.031699
   130  H   -0.034846
   131  H    0.155818
   132  N   -0.125200
   133  C    0.046535
   134  C    0.057445
   135  O   -0.274613
   136  C    0.073677
   137  H    0.117428
   138  H   -0.007251
   139  H    0.025620
   140  H    0.035931
   141  H    0.020452
   142  N   -0.137337
   143  C    0.044167
   144  C    0.063920
   145  O   -0.263988
   146  C    0.071362
   147  H    0.119475
   148  H    0.012788
   149  H    0.020838
   150  H   -0.001077
   151  H    0.039507
   152  N   -0.118335
   153  C    0.117946
   154  C    0.045626
   155  O   -0.261768
   156  C    0.029773
   157  C    0.114704
   158  C    0.104927
   159  O   -0.399332
   160  O   -0.454245
   161  H    0.128058
   162  H    0.020423
   163  H   -0.014819
   164  H    0.014022
   165  H    0.000338
   166  H   -0.005389
   167  N   -0.157406
   168  C    0.130670
   169  H    0.033638
   170  H    0.032809
   171  H    0.008233
   172  H    0.101681
   173  Ca   1.327123
   174  O   -0.284718
   175  H    0.159718
   176  H    0.213430
 Sum of Mulliken charges =  -0.00000

 Dipole moment (field-independent basis, Debye):
    X=              0.0932    Y=            -40.7964    Z=              7.5045  Tot=             41.4810
 Quadrupole moment (field-independent basis, Debye-Ang):
   XX=           -418.1714   YY=           -378.5377   ZZ=           -586.6533
   XY=           -278.4863   XZ=             64.6544   YZ=             33.2970

 ESP charges:
               1
     1  C   -0.454920
     2  C    0.704872
     3  O   -0.592717
     4  H    0.113199
     5  H    0.081250
     6  H    0.137920
     7  N   -0.504251
     8  C   -0.121062
     9  C    0.533031
    10  O   -0.523903
    11  C    0.021708
    12  C    0.666878
    13  O   -0.622727
    14  O   -0.695599
    15  H    0.292296
    16  H    0.131391
    17  H    0.043527
    18  H   -0.063605
    19  N   -0.444001
    20  C    0.128764
    21  C    0.635538
    22  O   -0.553152
    23  C    0.019821
    24  C   -0.064625
    25  C    0.039878
    26  C    0.185295
    27  N   -0.456394
    28  H    0.270505
    29  H    0.013073
    30  H    0.028472
    31  H    0.012763
    32  H    0.013322
    33  H    0.014034
    34  H   -0.001186
    35  H    0.022943
    36  H    0.050677
    37  H    0.019329
    38  H    0.315553
    39  H    0.317073
    40  H    0.334222
    41  N   -0.531417
    42  C    0.041300
    43  C    0.643060
    44  O   -0.566962
    45  C   -0.391729
    46  C    0.890258
    47  O   -0.745448
    48  O   -0.846577
    49  H    0.247566
    50  H    0.136163
    51  H    0.125512
    52  H    0.132489
    53  N   -0.541959
    54  C    0.114891
    55  C    0.577096
    56  O   -0.516749
    57  H    0.371407
    58  H    0.062337
    59  H    0.036222
    60  N   -0.675121
    61  C    0.594350
    62  C    0.389432
    63  O   -0.517954
    64  C   -0.317371
    65  C    0.672775
    66  N   -0.778452
    67  O   -0.534723
    68  H    0.353487
    69  H   -0.134404
    70  H    0.100397
    71  H    0.078237
    72  H    0.348241
    73  H    0.323161
    74  N   -0.433586
    75  C   -0.044023
    76  C    0.552118
    77  O   -0.556247
    78  H    0.315263
    79  H    0.086100
    80  H    0.087244
    81  N   -0.551957
    82  C    0.278771
    83  C    0.591642
    84  O   -0.517874
    85  C   -0.248365
    86  C    0.046867
    87  C   -0.105519
    88  C   -0.121847
    89  C   -0.283209
    90  C   -0.336092
    91  C    0.408471
    92  O   -0.558253
    93  H    0.287994
    94  H    0.058587
    95  H    0.080299
    96  H    0.106391
    97  H    0.108850
    98  H    0.131791
    99  H    0.162457
   100  H    0.148800
   101  H    0.413315
   102  N   -0.757229
   103  C    0.287612
   104  C    0.812039
   105  O   -0.561222
   106  C   -0.412414
   107  C    0.597624
   108  C   -0.486681
   109  C   -0.441211
   110  H    0.336389
   111  H   -0.005680
   112  H    0.054754
   113  H   -0.023686
   114  H   -0.096540
   115  H    0.147371
   116  H    0.135223
   117  H    0.172103
   118  H    0.033505
   119  H    0.087012
   120  H    0.153950
   121  N   -0.573623
   122  C   -0.239480
   123  C    0.804810
   124  O   -0.543172
   125  C    0.062106
   126  O   -0.524754
   127  H    0.356409
   128  H    0.152865
   129  H    0.090830
   130  H    0.073183
   131  H    0.362005
   132  N   -0.859970
   133  C    0.406535
   134  C    0.553809
   135  O   -0.524090
   136  C   -0.375530
   137  H    0.392470
   138  H    0.009730
   139  H    0.099091
   140  H    0.119048
   141  H    0.099740
   142  N   -0.682108
   143  C    0.457274
   144  C    0.312545
   145  O   -0.479032
   146  C   -0.325834
   147  H    0.298144
   148  H    0.005650
   149  H    0.061960
   150  H    0.088665
   151  H    0.106225
   152  N   -0.129088
   153  C   -0.481199
   154  C    0.658223
   155  O   -0.536691
   156  C    0.607281
   157  C   -0.076614
   158  C    0.617434
   159  O   -0.738290
   160  O   -0.770630
   161  H    0.100549
   162  H    0.168569
   163  H   -0.177321
   164  H   -0.041581
   165  H    0.001722
   166  H   -0.008869
   167  N   -0.334790
   168  C   -0.241449
   169  H    0.122952
   170  H    0.114331
   171  H    0.099108
   172  H    0.270298
   173  Ca   1.628107
   174  O   -0.816470
   175  H    0.391899
   176  H    0.457403
 Sum of ESP charges =  -0.00000

 Normal termination of Gaussian 16 at Wed Sep 18 17:41:53 2019.
