 Gaussian 16, Revision A.03,
 Gaussian 16:  ES64L-G16RevA.03 25-Dec-2016

 ----------------------------------------------------------------------
 #b3lyp/svp scf=(tight,noincore) Test #IOP(5/87=12) Density=Current Pop
 =(MK,readradii) iop(6/33=2) iop(6/42=6)
 ----------------------------------------------------------------------

 ----------------
 Ng-31_loop3_45.0
 ----------------
 Symbolic Z-matrix:
 Charge =  0 Multiplicity = 1

                         Standard orientation:
 ---------------------------------------------------------------------
 Center     Atomic      Atomic             Coordinates (Angstroms)
 Number     Number       Type             X           Y           Z
 ---------------------------------------------------------------------
      1          6           0        4.647148   -1.931124    5.957468
      2          6           0        4.192620   -0.922772    4.908835
      3          8           0        3.015910   -0.581054    4.864319
      4          1           0        4.520906   -2.941240    5.568283
      5          1           0        5.698066   -1.761769    6.193459
      6          1           0        4.048028   -1.812942    6.859752
      7          7           0        5.221297   -0.347073    4.290453
      8          6           0        5.020682    0.649454    3.261528
      9          6           0        4.869150    0.027520    1.877391
     10          8           0        4.247118    0.597356    0.978244
     11          6           0        6.127195    1.692195    3.209374
     12          6           0        7.511022    1.111773    3.496837
     13          8           0        8.421596    1.924562    3.801516
     14          8           0        7.757440   -0.102569    3.424373
     15          1           0        6.159894   -0.644268    4.537255
     16          1           0        4.056541    1.147609    3.388307
     17          1           0        5.892762    2.507517    3.902836
     18          1           0        6.128034    2.040340    2.184584
     19          7           0        5.471665   -1.149659    1.674106
     20          6           0        5.509577   -1.951216    0.476372
     21          6           0        5.931659   -1.174063   -0.765916
     22          8           0        7.010886   -0.603685   -0.836195
     23          6           0        6.374985   -3.184522    0.744189
     24          6           0        6.445195   -4.192395   -0.399779
     25          6           0        7.001969   -5.495423    0.174606
     26          6           0        8.402010   -5.432508    0.791394
     27          7           0        9.365861   -4.786659   -0.106588
     28          1           0        5.991500   -1.535167    2.452923
     29          1           0        4.485595   -2.311760    0.407304
     30          1           0        6.041232   -3.712671    1.637199
     31          1           0        7.301599   -2.762788    1.125147
     32          1           0        7.039842   -3.871864   -1.262307
     33          1           0        5.391145   -4.172559   -0.665080
     34          1           0        7.041227   -6.119364   -0.710637
     35          1           0        6.381187   -5.932535    0.958866
     36          1           0        8.768706   -6.414856    1.079363
     37          1           0        8.307831   -4.847187    1.706506
     38          1           0       10.279064   -4.709362    0.316597
     39          1           0        9.366773   -5.228503   -1.017726
     40          1           0        9.075116   -3.835875   -0.265580
     41          7           0        4.990376   -1.096863   -1.713928
     42          6           0        5.089897   -0.513909   -3.037091
     43          6           0        4.126928    0.667971   -3.108853
     44          8           0        3.655597    1.035354   -4.183505
     45          6           0        4.754174   -1.525733   -4.129063
     46          6           0        3.498226   -2.357353   -3.958177
     47          8           0        3.310750   -3.128446   -2.989792
     48          8           0        2.585925   -2.323270   -4.808204
     49          1           0        4.082798   -1.498137   -1.531219
     50          1           0        6.096491   -0.152937   -3.190278
     51          1           0        5.531894   -2.297060   -4.078010
     52          1           0        4.775576   -1.031261   -5.097588
     53          7           0        3.790021    1.357718   -2.022924
     54          6           0        2.832786    2.450069   -1.999023
     55          6           0        3.354870    3.787158   -2.514213
     56          8           0        4.566465    3.892040   -2.701930
     57          1           0        4.174397    0.984447   -1.165997
     58          1           0        2.456969    2.750751   -1.015635
     59          1           0        1.985273    2.184137   -2.625682
     60          7           0        2.591041    4.879115   -2.567083
     61          6           0        1.169673    5.072240   -2.359681
     62          6           0        0.925237    6.536152   -2.041227
     63          8           0        0.969638    7.443323   -2.875775
     64          6           0        0.431087    4.685575   -3.645247
     65          6           0       -1.067192    4.667097   -3.390843
     66          7           0       -1.663885    3.510061   -3.704094
     67          8           0       -1.718727    5.578571   -2.898080
     68          1           0        3.018148    5.567975   -3.171030
     69          1           0        0.778280    4.510757   -1.515318
     70          1           0        0.731792    3.650909   -3.847592
     71          1           0        0.654247    5.411646   -4.415390
     72          1           0       -1.153823    2.681232   -3.958414
     73          1           0       -2.603544    3.464879   -3.340915
     74          7           0        0.835385    6.907210   -0.762422
     75          6           0        1.021888    6.128739    0.442152
     76          6           0       -0.191015    5.359305    0.963438
     77          8           0        0.031425    4.595544    1.901569
     78          1           0        0.691779    7.894245   -0.664245
     79          1           0        1.233036    6.791438    1.275486
     80          1           0        1.820432    5.407927    0.265357
     81          7           0       -1.406041    5.444828    0.436848
     82          6           0       -2.580755    4.688319    0.834139
     83          6           0       -2.551563    3.225350    0.412394
     84          8           0       -2.159849    2.921337   -0.706774
     85          6           0       -3.847107    5.414844    0.369043
     86          6           0       -4.192748    6.684077    1.113476
     87          6           0       -4.442140    6.701154    2.494965
     88          6           0       -4.246993    7.877085    0.376734
     89          6           0       -4.639274    7.901507    3.172305
     90          6           0       -4.453682    9.103803    1.010329
     91          6           0       -4.609788    9.092336    2.415961
     92          8           0       -4.856912   10.230142    3.121387
     93          1           0       -1.479807    6.002154   -0.404429
     94          1           0       -2.592038    4.738644    1.923056
     95          1           0       -4.639782    4.699463    0.597948
     96          1           0       -3.743788    5.520011   -0.701127
     97          1           0       -4.549481    5.752050    2.988807
     98          1           0       -3.966184    7.870256   -0.662545
     99          1           0       -5.058740    7.949668    4.170768
    100          1           0       -4.447605   10.017222    0.434804
    101          1           0       -4.913561   11.038394    2.605907
    102          7           0       -2.992514    2.290181    1.254963
    103          6           0       -2.805828    0.849269    1.141291
    104          6           0       -3.495398    0.302289   -0.100726
    105          8           0       -4.680749    0.548436   -0.344970
    106          6           0       -3.070287    0.152772    2.466339
    107          6           0       -1.868253    0.042670    3.399288
    108          6           0       -4.396363    0.604084    3.062276
    109          6           0       -1.381980    1.395310    3.923124
    110          1           0       -3.415471    2.581629    2.119639
    111          1           0       -1.743424    0.663746    1.016877
    112          1           0       -3.225825   -0.906595    2.287040
    113          1           0       -1.029292   -0.491153    2.956032
    114          1           0       -2.097601   -0.610676    4.242045
    115          1           0       -4.451526    0.059407    3.994201
    116          1           0       -4.352418    1.679122    3.227389
    117          1           0       -5.288597    0.402586    2.456788
    118          1           0       -0.585608    1.242912    4.638014
    119          1           0       -1.038503    1.972549    3.071292
    120          1           0       -2.176845    2.063221    4.259255
    121          7           0       -2.783719   -0.517905   -0.867078
    122          6           0       -3.277810   -1.199985   -2.054908
    123          6           0       -4.451620   -2.135895   -1.827659
    124          8           0       -5.058950   -2.289486   -0.772595
    125          6           0       -3.404089   -0.161284   -3.163807
    126          8           0       -3.204266   -0.822522   -4.394634
    127          1           0       -1.815816   -0.687002   -0.631770
    128          1           0       -2.485650   -1.882915   -2.365211
    129          1           0       -2.587326    0.551762   -3.070199
    130          1           0       -4.400245    0.271526   -3.089991
    131          1           0       -3.846829   -0.517395   -5.051071
    132          7           0       -4.694339   -2.904602   -2.896292
    133          6           0       -5.563841   -4.060317   -2.915989
    134          6           0       -5.139124   -5.210121   -2.014675
    135          8           0       -4.045731   -5.762721   -2.175067
    136          6           0       -5.793042   -4.463149   -4.370566
    137          1           0       -4.199383   -2.845588   -3.778072
    138          1           0       -6.508536   -3.676992   -2.540341
    139          1           0       -5.996190   -3.696967   -5.119430
    140          1           0       -5.048807   -5.187789   -4.702396
    141          1           0       -6.691598   -5.076539   -4.345100
    142          7           0       -6.025574   -5.610708   -1.109227
    143          6           0       -5.993563   -6.688183   -0.133408
    144          6           0       -4.881270   -6.590460    0.903248
    145          8           0       -4.256061   -7.624231    1.138049
    146          6           0       -6.112932   -8.001051   -0.905437
    147          1           0       -6.884174   -5.074670   -1.030675
    148          1           0       -6.812954   -6.558838    0.576146
    149          1           0       -5.171569   -8.123101   -1.431498
    150          1           0       -6.182164   -8.786269   -0.149700
    151          1           0       -7.027597   -8.121859   -1.477970
    152          7           0       -4.632378   -5.370382    1.371610
    153          6           0       -3.586135   -5.059084    2.331957
    154          6           0       -4.110769   -5.094051    3.762774
    155          8           0       -3.381579   -5.486733    4.656129
    156          6           0       -2.858358   -3.774344    1.966600
    157          6           0       -1.912007   -3.895433    0.767952
    158          6           0       -0.961552   -2.790626    0.348382
    159          8           0       -0.704789   -2.643028   -0.866890
    160          8           0       -0.341913   -2.147251    1.224862
    161          1           0       -5.218635   -4.619153    1.054028
    162          1           0       -2.838673   -5.853428    2.327742
    163          1           0       -2.285091   -3.513443    2.855867
    164          1           0       -3.545513   -2.948503    1.770888
    165          1           0       -2.551318   -4.020530   -0.107338
    166          1           0       -1.321810   -4.795374    0.960757
    167          7           0       -5.353963   -4.653638    4.004858
    168          6           0       -5.962204   -4.763065    5.306191
    169          1           0       -5.704608   -5.726192    5.746846
    170          1           0       -5.596986   -3.961077    5.947048
    171          1           0       -7.045527   -4.686553    5.209000
    172          1           0       -5.939541   -4.289054    3.268938
    173         20           0        0.829903   -3.273465   -2.857636
    174          8           0        0.307892   -0.701270   -3.093042
    175          1           0        0.418015   -0.101117   -3.832088
    176          1           0        0.140456   -0.126832   -2.346794
 ---------------------------------------------------------------------

 SCF Done:  E(RB3LYP) =  -5333.38776143     A.U. after   46 cycles

 The electronic state is 1-A.
 Alpha  occ. eigenvalues -- -145.49034 -19.20789 -19.16348 -19.15457 -19.11537
 Alpha  occ. eigenvalues --  -19.10987 -19.10944 -19.10253 -19.09905 -19.09830
 Alpha  occ. eigenvalues --  -19.09408 -19.09376 -19.09030 -19.08951 -19.08213
 Alpha  occ. eigenvalues --  -19.08173 -19.07554 -19.07524 -19.07443 -19.07387
 Alpha  occ. eigenvalues --  -19.05316 -19.04466 -18.98215 -18.95943 -15.54942
 Alpha  occ. eigenvalues --  -14.58468 -14.37562 -14.36366 -14.36072 -14.35867
 Alpha  occ. eigenvalues --  -14.35220 -14.35049 -14.34988 -14.34978 -14.34391
 Alpha  occ. eigenvalues --  -14.34341 -14.34320 -14.34156 -14.33193 -14.30018
 Alpha  occ. eigenvalues --  -12.68554 -12.68536 -12.68435 -10.35379 -10.29886
 Alpha  occ. eigenvalues --  -10.29710 -10.29552 -10.29036 -10.28596 -10.28526
 Alpha  occ. eigenvalues --  -10.28343 -10.28252 -10.27370 -10.27188 -10.27127
 Alpha  occ. eigenvalues --  -10.26833 -10.26783 -10.26406 -10.26162 -10.26060
 Alpha  occ. eigenvalues --  -10.25308 -10.25160 -10.25084 -10.24756 -10.24590
 Alpha  occ. eigenvalues --  -10.24549 -10.24532 -10.24523 -10.23791 -10.23586
 Alpha  occ. eigenvalues --  -10.23311 -10.23207 -10.23192 -10.22622 -10.22258
 Alpha  occ. eigenvalues --  -10.21620 -10.21342 -10.21226 -10.20276 -10.20082
 Alpha  occ. eigenvalues --  -10.18837 -10.18752 -10.18569 -10.18513 -10.18463
 Alpha  occ. eigenvalues --  -10.18316 -10.18282 -10.17879 -10.17846 -10.17381
 Alpha  occ. eigenvalues --  -10.17047 -10.16920 -10.16473 -10.15316 -10.14669
 Alpha  occ. eigenvalues --  -10.13554 -10.12000  -1.91541  -1.19121  -1.18983
 Alpha  occ. eigenvalues --   -1.18273  -1.13914  -1.06470  -1.06291  -1.04570
 Alpha  occ. eigenvalues --   -1.04113  -1.03988  -1.03440  -1.03225  -1.02989
 Alpha  occ. eigenvalues --   -1.02374  -1.02323  -1.02275  -1.01961  -1.01957
 Alpha  occ. eigenvalues --   -1.01486  -1.00951  -1.00784  -1.00185  -1.00008
 Alpha  occ. eigenvalues --   -0.97241  -0.94612  -0.94208  -0.93555  -0.93359
 Alpha  occ. eigenvalues --   -0.92790  -0.92378  -0.92105  -0.91734  -0.91351
 Alpha  occ. eigenvalues --   -0.91311  -0.91148  -0.90866  -0.90844  -0.90626
 Alpha  occ. eigenvalues --   -0.90068  -0.89794  -0.89622  -0.87433  -0.84356
 Alpha  occ. eigenvalues --   -0.83067  -0.81412  -0.80849  -0.79886  -0.79444
 Alpha  occ. eigenvalues --   -0.79005  -0.78593  -0.78048  -0.77231  -0.77035
 Alpha  occ. eigenvalues --   -0.76038  -0.74123  -0.74068  -0.73875  -0.73516
 Alpha  occ. eigenvalues --   -0.72994  -0.72484  -0.72015  -0.71662  -0.70517
 Alpha  occ. eigenvalues --   -0.70239  -0.69366  -0.69174  -0.69076  -0.68459
 Alpha  occ. eigenvalues --   -0.68257  -0.67908  -0.66959  -0.65558  -0.65257
 Alpha  occ. eigenvalues --   -0.64613  -0.62771  -0.61982  -0.61938  -0.61397
 Alpha  occ. eigenvalues --   -0.61322  -0.60792  -0.60782  -0.60618  -0.59953
 Alpha  occ. eigenvalues --   -0.59524  -0.59438  -0.59124  -0.58770  -0.58500
 Alpha  occ. eigenvalues --   -0.58258  -0.58155  -0.58001  -0.57443  -0.57237
 Alpha  occ. eigenvalues --   -0.56095  -0.56042  -0.55667  -0.55421  -0.54991
 Alpha  occ. eigenvalues --   -0.54642  -0.54590  -0.54499  -0.54414  -0.53947
 Alpha  occ. eigenvalues --   -0.53561  -0.53321  -0.53203  -0.52383  -0.51979
 Alpha  occ. eigenvalues --   -0.51864  -0.51775  -0.51401  -0.50878  -0.50555
 Alpha  occ. eigenvalues --   -0.50160  -0.50119  -0.49532  -0.49194  -0.48989
 Alpha  occ. eigenvalues --   -0.48903  -0.48675  -0.48126  -0.47974  -0.47859
 Alpha  occ. eigenvalues --   -0.47837  -0.47597  -0.47320  -0.47258  -0.46928
 Alpha  occ. eigenvalues --   -0.46794  -0.46425  -0.46373  -0.45866  -0.45647
 Alpha  occ. eigenvalues --   -0.45495  -0.45309  -0.45249  -0.45162  -0.45070
 Alpha  occ. eigenvalues --   -0.44609  -0.44499  -0.44423  -0.44181  -0.44095
 Alpha  occ. eigenvalues --   -0.43970  -0.43417  -0.43361  -0.43310  -0.43261
 Alpha  occ. eigenvalues --   -0.42931  -0.42835  -0.42791  -0.42582  -0.42429
 Alpha  occ. eigenvalues --   -0.42313  -0.42090  -0.41973  -0.41907  -0.41606
 Alpha  occ. eigenvalues --   -0.41433  -0.41352  -0.41240  -0.41145  -0.41095
 Alpha  occ. eigenvalues --   -0.41078  -0.40650  -0.40575  -0.40487  -0.40274
 Alpha  occ. eigenvalues --   -0.40241  -0.40129  -0.39786  -0.39711  -0.39583
 Alpha  occ. eigenvalues --   -0.39501  -0.39308  -0.39219  -0.39068  -0.39028
 Alpha  occ. eigenvalues --   -0.38920  -0.38691  -0.38571  -0.38404  -0.38283
 Alpha  occ. eigenvalues --   -0.38157  -0.38069  -0.37951  -0.37836  -0.37642
 Alpha  occ. eigenvalues --   -0.37594  -0.37478  -0.37363  -0.37227  -0.36953
 Alpha  occ. eigenvalues --   -0.36926  -0.36754  -0.36722  -0.36562  -0.36097
 Alpha  occ. eigenvalues --   -0.35935  -0.35881  -0.35865  -0.35315  -0.35025
 Alpha  occ. eigenvalues --   -0.34925  -0.34818  -0.34806  -0.34207  -0.34142
 Alpha  occ. eigenvalues --   -0.33505  -0.33303  -0.33108  -0.32823  -0.32785
 Alpha  occ. eigenvalues --   -0.32514  -0.32256  -0.32107  -0.31642  -0.30821
 Alpha  occ. eigenvalues --   -0.30317  -0.29094  -0.28865  -0.28642  -0.28546
 Alpha  occ. eigenvalues --   -0.28469  -0.28145  -0.27797  -0.27791  -0.27565
 Alpha  occ. eigenvalues --   -0.27418  -0.27173  -0.26797  -0.26667  -0.26520
 Alpha  occ. eigenvalues --   -0.26036  -0.25904  -0.25767  -0.25540  -0.25511
 Alpha  occ. eigenvalues --   -0.25418  -0.25330  -0.25170  -0.25168  -0.24983
 Alpha  occ. eigenvalues --   -0.24603  -0.24455  -0.24276  -0.24168  -0.23950
 Alpha  occ. eigenvalues --   -0.23901  -0.23637  -0.23139  -0.23038  -0.22690
 Alpha  occ. eigenvalues --   -0.22555  -0.21404  -0.21012  -0.20521  -0.20217
 Alpha  occ. eigenvalues --   -0.15418  -0.14632  -0.11797
 Alpha virt. eigenvalues --   -0.10855  -0.10071  -0.04320  -0.03099  -0.03030
 Alpha virt. eigenvalues --   -0.01692  -0.01267  -0.01060  -0.00622  -0.00048
 Alpha virt. eigenvalues --    0.00389   0.00428   0.00666   0.01101   0.01498

 Mulliken charges:
               1
     1  C    0.043748
     2  C    0.007860
     3  O   -0.281259
     4  H    0.005262
     5  H    0.005826
     6  H    0.028901
     7  N   -0.144148
     8  C    0.121050
     9  C    0.061616
    10  O   -0.315578
    11  C    0.096195
    12  C    0.025490
    13  O   -0.364829
    14  O   -0.408196
    15  H    0.129639
    16  H    0.013935
    17  H    0.008626
    18  H    0.010812
    19  N   -0.091195
    20  C    0.160242
    21  C    0.064752
    22  O   -0.250523
    23  C   -0.104347
    24  C    0.006853
    25  C   -0.000121
    26  C    0.012335
    27  N    0.072567
    28  H    0.098621
    29  H   -0.010056
    30  H    0.012684
    31  H    0.021824
    32  H    0.007197
    33  H    0.042745
    34  H    0.018879
    35  H    0.060829
    36  H    0.074611
    37  H    0.093247
    38  H    0.202587
    39  H    0.191838
    40  H    0.198567
    41  N   -0.151548
    42  C    0.101618
    43  C    0.018143
    44  O   -0.293395
    45  C    0.193657
    46  C    0.048761
    47  O   -0.494980
    48  O   -0.379821
    49  H    0.117741
    50  H    0.042659
    51  H   -0.010106
    52  H    0.034254
    53  N   -0.091916
    54  C    0.214184
    55  C   -0.000492
    56  O   -0.253258
    57  H    0.137693
    58  H    0.056805
    59  H   -0.036648
    60  N   -0.093401
    61  C   -0.014352
    62  C    0.094431
    63  O   -0.270640
    64  C    0.150569
    65  C    0.014346
    66  N   -0.047354
    67  O   -0.271526
    68  H    0.136129
    69  H    0.019698
    70  H   -0.018276
    71  H    0.041094
    72  H    0.108996
    73  H    0.138630
    74  N   -0.135370
    75  C    0.190024
    76  C   -0.006980
    77  O   -0.287446
    78  H    0.124547
    79  H    0.049130
    80  H    0.056545
    81  N   -0.104565
    82  C    0.104686
    83  C    0.105245
    84  O   -0.309831
    85  C    0.126234
    86  C    0.003668
    87  C   -0.001743
    88  C   -0.026710
    89  C    0.001066
    90  C   -0.033906
    91  C    0.152113
    92  O   -0.207793
    93  H    0.128094
    94  H   -0.006649
    95  H   -0.000585
    96  H    0.010571
    97  H   -0.032570
    98  H   -0.018921
    99  H   -0.008978
   100  H   -0.040702
   101  H    0.172916
   102  N   -0.106024
   103  C    0.139879
   104  C    0.101787
   105  O   -0.295850
   106  C   -0.095106
   107  C    0.010790
   108  C    0.077304
   109  C    0.019464
   110  H    0.118102
   111  H   -0.010074
   112  H   -0.012608
   113  H    0.042102
   114  H   -0.014160
   115  H   -0.001034
   116  H   -0.027687
   117  H    0.028090
   118  H    0.034966
   119  H    0.009546
   120  H   -0.031853
   121  N   -0.146680
   122  C    0.055845
   123  C    0.129204
   124  O   -0.262870
   125  C    0.255733
   126  O   -0.333894
   127  H    0.143423
   128  H   -0.011222
   129  H   -0.026081
   130  H    0.028807
   131  H    0.175279
   132  N   -0.136962
   133  C    0.076351
   134  C    0.097604
   135  O   -0.298239
   136  C    0.040155
   137  H    0.103818
   138  H   -0.021686
   139  H    0.028242
   140  H    0.023582
   141  H    0.007479
   142  N   -0.114870
   143  C    0.016121
   144  C    0.068230
   145  O   -0.257866
   146  C    0.102287
   147  H    0.124453
   148  H    0.006969
   149  H    0.041288
   150  H    0.011815
   151  H   -0.002684
   152  N   -0.137280
   153  C    0.112036
   154  C    0.068478
   155  O   -0.256780
   156  C    0.018165
   157  C    0.058028
   158  C    0.093884
   159  O   -0.511204
   160  O   -0.309403
   161  H    0.116208
   162  H    0.014219
   163  H    0.024831
   164  H    0.025281
   165  H   -0.010088
   166  H   -0.001187
   167  N   -0.165445
   168  C    0.134919
   169  H    0.037144
   170  H    0.030138
   171  H    0.005615
   172  H    0.098791
   173  Ca   1.381222
   174  O   -0.318224
   175  H    0.200870
   176  H    0.205649
 Sum of Mulliken charges =  -0.00000

 Dipole moment (field-independent basis, Debye):
    X=              0.4689    Y=            -26.1962    Z=            -17.5545  Tot=             31.5376
 Quadrupole moment (field-independent basis, Debye-Ang):
   XX=           -407.5391   YY=           -475.5001   ZZ=           -614.3761
   XY=           -232.2252   XZ=            -49.8480   YZ=             42.9183

 ESP charges:
               1
     1  C   -0.365485
     2  C    0.587490
     3  O   -0.553924
     4  H    0.069865
     5  H    0.074018
     6  H    0.119979
     7  N   -0.478129
     8  C    0.335872
     9  C    0.529586
    10  O   -0.629060
    11  C   -0.458525
    12  C    0.805194
    13  O   -0.685910
    14  O   -0.744978
    15  H    0.289102
    16  H    0.020179
    17  H    0.101043
    18  H    0.132127
    19  N   -0.427896
    20  C   -0.050365
    21  C    0.822314
    22  O   -0.569858
    23  C   -0.352695
    24  C    0.033584
    25  C   -0.250384
    26  C    0.148492
    27  N   -0.394161
    28  H    0.225194
    29  H    0.121073
    30  H    0.161348
    31  H    0.130837
    32  H    0.026887
    33  H    0.080327
    34  H    0.060808
    35  H    0.121097
    36  H    0.061346
    37  H    0.070636
    38  H    0.347318
    39  H    0.352974
    40  H    0.315737
    41  N   -0.715771
    42  C    0.179314
    43  C    0.555914
    44  O   -0.548688
    45  C   -0.357553
    46  C    0.863791
    47  O   -0.831733
    48  O   -0.736571
    49  H    0.288223
    50  H    0.100984
    51  H    0.095470
    52  H    0.124603
    53  N   -0.601485
    54  C    0.078035
    55  C    0.692702
    56  O   -0.536533
    57  H    0.431538
    58  H    0.093448
    59  H   -0.035434
    60  N   -0.766139
    61  C    0.680721
    62  C    0.273883
    63  O   -0.512879
    64  C   -0.555027
    65  C    0.791933
    66  N   -0.825466
    67  O   -0.568251
    68  H    0.354661
    69  H   -0.084668
    70  H    0.134000
    71  H    0.156873
    72  H    0.362877
    73  H    0.364148
    74  N   -0.213056
    75  C   -0.329545
    76  C    0.727693
    77  O   -0.599339
    78  H    0.269387
    79  H    0.157247
    80  H    0.135591
    81  N   -0.575443
    82  C    0.284038
    83  C    0.770025
    84  O   -0.642635
    85  C   -0.265365
    86  C    0.106151
    87  C   -0.179859
    88  C   -0.158026
    89  C   -0.219752
    90  C   -0.328213
    91  C    0.390711
    92  O   -0.569969
    93  H    0.250026
    94  H    0.013631
    95  H    0.069014
    96  H    0.087460
    97  H    0.132954
    98  H    0.160756
    99  H    0.157320
   100  H    0.152747
   101  H    0.416652
   102  N   -0.814476
   103  C    0.276607
   104  C    0.609164
   105  O   -0.560914
   106  C    0.230843
   107  C    0.103411
   108  C   -0.320128
   109  C   -0.369156
   110  H    0.362420
   111  H    0.004995
   112  H   -0.091555
   113  H    0.030370
   114  H    0.006893
   115  H    0.063512
   116  H    0.040348
   117  H    0.101464
   118  H    0.124081
   119  H    0.094863
   120  H    0.044523
   121  N   -0.689898
   122  C    0.262975
   123  C    0.576088
   124  O   -0.500388
   125  C    0.150018
   126  O   -0.665399
   127  H    0.327392
   128  H    0.019921
   129  H    0.042872
   130  H    0.042777
   131  H    0.413780
   132  N   -0.529166
   133  C    0.079390
   134  C    0.680831
   135  O   -0.565425
   136  C   -0.209688
   137  H    0.269630
   138  H    0.054510
   139  H    0.092781
   140  H    0.063781
   141  H    0.047840
   142  N   -0.654907
   143  C    0.486694
   144  C    0.412854
   145  O   -0.507969
   146  C   -0.394936
   147  H    0.281099
   148  H   -0.046652
   149  H    0.130386
   150  H    0.078463
   151  H    0.101293
   152  N   -0.388218
   153  C   -0.014076
   154  C    0.492378
   155  O   -0.506473
   156  C    0.135710
   157  C   -0.116395
   158  C    0.677241
   159  O   -0.815935
   160  O   -0.602671
   161  H    0.235190
   162  H    0.094584
   163  H   -0.015702
   164  H   -0.012722
   165  H   -0.037805
   166  H    0.055557
   167  N   -0.310219
   168  C   -0.217111
   169  H    0.117040
   170  H    0.106305
   171  H    0.094117
   172  H    0.261076
   173  Ca   1.568576
   174  O   -0.750107
   175  H    0.429782
   176  H    0.401487
 Sum of ESP charges =   0.00000

 Normal termination of Gaussian 16 at Wed Sep 18 20:00:11 2019.
