 Gaussian 16, Revision A.03,
 Gaussian 16:  ES64L-G16RevA.03 25-Dec-2016

 ----------------------------------------------------------------------
 #b3lyp/svp scf=(tight,noincore) Test #IOP(5/87=12) Density=Current Pop
 =(MK,readradii) iop(6/33=2) iop(6/42=6)
 ----------------------------------------------------------------------

 ---------------
 Ng-31_loop3_4.0
 ---------------
 Symbolic Z-matrix:
 Charge =  0 Multiplicity = 1

                         Standard orientation:
 ---------------------------------------------------------------------
 Center     Atomic      Atomic             Coordinates (Angstroms)
 Number     Number       Type             X           Y           Z
 ---------------------------------------------------------------------
      1          6           0        4.265525   -4.077472    3.889392
      2          6           0        4.585005   -2.805688    3.099520
      3          8           0        3.830804   -1.836853    3.004437
      4          1           0        3.411583   -4.581139    3.436974
      5          1           0        5.129074   -4.742497    3.872679
      6          1           0        4.027264   -3.815640    4.920259
      7          7           0        5.800189   -2.772356    2.558949
      8          6           0        6.461289   -1.959418    1.548267
      9          6           0        6.338123   -2.536175    0.143283
     10          8           0        6.327043   -3.736600   -0.132864
     11          6           0        7.946184   -1.820611    1.888736
     12          6           0        8.729358   -3.070735    2.261735
     13          8           0        8.242823   -4.200275    2.459527
     14          8           0        9.974571   -2.966162    2.355059
     15          1           0        6.169864   -3.713486    2.615655
     16          1           0        5.986061   -0.986000    1.509339
     17          1           0        7.989525   -1.136898    2.732394
     18          1           0        8.481516   -1.301084    1.102980
     19          7           0        6.136291   -1.590127   -0.770806
     20          6           0        6.114024   -1.755312   -2.217360
     21          6           0        4.703368   -1.745754   -2.780262
     22          8           0        4.466176   -1.717393   -3.986925
     23          6           0        7.062739   -0.813864   -2.963159
     24          6           0        8.475429   -0.586505   -2.452851
     25          6           0        9.248432   -1.888986   -2.247648
     26          6           0       10.723209   -1.694459   -1.882831
     27          7           0       11.532130   -0.992646   -2.894021
     28          1           0        6.018872   -0.640968   -0.441245
     29          1           0        6.585920   -2.701296   -2.456166
     30          1           0        6.601606    0.161691   -3.107902
     31          1           0        7.040487   -1.178870   -4.001703
     32          1           0        8.512696   -0.018368   -1.519721
     33          1           0        8.984309    0.014672   -3.206461
     34          1           0        9.180657   -2.526741   -3.128599
     35          1           0        8.773064   -2.484397   -1.468667
     36          1           0       11.112931   -2.681867   -1.617423
     37          1           0       10.748503   -1.085404   -0.982601
     38          1           0       12.427368   -0.774681   -2.474568
     39          1           0       11.683331   -1.435356   -3.785338
     40          1           0       11.140449   -0.098787   -3.147403
     41          7           0        3.678651   -1.774597   -1.932604
     42          6           0        2.337841   -1.379673   -2.296973
     43          6           0        2.256767    0.134239   -2.332969
     44          8           0        2.177705    0.727798   -3.407928
     45          6           0        1.321851   -2.088295   -1.389108
     46          6           0        1.580318   -2.148176    0.107993
     47          8           0        1.084185   -3.113331    0.726481
     48          8           0        2.137821   -1.169691    0.650907
     49          1           0        3.952836   -1.675299   -0.957534
     50          1           0        2.160713   -1.770927   -3.290525
     51          1           0        1.130659   -3.068693   -1.812387
     52          1           0        0.355013   -1.593154   -1.470101
     53          7           0        2.416817    0.809863   -1.192304
     54          6           0        2.477785    2.248068   -1.012447
     55          6           0        2.951397    2.662065    0.372616
     56          8           0        3.264964    1.828095    1.212181
     57          1           0        2.385741    0.275935   -0.328328
     58          1           0        1.500859    2.734308   -1.097799
     59          1           0        3.071552    2.763279   -1.764045
     60          7           0        3.121686    3.968345    0.591778
     61          6           0        2.460942    5.116839    0.005280
     62          6           0        2.052352    5.997005    1.172612
     63          8           0        2.820976    6.051295    2.127583
     64          6           0        3.281096    5.798854   -1.083252
     65          6           0        4.612543    6.370939   -0.607050
     66          7           0        5.675224    5.704285   -1.062990
     67          8           0        4.704619    7.421042    0.018014
     68          1           0        3.384495    4.173227    1.538169
     69          1           0        1.489850    4.828577   -0.416246
     70          1           0        2.672805    6.583637   -1.530238
     71          1           0        3.499902    5.159734   -1.936452
     72          1           0        5.578698    4.833058   -1.561234
     73          1           0        6.558456    6.077743   -0.749732
     74          7           0        0.928665    6.709579    1.194191
     75          6           0       -0.220683    6.468782    0.331222
     76          6           0       -0.903752    5.119266    0.515404
     77          8           0       -0.624215    4.308275    1.386812
     78          1           0        0.823020    7.310462    2.001209
     79          1           0        0.086355    6.511258   -0.718551
     80          1           0       -0.868342    7.327214    0.467353
     81          7           0       -1.972007    4.906804   -0.271928
     82          6           0       -2.867312    3.785765   -0.407205
     83          6           0       -3.113622    3.317091   -1.839642
     84          8           0       -3.189311    4.141160   -2.750730
     85          6           0       -4.261440    4.116460    0.125383
     86          6           0       -4.337223    4.229239    1.630587
     87          6           0       -4.767661    3.132158    2.389360
     88          6           0       -4.050952    5.398683    2.342521
     89          6           0       -4.915154    3.132044    3.786337
     90          6           0       -4.127934    5.432083    3.737282
     91          6           0       -4.621414    4.331370    4.465848
     92          8           0       -4.820775    4.437068    5.812690
     93          1           0       -2.155886    5.698898   -0.867306
     94          1           0       -2.645557    2.964469    0.274849
     95          1           0       -5.006605    3.422073   -0.242114
     96          1           0       -4.425255    5.134885   -0.244448
     97          1           0       -5.050206    2.264931    1.808769
     98          1           0       -3.659574    6.245765    1.794640
     99          1           0       -5.123103    2.237322    4.351076
    100          1           0       -3.948326    6.360573    4.270431
    101          1           0       -4.649462    5.363293    6.002580
    102          7           0       -3.351206    2.020982   -2.015586
    103          6           0       -3.698149    1.356352   -3.250858
    104          6           0       -5.134352    0.853559   -3.304894
    105          8           0       -5.677775    0.736828   -4.401236
    106          6           0       -2.613419    0.335116   -3.584382
    107          6           0       -1.260965    0.995086   -3.818064
    108          6           0       -2.499732   -0.826596   -2.599445
    109          6           0       -1.103419    1.965839   -4.972021
    110          1           0       -3.254288    1.429835   -1.193362
    111          1           0       -3.666534    2.084189   -4.053200
    112          1           0       -2.868529   -0.119534   -4.543295
    113          1           0       -0.640822    0.153050   -4.130473
    114          1           0       -0.898280    1.331798   -2.844367
    115          1           0       -1.890552   -1.670538   -2.928474
    116          1           0       -2.018056   -0.455460   -1.696147
    117          1           0       -3.509641   -1.184530   -2.421772
    118          1           0       -1.547435    1.507920   -5.854098
    119          1           0       -1.625402    2.889071   -4.685534
    120          1           0       -0.076411    2.262058   -5.177958
    121          7           0       -5.820017    0.682296   -2.171125
    122          6           0       -7.200840    0.268371   -2.007135
    123          6           0       -7.500397   -1.203436   -2.254419
    124          8           0       -8.665761   -1.567041   -2.370687
    125          6           0       -7.679291    0.627971   -0.601620
    126          8           0       -6.998737   -0.049832    0.423236
    127          1           0       -5.236893    0.711840   -1.355715
    128          1           0       -7.767957    0.973685   -2.616569
    129          1           0       -8.751540    0.409818   -0.519209
    130          1           0       -7.571438    1.708011   -0.555999
    131          1           0       -6.058952    0.181764    0.390550
    132          7           0       -6.539352   -2.123134   -2.325470
    133          6           0       -6.699787   -3.563341   -2.271015
    134          6           0       -5.612244   -4.258491   -1.464469
    135          8           0       -4.449664   -3.960818   -1.711856
    136          6           0       -6.589849   -4.057494   -3.718884
    137          1           0       -5.584926   -1.795403   -2.198332
    138          1           0       -7.698818   -3.775460   -1.888599
    139          1           0       -5.601044   -3.818445   -4.109679
    140          1           0       -6.805109   -5.120048   -3.803975
    141          1           0       -7.312302   -3.478924   -4.283525
    142          7           0       -6.002249   -5.226557   -0.626827
    143          6           0       -5.217202   -6.051857    0.273828
    144          6           0       -3.975138   -5.422918    0.886700
    145          8           0       -3.142219   -6.162110    1.408945
    146          6           0       -4.982823   -7.390876   -0.425097
    147          1           0       -6.977153   -5.485762   -0.640013
    148          1           0       -5.895484   -6.186741    1.109735
    149          1           0       -4.624327   -8.066719    0.354657
    150          1           0       -5.921248   -7.730999   -0.862220
    151          1           0       -4.193780   -7.265622   -1.176511
    152          7           0       -3.905141   -4.091021    0.964493
    153          6           0       -2.876305   -3.440557    1.751636
    154          6           0       -3.081248   -3.464514    3.261445
    155          8           0       -2.125818   -3.414718    4.045584
    156          6           0       -2.520887   -2.068870    1.179313
    157          6           0       -3.547451   -1.080199    1.742959
    158          6           0       -3.499962    0.181007    0.893015
    159          8           0       -2.413440    0.810775    0.946507
    160          8           0       -4.455376    0.403821    0.125722
    161          1           0       -4.485560   -3.488248    0.411700
    162          1           0       -2.003948   -4.060076    1.548194
    163          1           0       -2.569441   -2.065490    0.091778
    164          1           0       -1.528857   -1.748636    1.487087
    165          1           0       -3.296151   -0.783858    2.758651
    166          1           0       -4.536609   -1.528365    1.712719
    167          7           0       -4.349114   -3.514282    3.682205
    168          6           0       -4.739143   -3.670476    5.064515
    169          1           0       -4.797955   -4.731412    5.306871
    170          1           0       -3.999917   -3.193033    5.707522
    171          1           0       -5.712572   -3.207424    5.222606
    172          1           0       -5.002929   -3.799454    2.978854
    173         20           0        2.032844    0.071064    2.879904
    174          8           0        0.476341   -1.955702    3.080076
    175          1           0        0.795376   -2.441240    2.323657
    176          1           0       -0.253551   -2.466454    3.403480
 ---------------------------------------------------------------------

 SCF Done:  E(RB3LYP) =  -5333.45071582     A.U. after   25 cycles

 The electronic state is 1-A.
 Alpha  occ. eigenvalues -- -145.50826 -19.17858 -19.15431 -19.13932 -19.12783
 Alpha  occ. eigenvalues --  -19.12270 -19.11844 -19.11045 -19.10629 -19.10592
 Alpha  occ. eigenvalues --  -19.09717 -19.09665 -19.09323 -19.08831 -19.08735
 Alpha  occ. eigenvalues --  -19.07681 -19.06914 -19.06763 -19.06523 -19.05202
 Alpha  occ. eigenvalues --  -19.04704 -19.04675 -18.99356 -18.98240 -15.56596
 Alpha  occ. eigenvalues --  -14.59434 -14.40268 -14.39109 -14.38549 -14.38388
 Alpha  occ. eigenvalues --  -14.36252 -14.35901 -14.35436 -14.35027 -14.34761
 Alpha  occ. eigenvalues --  -14.34636 -14.34321 -14.32093 -14.31546 -14.30149
 Alpha  occ. eigenvalues --  -12.70204 -12.70174 -12.70148 -10.35453 -10.34877
 Alpha  occ. eigenvalues --  -10.31939 -10.31219 -10.30242 -10.30041 -10.29422
 Alpha  occ. eigenvalues --  -10.28877 -10.28832 -10.28232 -10.27937 -10.27813
 Alpha  occ. eigenvalues --  -10.27712 -10.27484 -10.27452 -10.27029 -10.26814
 Alpha  occ. eigenvalues --  -10.26508 -10.26324 -10.25489 -10.24478 -10.24314
 Alpha  occ. eigenvalues --  -10.24213 -10.23933 -10.23865 -10.23719 -10.23684
 Alpha  occ. eigenvalues --  -10.23637 -10.22596 -10.21563 -10.21558 -10.20921
 Alpha  occ. eigenvalues --  -10.20879 -10.19601 -10.19391 -10.19295 -10.19237
 Alpha  occ. eigenvalues --  -10.18964 -10.17958 -10.17952 -10.17942 -10.17814
 Alpha  occ. eigenvalues --  -10.17500 -10.17363 -10.17193 -10.17063 -10.16921
 Alpha  occ. eigenvalues --  -10.16849 -10.16005 -10.15781 -10.14958 -10.14844
 Alpha  occ. eigenvalues --  -10.14406 -10.14125  -1.93007  -1.20356  -1.20078
 Alpha  occ. eigenvalues --   -1.19928  -1.14561  -1.10433  -1.06708  -1.04680
 Alpha  occ. eigenvalues --   -1.04479  -1.04292  -1.04032  -1.04013  -1.03873
 Alpha  occ. eigenvalues --   -1.03289  -1.03013  -1.01948  -1.01700  -1.01166
 Alpha  occ. eigenvalues --   -1.00329  -1.00285  -0.99716  -0.99105  -0.98092
 Alpha  occ. eigenvalues --   -0.97778  -0.95649  -0.95304  -0.95044  -0.94396
 Alpha  occ. eigenvalues --   -0.94008  -0.93391  -0.93272  -0.92431  -0.92325
 Alpha  occ. eigenvalues --   -0.92178  -0.92023  -0.91555  -0.90661  -0.90419
 Alpha  occ. eigenvalues --   -0.89449  -0.89311  -0.88731  -0.87082  -0.84020
 Alpha  occ. eigenvalues --   -0.83289  -0.83091  -0.82845  -0.80155  -0.79196
 Alpha  occ. eigenvalues --   -0.78580  -0.78504  -0.77766  -0.77341  -0.76998
 Alpha  occ. eigenvalues --   -0.76119  -0.75485  -0.74455  -0.74095  -0.73178
 Alpha  occ. eigenvalues --   -0.72674  -0.72595  -0.72492  -0.72217  -0.71700
 Alpha  occ. eigenvalues --   -0.71296  -0.70874  -0.69953  -0.68458  -0.67488
 Alpha  occ. eigenvalues --   -0.67442  -0.66624  -0.65466  -0.65444  -0.64221
 Alpha  occ. eigenvalues --   -0.63658  -0.63180  -0.63154  -0.62657  -0.61938
 Alpha  occ. eigenvalues --   -0.61469  -0.61421  -0.60876  -0.60384  -0.59884
 Alpha  occ. eigenvalues --   -0.59648  -0.59458  -0.59236  -0.58770  -0.58521
 Alpha  occ. eigenvalues --   -0.58023  -0.57942  -0.57391  -0.57360  -0.56765
 Alpha  occ. eigenvalues --   -0.56597  -0.56147  -0.55895  -0.55572  -0.55133
 Alpha  occ. eigenvalues --   -0.54973  -0.54553  -0.54157  -0.54018  -0.53832
 Alpha  occ. eigenvalues --   -0.53584  -0.53179  -0.52859  -0.52840  -0.52426
 Alpha  occ. eigenvalues --   -0.52371  -0.52229  -0.51887  -0.51781  -0.51389
 Alpha  occ. eigenvalues --   -0.51093  -0.50516  -0.50290  -0.50035  -0.49617
 Alpha  occ. eigenvalues --   -0.49382  -0.48894  -0.48839  -0.48569  -0.48157
 Alpha  occ. eigenvalues --   -0.48029  -0.47575  -0.47438  -0.47242  -0.47122
 Alpha  occ. eigenvalues --   -0.46954  -0.46700  -0.46493  -0.46289  -0.46116
 Alpha  occ. eigenvalues --   -0.45767  -0.45425  -0.45095  -0.45068  -0.44765
 Alpha  occ. eigenvalues --   -0.44749  -0.44433  -0.44357  -0.44081  -0.44046
 Alpha  occ. eigenvalues --   -0.43899  -0.43808  -0.43614  -0.43411  -0.43220
 Alpha  occ. eigenvalues --   -0.42983  -0.42879  -0.42808  -0.42519  -0.42433
 Alpha  occ. eigenvalues --   -0.42356  -0.42250  -0.42160  -0.42042  -0.41905
 Alpha  occ. eigenvalues --   -0.41549  -0.41431  -0.41299  -0.41170  -0.41151
 Alpha  occ. eigenvalues --   -0.40980  -0.40824  -0.40789  -0.40712  -0.40627
 Alpha  occ. eigenvalues --   -0.40430  -0.40343  -0.40098  -0.40063  -0.39901
 Alpha  occ. eigenvalues --   -0.39844  -0.39379  -0.39370  -0.39094  -0.39061
 Alpha  occ. eigenvalues --   -0.38845  -0.38842  -0.38719  -0.38535  -0.38511
 Alpha  occ. eigenvalues --   -0.38267  -0.38219  -0.38092  -0.38016  -0.37785
 Alpha  occ. eigenvalues --   -0.37618  -0.37359  -0.37276  -0.36930  -0.36743
 Alpha  occ. eigenvalues --   -0.36661  -0.36434  -0.36395  -0.36132  -0.35955
 Alpha  occ. eigenvalues --   -0.35612  -0.35463  -0.35143  -0.35114  -0.34916
 Alpha  occ. eigenvalues --   -0.34542  -0.34118  -0.33793  -0.33651  -0.33509
 Alpha  occ. eigenvalues --   -0.33397  -0.33264  -0.32714  -0.32665  -0.32136
 Alpha  occ. eigenvalues --   -0.32014  -0.31747  -0.31357  -0.30890  -0.30846
 Alpha  occ. eigenvalues --   -0.30355  -0.30117  -0.30045  -0.29798  -0.29575
 Alpha  occ. eigenvalues --   -0.29514  -0.28894  -0.28673  -0.28272  -0.28183
 Alpha  occ. eigenvalues --   -0.28032  -0.27896  -0.27509  -0.27439  -0.27003
 Alpha  occ. eigenvalues --   -0.26938  -0.26629  -0.26525  -0.26305  -0.25857
 Alpha  occ. eigenvalues --   -0.25755  -0.25413  -0.25284  -0.25161  -0.24606
 Alpha  occ. eigenvalues --   -0.24367  -0.24204  -0.24120  -0.23892  -0.23640
 Alpha  occ. eigenvalues --   -0.23241  -0.23195  -0.22802  -0.22776  -0.22170
 Alpha  occ. eigenvalues --   -0.21871  -0.20856  -0.20522  -0.20206  -0.19701
 Alpha  occ. eigenvalues --   -0.17842  -0.16162  -0.13760
 Alpha virt. eigenvalues --   -0.12025  -0.11315  -0.05342  -0.04988  -0.04835
 Alpha virt. eigenvalues --   -0.02153  -0.01503  -0.01321  -0.00729  -0.00472
 Alpha virt. eigenvalues --   -0.00135   0.00077   0.00132   0.00615   0.00916

 Mulliken charges:
               1
     1  C    0.041211
     2  C    0.051098
     3  O   -0.419655
     4  H    0.068340
     5  H    0.043526
     6  H    0.031605
     7  N   -0.090454
     8  C    0.139978
     9  C    0.061027
    10  O   -0.233457
    11  C    0.064914
    12  C    0.032357
    13  O   -0.346988
    14  O   -0.402501
    15  H    0.136619
    16  H   -0.048732
    17  H    0.002263
    18  H   -0.064359
    19  N   -0.180837
    20  C    0.144090
    21  C    0.048785
    22  O   -0.268362
    23  C    0.013368
    24  C    0.035922
    25  C   -0.076879
    26  C    0.043410
    27  N    0.077458
    28  H    0.116116
    29  H    0.030837
    30  H   -0.006347
    31  H    0.030704
    32  H    0.010139
    33  H   -0.033890
    34  H    0.025439
    35  H    0.109689
    36  H    0.107218
    37  H    0.075194
    38  H    0.198710
    39  H    0.186817
    40  H    0.172049
    41  N   -0.115897
    42  C    0.152943
    43  C    0.044730
    44  O   -0.268289
    45  C    0.085595
    46  C    0.161025
    47  O   -0.349333
    48  O   -0.502344
    49  H    0.120029
    50  H    0.014525
    51  H    0.021272
    52  H    0.032024
    53  N   -0.157259
    54  C    0.198005
    55  C    0.043100
    56  O   -0.376319
    57  H    0.115751
    58  H    0.050324
    59  H    0.020309
    60  N   -0.086176
    61  C    0.014787
    62  C    0.083674
    63  O   -0.276768
    64  C    0.118473
    65  C    0.010594
    66  N   -0.050050
    67  O   -0.240964
    68  H    0.128971
    69  H    0.026681
    70  H    0.026884
    71  H    0.004136
    72  H    0.116095
    73  H    0.128488
    74  N   -0.089568
    75  C    0.127473
    76  C    0.033752
    77  O   -0.272233
    78  H    0.143354
    79  H    0.037988
    80  H    0.045282
    81  N   -0.103499
    82  C    0.103981
    83  C    0.077711
    84  O   -0.305662
    85  C    0.141282
    86  C   -0.033463
    87  C    0.010476
    88  C   -0.003892
    89  C   -0.009994
    90  C   -0.033224
    91  C    0.137445
    92  O   -0.190951
    93  H    0.102842
    94  H    0.031154
    95  H    0.018844
    96  H   -0.027368
    97  H   -0.028373
    98  H   -0.064143
    99  H   -0.028018
   100  H   -0.057517
   101  H    0.164941
   102  N   -0.151500
   103  C    0.169390
   104  C    0.037333
   105  O   -0.282683
   106  C   -0.085320
   107  C    0.011190
   108  C    0.018293
   109  C    0.030861
   110  H    0.153481
   111  H    0.012364
   112  H   -0.014256
   113  H   -0.006507
   114  H   -0.017435
   115  H    0.013067
   116  H    0.028641
   117  H   -0.002048
   118  H    0.001835
   119  H    0.019380
   120  H    0.002749
   121  N   -0.152948
   122  C    0.102388
   123  C    0.100415
   124  O   -0.301352
   125  C    0.233630
   126  O   -0.365088
   127  H    0.116522
   128  H    0.010846
   129  H    0.006270
   130  H   -0.019329
   131  H    0.185464
   132  N   -0.135789
   133  C    0.098092
   134  C    0.051138
   135  O   -0.289114
   136  C    0.082652
   137  H    0.134111
   138  H   -0.008924
   139  H    0.021323
   140  H   -0.009241
   141  H    0.031065
   142  N   -0.138877
   143  C    0.065732
   144  C    0.069009
   145  O   -0.265024
   146  C    0.082828
   147  H    0.126244
   148  H    0.012311
   149  H    0.029968
   150  H   -0.002936
   151  H    0.037324
   152  N   -0.133687
   153  C    0.105532
   154  C    0.082832
   155  O   -0.305483
   156  C    0.018133
   157  C    0.079694
   158  C    0.170297
   159  O   -0.400398
   160  O   -0.438561
   161  H    0.133183
   162  H    0.030682
   163  H    0.034358
   164  H   -0.019060
   165  H   -0.000332
   166  H   -0.028767
   167  N   -0.143656
   168  C    0.126259
   169  H    0.024855
   170  H    0.038511
   171  H    0.022813
   172  H    0.112330
   173  Ca   1.504048
   174  O   -0.361981
   175  H    0.170703
   176  H    0.180093
 Sum of Mulliken charges =  -0.00000

 Dipole moment (field-independent basis, Debye):
    X=             32.4189    Y=             11.8787    Z=             -2.8168  Tot=             34.6414
 Quadrupole moment (field-independent basis, Debye-Ang):
   XX=           -342.8557   YY=           -597.4717   ZZ=           -567.1210
   XY=            103.2028   XZ=           -232.0859   YZ=             41.6369

 ESP charges:
               1
     1  C   -0.577893
     2  C    0.854909
     3  O   -0.823386
     4  H    0.186543
     5  H    0.179551
     6  H    0.146801
     7  N   -0.498449
     8  C    0.317031
     9  C    0.646793
    10  O   -0.517655
    11  C   -0.507545
    12  C    0.809136
    13  O   -0.672685
    14  O   -0.727430
    15  H    0.219834
    16  H   -0.002613
    17  H    0.126564
    18  H    0.058881
    19  N   -0.633424
    20  C   -0.008839
    21  C    0.596584
    22  O   -0.554734
    23  C    0.076670
    24  C   -0.150382
    25  C    0.105001
    26  C   -0.031155
    27  N   -0.312445
    28  H    0.305234
    29  H    0.089901
    30  H    0.019708
    31  H    0.013097
    32  H    0.048058
    33  H    0.011973
    34  H    0.015018
    35  H    0.061497
    36  H    0.108971
    37  H    0.094362
    38  H    0.323481
    39  H    0.321020
    40  H    0.300575
    41  N   -0.439553
    42  C    0.240953
    43  C    0.307223
    44  O   -0.512690
    45  C   -0.414226
    46  C    0.848617
    47  O   -0.655598
    48  O   -0.731150
    49  H    0.217717
    50  H    0.098036
    51  H    0.136286
    52  H    0.076069
    53  N   -0.052783
    54  C   -0.214586
    55  C    0.725496
    56  O   -0.675883
    57  H    0.053237
    58  H    0.093322
    59  H    0.112177
    60  N   -0.605341
    61  C    0.351048
    62  C    0.324142
    63  O   -0.479035
    64  C   -0.282173
    65  C    0.656997
    66  N   -0.787282
    67  O   -0.516618
    68  H    0.315627
    69  H   -0.017980
    70  H    0.106238
    71  H    0.081010
    72  H    0.362461
    73  H    0.366417
    74  N   -0.410667
    75  C   -0.128350
    76  C    0.754200
    77  O   -0.567314
    78  H    0.349530
    79  H    0.074802
    80  H    0.117892
    81  N   -0.682247
    82  C    0.290349
    83  C    0.440095
    84  O   -0.533076
    85  C   -0.431276
    86  C    0.201284
    87  C   -0.147840
    88  C   -0.189276
    89  C   -0.259984
    90  C   -0.296580
    91  C    0.352345
    92  O   -0.521862
    93  H    0.294075
    94  H    0.102389
    95  H    0.174225
    96  H    0.105526
    97  H    0.103474
    98  H    0.127592
    99  H    0.169112
   100  H    0.123500
   101  H    0.382507
   102  N   -0.182019
   103  C   -0.222025
   104  C    0.584014
   105  O   -0.579310
   106  C    0.038970
   107  C    0.286406
   108  C   -0.172273
   109  C   -0.322429
   110  H   -0.012349
   111  H    0.130715
   112  H    0.024695
   113  H   -0.050492
   114  H   -0.039246
   115  H    0.060559
   116  H    0.081920
   117  H    0.030625
   118  H    0.071785
   119  H    0.052559
   120  H    0.081008
   121  N    0.025831
   122  C   -0.618701
   123  C    0.830047
   124  O   -0.582148
   125  C    0.321061
   126  O   -0.614512
   127  H   -0.045144
   128  H    0.202520
   129  H    0.047187
   130  H   -0.012969
   131  H    0.298842
   132  N   -0.553785
   133  C    0.179764
   134  C    0.713065
   135  O   -0.530570
   136  C   -0.267315
   137  H    0.284431
   138  H    0.015731
   139  H    0.080227
   140  H    0.053125
   141  H    0.101871
   142  N   -0.875732
   143  C    0.501794
   144  C    0.295766
   145  O   -0.486791
   146  C   -0.317039
   147  H    0.388916
   148  H   -0.014506
   149  H    0.056340
   150  H    0.087688
   151  H    0.118790
   152  N   -0.026624
   153  C   -0.623413
   154  C    0.668394
   155  O   -0.568508
   156  C    0.631712
   157  C   -0.604525
   158  C    0.804243
   159  O   -0.704246
   160  O   -0.319458
   161  H    0.135543
   162  H    0.213235
   163  H   -0.088756
   164  H   -0.127181
   165  H    0.127862
   166  H    0.067206
   167  N   -0.250924
   168  C   -0.155826
   169  H    0.080598
   170  H    0.094483
   171  H    0.083012
   172  H    0.225271
   173  Ca   1.753407
   174  O   -0.946298
   175  H    0.407892
   176  H    0.474849
 Sum of ESP charges =   0.00000

 Normal termination of Gaussian 16 at Wed Sep 18 19:23:50 2019.
