 Gaussian 16, Revision A.03,
 Gaussian 16:  ES64L-G16RevA.03 25-Dec-2016

 ----------------------------------------------------------------------
 #b3lyp/svp scf=(tight,noincore) Test #IOP(5/87=12) Density=Current Pop
 =(MK,readradii) iop(6/33=2) iop(6/42=6)
 ----------------------------------------------------------------------

 ----------------
 Ng-31_loop3_16.0
 ----------------
 Symbolic Z-matrix:
 Charge =  0 Multiplicity = 1

                         Standard orientation:
 ---------------------------------------------------------------------
 Center     Atomic      Atomic             Coordinates (Angstroms)
 Number     Number       Type             X           Y           Z
 ---------------------------------------------------------------------
      1          6           0        8.817767    2.089838    3.159467
      2          6           0        7.424653    1.714253    2.669700
      3          8           0        6.495090    1.343526    3.386829
      4          1           0        9.560464    1.745020    2.440546
      5          1           0        8.888185    3.172841    3.261453
      6          1           0        9.002949    1.620035    4.125682
      7          7           0        7.238650    1.729911    1.343443
      8          6           0        6.099700    1.077631    0.738610
      9          6           0        6.145980   -0.442501    0.757527
     10          8           0        5.078995   -1.043792    0.859957
     11          6           0        6.077411    1.615219   -0.691985
     12          6           0        7.359979    1.363040   -1.474497
     13          8           0        7.446569    0.529594   -2.402489
     14          8           0        8.286498    2.176641   -1.247087
     15          1           0        8.005877    2.010091    0.740981
     16          1           0        5.137409    1.432942    1.111503
     17          1           0        5.914432    2.684093   -0.698733
     18          1           0        5.241080    1.137901   -1.209014
     19          7           0        7.279289   -1.157053    0.717197
     20          6           0        7.392546   -2.598605    0.717696
     21          6           0        6.878584   -3.232471   -0.565409
     22          8           0        7.508395   -3.359483   -1.618550
     23          6           0        8.852664   -2.929280    1.011481
     24          6           0        9.317843   -2.338427    2.335453
     25          6           0        8.536137   -2.765337    3.578587
     26          6           0        9.011642   -2.211956    4.926832
     27          7           0       10.432306   -2.481925    5.178687
     28          1           0        8.123305   -0.632130    0.542291
     29          1           0        6.813174   -2.966605    1.574319
     30          1           0        9.384964   -2.419001    0.221499
     31          1           0        9.029392   -4.004226    0.998887
     32          1           0        9.439231   -1.256386    2.273372
     33          1           0       10.290692   -2.823377    2.408857
     34          1           0        8.530345   -3.860644    3.608089
     35          1           0        7.504483   -2.425543    3.524459
     36          1           0        8.332904   -2.613122    5.671534
     37          1           0        8.996896   -1.128427    4.995001
     38          1           0       10.943803   -1.625175    5.014824
     39          1           0       10.469934   -2.658222    6.175885
     40          1           0       10.812579   -3.282712    4.687024
     41          7           0        5.564525   -3.502207   -0.587579
     42          6           0        4.812330   -3.942819   -1.738780
     43          6           0        3.825111   -2.900587   -2.255840
     44          8           0        3.090093   -3.153317   -3.210815
     45          6           0        3.968185   -5.143608   -1.325955
     46          6           0        2.957761   -4.810633   -0.246107
     47          8           0        3.381886   -4.851546    0.931621
     48          8           0        1.813485   -4.432540   -0.568096
     49          1           0        5.027307   -3.194376    0.210942
     50          1           0        5.436072   -4.195730   -2.596441
     51          1           0        4.670448   -5.930899   -1.039775
     52          1           0        3.402989   -5.466144   -2.205515
     53          7           0        3.798945   -1.661097   -1.748416
     54          6           0        3.018237   -0.580525   -2.306502
     55          6           0        3.579710    0.304727   -3.415770
     56          8           0        4.612537   -0.038450   -3.985330
     57          1           0        4.300834   -1.570310   -0.882469
     58          1           0        2.779190    0.118534   -1.496395
     59          1           0        2.101183   -1.049074   -2.656179
     60          7           0        3.023740    1.434007   -3.850079
     61          6           0        1.837653    2.151553   -3.424255
     62          6           0        2.124414    3.637957   -3.521570
     63          8           0        1.988606    4.184089   -4.606418
     64          6           0        0.641104    1.745991   -4.266391
     65          6           0        0.350090    0.246330   -4.224809
     66          7           0        0.637610   -0.432654   -5.337649
     67          8           0       -0.160865   -0.340467   -3.281891
     68          1           0        3.397869    1.765964   -4.732707
     69          1           0        1.695412    1.872766   -2.372806
     70          1           0        0.708388    2.041157   -5.314222
     71          1           0       -0.266580    2.278155   -3.977408
     72          1           0        0.704206    0.026641   -6.230685
     73          1           0        0.505951   -1.432269   -5.308743
     74          7           0        2.447346    4.401577   -2.471856
     75          6           0        2.755823    3.813169   -1.183788
     76          6           0        1.642973    3.729010   -0.144038
     77          8           0        1.592721    2.797381    0.655551
     78          1           0        2.580743    5.398730   -2.591817
     79          1           0        3.422857    4.481765   -0.645508
     80          1           0        3.435660    2.965930   -1.256639
     81          7           0        0.682821    4.643308   -0.239790
     82          6           0       -0.644560    4.397136    0.295056
     83          6           0       -1.141084    3.155426   -0.417768
     84          8           0       -0.952103    2.940940   -1.612038
     85          6           0       -1.459494    5.679509    0.104264
     86          6           0       -1.224554    6.792062    1.095641
     87          6           0       -1.532909    6.567268    2.441183
     88          6           0       -0.618946    7.986539    0.716874
     89          6           0       -1.448355    7.636062    3.334229
     90          6           0       -0.484034    9.042302    1.634296
     91          6           0       -0.995037    8.912287    2.940463
     92          8           0       -1.000544    9.981482    3.790046
     93          1           0        0.759830    5.424065   -0.879936
     94          1           0       -0.615516    4.079223    1.340947
     95          1           0       -2.518975    5.422548    0.047068
     96          1           0       -1.337297    6.093189   -0.895205
     97          1           0       -1.746754    5.545744    2.718415
     98          1           0       -0.273560    8.059313   -0.306460
     99          1           0       -1.703350    7.574700    4.382042
    100          1           0        0.036269    9.962576    1.420560
    101          1           0       -1.081784   10.807995    3.312576
    102          7           0       -1.776088    2.261154    0.342198
    103          6           0       -2.358164    1.011085   -0.087587
    104          6           0       -3.755865    1.126241   -0.682961
    105          8           0       -4.102841    0.380966   -1.595251
    106          6           0       -2.295101    0.039581    1.084251
    107          6           0       -0.877974   -0.514247    1.138341
    108          6           0       -2.989290    0.381390    2.401623
    109          6           0       -0.161253   -1.126660   -0.062559
    110          1           0       -2.000525    2.571616    1.279503
    111          1           0       -1.690549    0.587678   -0.839861
    112          1           0       -2.863843   -0.827667    0.745409
    113          1           0       -0.940208   -1.209561    1.974143
    114          1           0       -0.325411    0.363109    1.483191
    115          1           0       -2.565548    1.318279    2.765468
    116          1           0       -4.000077    0.663496    2.101249
    117          1           0       -2.954179   -0.488987    3.061707
    118          1           0       -0.865642   -1.750398   -0.610453
    119          1           0        0.240515   -0.402959   -0.764156
    120          1           0        0.553686   -1.812659    0.386960
    121          7           0       -4.523765    2.111958   -0.214676
    122          6           0       -5.862575    2.392024   -0.695873
    123          6           0       -6.970934    1.472263   -0.202336
    124          8           0       -6.894650    0.970302    0.914228
    125          6           0       -6.201911    3.830022   -0.333776
    126          8           0       -5.310004    4.805681   -0.838445
    127          1           0       -4.230219    2.839550    0.417021
    128          1           0       -5.884605    2.391789   -1.786843
    129          1           0       -6.238659    3.836529    0.754804
    130          1           0       -7.196992    4.025501   -0.745725
    131          1           0       -5.752402    5.615167   -0.595308
    132          7           0       -8.052023    1.409187   -0.976848
    133          6           0       -9.145308    0.611880   -0.448993
    134          6           0       -9.091994   -0.898345   -0.660841
    135          8           0       -8.347022   -1.316969   -1.545754
    136          6           0      -10.341747    1.232491   -1.153035
    137          1           0       -8.136944    1.805855   -1.906225
    138          1           0       -9.291499    0.777306    0.610139
    139          1           0      -11.236370    0.647263   -0.979660
    140          1           0      -10.483402    2.235971   -0.725998
    141          1           0      -10.240837    1.251834   -2.245483
    142          7           0       -9.710623   -1.693065    0.208767
    143          6           0       -9.747335   -3.146810    0.225405
    144          6           0       -8.427327   -3.780297    0.618054
    145          8           0       -8.076234   -4.860707    0.152065
    146          6           0      -10.362650   -3.626811   -1.090151
    147          1           0      -10.273492   -1.285647    0.937114
    148          1           0      -10.456773   -3.387422    1.016798
    149          1           0      -10.862852   -4.555747   -0.807707
    150          1           0      -10.976707   -2.832014   -1.517624
    151          1           0       -9.607268   -3.805248   -1.851767
    152          7           0       -7.637896   -3.121192    1.468631
    153          6           0       -6.299144   -3.527488    1.829139
    154          6           0       -6.063248   -3.470142    3.333387
    155          8           0       -5.424339   -4.371579    3.874041
    156          6           0       -5.203598   -2.692448    1.177304
    157          6           0       -3.878819   -3.435037    1.333577
    158          6           0       -3.493873   -4.092703    0.014452
    159          8           0       -4.043288   -5.163422   -0.329503
    160          8           0       -2.496970   -3.656783   -0.597723
    161          1           0       -7.940704   -2.225716    1.809851
    162          1           0       -6.149231   -4.577791    1.536412
    163          1           0       -5.054588   -1.723346    1.645960
    164          1           0       -5.448706   -2.519776    0.126825
    165          1           0       -3.944616   -4.226459    2.088443
    166          1           0       -3.103840   -2.754213    1.675903
    167          7           0       -6.621813   -2.488706    4.039708
    168          6           0       -6.505188   -2.346202    5.478976
    169          1           0       -7.486036   -2.476777    5.936916
    170          1           0       -5.820959   -3.101515    5.865865
    171          1           0       -6.123293   -1.353744    5.716529
    172          1           0       -7.046202   -1.750364    3.485591
    173         20           0       -0.480646   -5.093583   -1.572528
    174          8           0       -0.797805   -5.656827    0.984574
    175          1           0       -0.847322   -4.997652    1.673076
    176          1           0       -1.047262   -6.473402    1.420322
 ---------------------------------------------------------------------

 SCF Done:  E(RB3LYP) =  -5333.27967701     A.U. after   84 cycles

 The electronic state is 1-A.
 Alpha  occ. eigenvalues -- -145.48106 -19.17135 -19.16741 -19.15578 -19.10881
 Alpha  occ. eigenvalues --  -19.09187 -19.08452 -19.08106 -19.07346 -19.07328
 Alpha  occ. eigenvalues --  -19.07262 -19.07250 -19.07099 -19.06753 -19.06482
 Alpha  occ. eigenvalues --  -19.05679 -19.05526 -19.04521 -19.03802 -19.02822
 Alpha  occ. eigenvalues --  -19.01909 -19.01903 -18.96576 -18.95964 -15.53918
 Alpha  occ. eigenvalues --  -14.56993 -14.36967 -14.36400 -14.34751 -14.34672
 Alpha  occ. eigenvalues --  -14.34584 -14.34517 -14.34284 -14.34119 -14.33738
 Alpha  occ. eigenvalues --  -14.32430 -14.31061 -14.30602 -14.30552 -14.29332
 Alpha  occ. eigenvalues --  -12.67540 -12.67500 -12.67443 -10.33520 -10.29062
 Alpha  occ. eigenvalues --  -10.28281 -10.27068 -10.26665 -10.26454 -10.26425
 Alpha  occ. eigenvalues --  -10.26064 -10.26021 -10.25998 -10.25979 -10.25619
 Alpha  occ. eigenvalues --  -10.25537 -10.25502 -10.25492 -10.24546 -10.24245
 Alpha  occ. eigenvalues --  -10.23710 -10.23477 -10.23343 -10.23279 -10.22818
 Alpha  occ. eigenvalues --  -10.22675 -10.22595 -10.22590 -10.22043 -10.21733
 Alpha  occ. eigenvalues --  -10.21625 -10.21305 -10.20660 -10.20531 -10.20065
 Alpha  occ. eigenvalues --  -10.20051 -10.19921 -10.19839 -10.19824 -10.19635
 Alpha  occ. eigenvalues --  -10.19586 -10.19440 -10.19181 -10.19051 -10.19045
 Alpha  occ. eigenvalues --  -10.17866 -10.17039 -10.16843 -10.16177 -10.16020
 Alpha  occ. eigenvalues --  -10.15828 -10.15563 -10.13992 -10.13911 -10.13733
 Alpha  occ. eigenvalues --  -10.12224 -10.12086  -1.90313  -1.17783  -1.17482
 Alpha  occ. eigenvalues --   -1.17012  -1.12605  -1.05342  -1.04286  -1.03726
 Alpha  occ. eigenvalues --   -1.03074  -1.02378  -1.02272  -1.01299  -1.01141
 Alpha  occ. eigenvalues --   -1.00907  -1.00661  -1.00119  -0.99949  -0.99803
 Alpha  occ. eigenvalues --   -0.99354  -0.98534  -0.98008  -0.97732  -0.97295
 Alpha  occ. eigenvalues --   -0.96558  -0.93683  -0.93005  -0.91938  -0.91618
 Alpha  occ. eigenvalues --   -0.91293  -0.91077  -0.90910  -0.90533  -0.90391
 Alpha  occ. eigenvalues --   -0.89594  -0.88358  -0.87882  -0.87863  -0.87474
 Alpha  occ. eigenvalues --   -0.87185  -0.87111  -0.87026  -0.85623  -0.85164
 Alpha  occ. eigenvalues --   -0.81224  -0.80694  -0.80272  -0.79560  -0.78353
 Alpha  occ. eigenvalues --   -0.77640  -0.76469  -0.76060  -0.75368  -0.74718
 Alpha  occ. eigenvalues --   -0.74594  -0.74407  -0.74115  -0.73864  -0.72256
 Alpha  occ. eigenvalues --   -0.71386  -0.71056  -0.70831  -0.70097  -0.69851
 Alpha  occ. eigenvalues --   -0.69377  -0.68525  -0.68354  -0.67828  -0.66892
 Alpha  occ. eigenvalues --   -0.66463  -0.65764  -0.65359  -0.63418  -0.63062
 Alpha  occ. eigenvalues --   -0.62680  -0.61965  -0.61904  -0.60619  -0.60338
 Alpha  occ. eigenvalues --   -0.60227  -0.59724  -0.59326  -0.59174  -0.58832
 Alpha  occ. eigenvalues --   -0.58480  -0.58379  -0.57889  -0.57448  -0.57343
 Alpha  occ. eigenvalues --   -0.56676  -0.56392  -0.56241  -0.55993  -0.55496
 Alpha  occ. eigenvalues --   -0.55360  -0.55232  -0.54779  -0.54710  -0.54241
 Alpha  occ. eigenvalues --   -0.53591  -0.52946  -0.52484  -0.52322  -0.52068
 Alpha  occ. eigenvalues --   -0.51961  -0.51761  -0.50935  -0.50641  -0.50636
 Alpha  occ. eigenvalues --   -0.50240  -0.50126  -0.49906  -0.49664  -0.49340
 Alpha  occ. eigenvalues --   -0.48939  -0.48413  -0.48256  -0.48218  -0.47405
 Alpha  occ. eigenvalues --   -0.47351  -0.47203  -0.47040  -0.46703  -0.46373
 Alpha  occ. eigenvalues --   -0.46098  -0.45965  -0.45656  -0.45490  -0.45378
 Alpha  occ. eigenvalues --   -0.45287  -0.45155  -0.44788  -0.44551  -0.44346
 Alpha  occ. eigenvalues --   -0.44269  -0.43793  -0.43719  -0.43622  -0.43441
 Alpha  occ. eigenvalues --   -0.43381  -0.43234  -0.42927  -0.42922  -0.42787
 Alpha  occ. eigenvalues --   -0.42474  -0.42219  -0.41906  -0.41889  -0.41808
 Alpha  occ. eigenvalues --   -0.41615  -0.41529  -0.41138  -0.41001  -0.40845
 Alpha  occ. eigenvalues --   -0.40754  -0.40396  -0.40382  -0.40323  -0.40097
 Alpha  occ. eigenvalues --   -0.39896  -0.39822  -0.39532  -0.39391  -0.39301
 Alpha  occ. eigenvalues --   -0.39285  -0.39170  -0.39071  -0.38887  -0.38751
 Alpha  occ. eigenvalues --   -0.38492  -0.38400  -0.38356  -0.38288  -0.38139
 Alpha  occ. eigenvalues --   -0.38039  -0.37972  -0.37681  -0.37563  -0.37542
 Alpha  occ. eigenvalues --   -0.37231  -0.37170  -0.37023  -0.36900  -0.36882
 Alpha  occ. eigenvalues --   -0.36677  -0.36513  -0.36128  -0.35963  -0.35898
 Alpha  occ. eigenvalues --   -0.35670  -0.35447  -0.35277  -0.35151  -0.35027
 Alpha  occ. eigenvalues --   -0.34780  -0.34685  -0.34673  -0.34305  -0.34239
 Alpha  occ. eigenvalues --   -0.34116  -0.33984  -0.33914  -0.33623  -0.33534
 Alpha  occ. eigenvalues --   -0.33488  -0.33476  -0.33386  -0.32887  -0.32763
 Alpha  occ. eigenvalues --   -0.32748  -0.32427  -0.32080  -0.31917  -0.31662
 Alpha  occ. eigenvalues --   -0.31006  -0.30742  -0.30521  -0.30157  -0.29987
 Alpha  occ. eigenvalues --   -0.29169  -0.27970  -0.27457  -0.27225  -0.27202
 Alpha  occ. eigenvalues --   -0.27009  -0.26634  -0.26527  -0.26434  -0.26293
 Alpha  occ. eigenvalues --   -0.25645  -0.25486  -0.25453  -0.24848  -0.24613
 Alpha  occ. eigenvalues --   -0.24584  -0.24491  -0.24432  -0.23840  -0.23674
 Alpha  occ. eigenvalues --   -0.23199  -0.23063  -0.22834  -0.22727  -0.22513
 Alpha  occ. eigenvalues --   -0.22352  -0.21952  -0.21721  -0.21689  -0.21570
 Alpha  occ. eigenvalues --   -0.21364  -0.20810  -0.20750  -0.20583  -0.20488
 Alpha  occ. eigenvalues --   -0.20460  -0.19034  -0.18139  -0.17747  -0.17660
 Alpha  occ. eigenvalues --   -0.13966  -0.13770  -0.11114
 Alpha virt. eigenvalues --   -0.10187  -0.09867  -0.04706  -0.04146  -0.02359
 Alpha virt. eigenvalues --   -0.00714   0.00259   0.00485   0.00555   0.00585
 Alpha virt. eigenvalues --    0.01799   0.02077   0.02372   0.02488   0.03051

 Mulliken charges:
               1
     1  C    0.053347
     2  C   -0.002256
     3  O   -0.298360
     4  H    0.019440
     5  H    0.048033
     6  H   -0.021175
     7  N   -0.131567
     8  C    0.112241
     9  C    0.102898
    10  O   -0.307574
    11  C    0.049556
    12  C    0.007077
    13  O   -0.315669
    14  O   -0.405451
    15  H    0.099352
    16  H    0.013037
    17  H   -0.002880
    18  H    0.004538
    19  N   -0.122477
    20  C    0.089986
    21  C    0.093375
    22  O   -0.264983
    23  C    0.021818
    24  C    0.020175
    25  C   -0.056329
    26  C    0.017950
    27  N    0.094784
    28  H    0.129026
    29  H    0.005636
    30  H    0.044313
    31  H    0.007285
    32  H    0.015742
    33  H   -0.036535
    34  H    0.027595
    35  H    0.091774
    36  H    0.083372
    37  H    0.065795
    38  H    0.176821
    39  H    0.165448
    40  H    0.177003
    41  N   -0.130847
    42  C    0.095451
    43  C    0.054330
    44  O   -0.328390
    45  C    0.138115
    46  C    0.083299
    47  O   -0.351571
    48  O   -0.464051
    49  H    0.135628
    50  H    0.045303
    51  H   -0.017026
    52  H   -0.048386
    53  N   -0.115807
    54  C    0.180530
    55  C   -0.006827
    56  O   -0.230308
    57  H    0.128259
    58  H    0.021016
    59  H    0.041391
    60  N   -0.127622
    61  C    0.059579
    62  C    0.088517
    63  O   -0.271324
    64  C    0.153896
    65  C   -0.007861
    66  N   -0.042415
    67  O   -0.251875
    68  H    0.125375
    69  H    0.039376
    70  H   -0.022046
    71  H    0.032535
    72  H    0.116117
    73  H    0.116967
    74  N   -0.109354
    75  C    0.140710
    76  C    0.064522
    77  O   -0.265045
    78  H    0.124794
    79  H    0.022640
    80  H    0.043156
    81  N   -0.115546
    82  C    0.102092
    83  C    0.067540
    84  O   -0.273006
    85  C    0.125776
    86  C   -0.008057
    87  C    0.011121
    88  C    0.004899
    89  C   -0.012754
    90  C   -0.046198
    91  C    0.159191
    92  O   -0.208535
    93  H    0.101587
    94  H    0.003621
    95  H    0.000352
    96  H   -0.010178
    97  H   -0.033484
    98  H   -0.035288
    99  H   -0.023431
   100  H   -0.038292
   101  H    0.181910
   102  N   -0.127922
   103  C    0.133125
   104  C    0.112210
   105  O   -0.247694
   106  C   -0.157677
   107  C    0.026901
   108  C    0.066113
   109  C    0.012967
   110  H    0.109131
   111  H    0.029665
   112  H    0.018830
   113  H   -0.033795
   114  H   -0.014683
   115  H   -0.027231
   116  H    0.009722
   117  H    0.026907
   118  H    0.004688
   119  H    0.051060
   120  H    0.021300
   121  N   -0.103844
   122  C    0.072211
   123  C    0.125763
   124  O   -0.288299
   125  C    0.198369
   126  O   -0.274064
   127  H    0.103802
   128  H    0.004960
   129  H   -0.012713
   130  H   -0.017511
   131  H    0.168636
   132  N   -0.121966
   133  C    0.090849
   134  C    0.081820
   135  O   -0.252188
   136  C    0.023396
   137  H    0.136833
   138  H   -0.010019
   139  H   -0.000699
   140  H    0.026809
   141  H    0.025833
   142  N   -0.150012
   143  C    0.048813
   144  C    0.078536
   145  O   -0.248584
   146  C    0.084674
   147  H    0.109030
   148  H    0.009277
   149  H    0.020458
   150  H    0.000718
   151  H    0.044665
   152  N   -0.107104
   153  C    0.096392
   154  C    0.032490
   155  O   -0.277282
   156  C    0.059460
   157  C    0.044295
   158  C    0.092148
   159  O   -0.359904
   160  O   -0.446662
   161  H    0.082921
   162  H    0.042435
   163  H   -0.023846
   164  H    0.047065
   165  H    0.018281
   166  H   -0.036700
   167  N   -0.151924
   168  C    0.129519
   169  H    0.016570
   170  H    0.049066
   171  H    0.018435
   172  H    0.108935
   173  Ca   1.401662
   174  O   -0.299869
   175  H    0.203732
   176  H    0.184476
 Sum of Mulliken charges =  -0.00000

 Dipole moment (field-independent basis, Debye):
    X=              2.6697    Y=             -0.8773    Z=             25.0224  Tot=             25.1797
 Quadrupole moment (field-independent basis, Debye-Ang):
   XX=           -295.1083   YY=           -460.1087   ZZ=           -480.4489
   XY=           -174.2783   XZ=            244.0947   YZ=            -19.4990

 ESP charges:
               1
     1  C   -0.542954
     2  C    0.694241
     3  O   -0.595292
     4  H    0.138849
     5  H    0.160016
     6  H    0.116914
     7  N   -0.353607
     8  C   -0.230178
     9  C    0.584361
    10  O   -0.543931
    11  C   -0.029016
    12  C    0.642741
    13  O   -0.605419
    14  O   -0.695972
    15  H    0.201852
    16  H    0.153827
    17  H    0.046933
    18  H    0.014880
    19  N   -0.380065
    20  C    0.015169
    21  C    0.557537
    22  O   -0.520627
    23  C   -0.303707
    24  C    0.257450
    25  C   -0.323340
    26  C    0.237670
    27  N   -0.551685
    28  H    0.305615
    29  H    0.068707
    30  H    0.109043
    31  H    0.115420
    32  H   -0.048849
    33  H   -0.050075
    34  H    0.106183
    35  H    0.140030
    36  H    0.055841
    37  H    0.026040
    38  H    0.355693
    39  H    0.340705
    40  H    0.367611
    41  N   -0.644562
    42  C    0.469269
    43  C    0.546060
    44  O   -0.611441
    45  C   -0.416867
    46  C    0.720966
    47  O   -0.646626
    48  O   -0.745736
    49  H    0.341736
    50  H    0.035432
    51  H    0.098997
    52  H    0.020415
    53  N   -0.690162
    54  C    0.354059
    55  C    0.450334
    56  O   -0.485693
    57  H    0.380137
    58  H   -0.050933
    59  H    0.051514
    60  N   -0.550454
    61  C    0.309335
    62  C    0.552737
    63  O   -0.551814
    64  C   -0.420197
    65  C    0.761166
    66  N   -0.802984
    67  O   -0.610340
    68  H    0.312985
    69  H    0.059710
    70  H    0.092382
    71  H    0.148245
    72  H    0.358795
    73  H    0.365612
    74  N   -0.577950
    75  C    0.160680
    76  C    0.495564
    77  O   -0.511975
    78  H    0.338963
    79  H    0.048634
    80  H    0.005537
    81  N   -0.532466
    82  C    0.155638
    83  C    0.457719
    84  O   -0.557901
    85  C   -0.031278
    86  C    0.030603
    87  C   -0.159340
    88  C   -0.150362
    89  C   -0.231137
    90  C   -0.293510
    91  C    0.369859
    92  O   -0.529014
    93  H    0.285524
    94  H    0.060302
    95  H   -0.003139
    96  H    0.061484
    97  H    0.127034
    98  H    0.125245
    99  H    0.145486
   100  H    0.150046
   101  H    0.389068
   102  N   -0.289301
   103  C    0.183393
   104  C    0.543216
   105  O   -0.530655
   106  C    0.154081
   107  C    0.164670
   108  C   -0.414259
   109  C   -0.436985
   110  H    0.172722
   111  H    0.020527
   112  H   -0.062683
   113  H   -0.030028
   114  H   -0.069171
   115  H    0.073201
   116  H    0.076453
   117  H    0.130771
   118  H    0.150423
   119  H    0.154792
   120  H    0.121255
   121  N   -0.504485
   122  C    0.279687
   123  C    0.514408
   124  O   -0.536218
   125  C    0.097046
   126  O   -0.563026
   127  H    0.275635
   128  H    0.034689
   129  H    0.003324
   130  H    0.017080
   131  H    0.393043
   132  N   -0.681597
   133  C    0.380230
   134  C    0.537480
   135  O   -0.498542
   136  C   -0.366199
   137  H    0.351287
   138  H    0.010147
   139  H    0.060454
   140  H    0.094357
   141  H    0.115935
   142  N   -0.516947
   143  C    0.287488
   144  C    0.527277
   145  O   -0.494449
   146  C   -0.468472
   147  H    0.260499
   148  H    0.045107
   149  H    0.103867
   150  H    0.128230
   151  H    0.160152
   152  N   -0.699740
   153  C    0.336772
   154  C    0.422128
   155  O   -0.523276
   156  C    0.135989
   157  C   -0.114236
   158  C    0.774602
   159  O   -0.704177
   160  O   -0.868859
   161  H    0.218317
   162  H    0.038811
   163  H   -0.095638
   164  H    0.082902
   165  H   -0.023857
   166  H    0.054355
   167  N   -0.303534
   168  C   -0.068253
   169  H    0.047765
   170  H    0.095876
   171  H    0.049992
   172  H    0.269305
   173  Ca   1.610884
   174  O   -0.838138
   175  H    0.437617
   176  H    0.434483
 Sum of ESP charges =   0.00000

 Normal termination of Gaussian 16 at Wed Sep 18 14:48:22 2019.
