 Gaussian 16, Revision A.03,
 Gaussian 16:  ES64L-G16RevA.03 25-Dec-2016

 ----------------------------------------------------------------------
 #b3lyp/svp scf=(tight,noincore) Test #IOP(5/87=12) Density=Current Pop
 =(MK,readradii) iop(6/33=2) iop(6/42=6)
 ----------------------------------------------------------------------

 ----------------
 Ng-31_loop3_21.0
 ----------------
 Symbolic Z-matrix:
 Charge =  0 Multiplicity = 1

                         Standard orientation:
 ---------------------------------------------------------------------
 Center     Atomic      Atomic             Coordinates (Angstroms)
 Number     Number       Type             X           Y           Z
 ---------------------------------------------------------------------
      1          6           0        5.435993   -4.803600    5.081058
      2          6           0        5.085792   -4.016894    3.815691
      3          8           0        4.118159   -3.268740    3.844886
      4          1           0        4.615041   -5.476433    5.329141
      5          1           0        6.342256   -5.384498    4.908823
      6          1           0        5.599058   -4.111003    5.907138
      7          7           0        5.930995   -4.039997    2.785740
      8          6           0        5.726685   -3.076203    1.721757
      9          6           0        4.424964   -3.259572    0.957952
     10          8           0        3.726844   -2.297066    0.628238
     11          6           0        6.928582   -2.915556    0.797185
     12          6           0        7.576171   -4.199281    0.298910
     13          8           0        8.814905   -4.154589    0.182544
     14          8           0        6.900081   -5.222236    0.049578
     15          1           0        6.773796   -4.595268    2.811436
     16          1           0        5.575271   -2.101089    2.175659
     17          1           0        7.691637   -2.447660    1.423939
     18          1           0        6.729184   -2.237926   -0.042552
     19          7           0        4.068413   -4.532111    0.771090
     20          6           0        2.845204   -5.015757    0.158842
     21          6           0        2.769384   -4.483887   -1.275859
     22          8           0        3.722025   -4.690365   -2.012841
     23          6           0        2.553372   -6.497101    0.295417
     24          6           0        2.079908   -6.819508    1.712451
     25          6           0        1.545491   -8.242987    1.875561
     26          6           0        2.670690   -9.242036    1.670796
     27          7           0        2.342737  -10.613542    2.104408
     28          1           0        4.753733   -5.232688    0.992965
     29          1           0        2.033495   -4.548134    0.714051
     30          1           0        3.523606   -6.981248    0.207966
     31          1           0        1.947906   -6.938587   -0.508448
     32          1           0        1.207128   -6.230594    1.964908
     33          1           0        2.889801   -6.706259    2.440358
     34          1           0        0.811225   -8.418969    1.086458
     35          1           0        1.038635   -8.241914    2.839665
     36          1           0        3.577428   -8.928029    2.186766
     37          1           0        2.827526   -9.354371    0.602254
     38          1           0        2.304270  -10.632788    3.117497
     39          1           0        1.432207  -10.865998    1.762499
     40          1           0        3.019233  -11.295419    1.797820
     41          7           0        1.752706   -3.712063   -1.659984
     42          6           0        1.510488   -3.111575   -2.949071
     43          6           0        2.037659   -1.682543   -2.956886
     44          8           0        1.831964   -1.011928   -3.955717
     45          6           0        0.018363   -3.219643   -3.273700
     46          6           0       -0.648114   -4.558048   -2.988431
     47          8           0        0.058870   -5.584084   -2.929060
     48          8           0       -1.895318   -4.606181   -2.972147
     49          1           0        0.988432   -3.752324   -0.999405
     50          1           0        2.133801   -3.647926   -3.674817
     51          1           0       -0.014642   -3.001297   -4.345537
     52          1           0       -0.550909   -2.483346   -2.712275
     53          7           0        2.582327   -1.098206   -1.886004
     54          6           0        3.080086    0.267346   -1.896142
     55          6           0        4.374146    0.381866   -2.684046
     56          8           0        5.047573   -0.623957   -2.881318
     57          1           0        2.825384   -1.611446   -1.054615
     58          1           0        3.302761    0.510722   -0.862225
     59          1           0        2.334936    0.984845   -2.253419
     60          7           0        4.966978    1.551360   -2.931296
     61          6           0        4.424715    2.887759   -2.881387
     62          6           0        5.497007    3.769985   -2.253083
     63          8           0        5.987324    4.685165   -2.905567
     64          6           0        3.907959    3.269207   -4.265605
     65          6           0        3.459984    4.725381   -4.334706
     66          7           0        2.564443    5.235691   -3.497097
     67          8           0        3.947906    5.472181   -5.177038
     68          1           0        5.894547    1.444864   -3.327874
     69          1           0        3.533709    2.856741   -2.246370
     70          1           0        3.096607    2.573059   -4.500736
     71          1           0        4.676366    3.168531   -5.044588
     72          1           0        2.237868    4.699556   -2.705638
     73          1           0        2.268125    6.166011   -3.772781
     74          7           0        5.793038    3.739680   -0.954180
     75          6           0        5.399582    2.730002    0.021086
     76          6           0        4.181281    3.101823    0.851804
     77          8           0        3.545896    2.418938    1.642470
     78          1           0        6.476294    4.429197   -0.681002
     79          1           0        6.235343    2.484682    0.663209
     80          1           0        5.131767    1.833617   -0.547921
     81          7           0        3.673367    4.303151    0.541746
     82          6           0        2.367973    4.700039    1.015272
     83          6           0        1.283479    3.926503    0.283347
     84          8           0        1.493185    3.483141   -0.846234
     85          6           0        2.149339    6.206059    0.899069
     86          6           0        2.865529    6.940988    2.011207
     87          6           0        2.320954    6.996515    3.299366
     88          6           0        3.992927    7.721087    1.719112
     89          6           0        2.918964    7.700429    4.344636
     90          6           0        4.563827    8.516356    2.720571
     91          6           0        4.059584    8.467098    4.036897
     92          8           0        4.632721    9.328456    4.925985
     93          1           0        4.128211    4.815764   -0.197811
     94          1           0        2.194031    4.502225    2.079938
     95          1           0        1.060025    6.312590    0.845715
     96          1           0        2.606545    6.552502   -0.021822
     97          1           0        1.372856    6.491057    3.373003
     98          1           0        4.274598    7.806535    0.682165
     99          1           0        2.432114    7.641663    5.313101
    100          1           0        5.396363    9.141444    2.433781
    101          1           0        5.291856    9.896617    4.515942
    102          7           0        0.114290    3.783042    0.926788
    103          6           0       -0.946397    2.945363    0.397887
    104          6           0       -2.230628    3.737055    0.275526
    105          8           0       -2.452309    4.662038    1.051840
    106          6           0       -1.116492    1.602744    1.099914
    107          6           0       -0.125751    0.501306    0.703218
    108          6           0       -1.094607    1.866784    2.604741
    109          6           0       -0.582726   -0.079443   -0.629000
    110          1           0       -0.077912    4.117081    1.851816
    111          1           0       -0.810568    2.684245   -0.643779
    112          1           0       -2.128498    1.286644    0.854711
    113          1           0       -0.173016   -0.317607    1.423807
    114          1           0        0.859521    0.955152    0.622214
    115          1           0       -1.577849    0.976205    3.011980
    116          1           0       -0.051354    1.969674    2.899592
    117          1           0       -1.803141    2.667958    2.769055
    118          1           0       -0.458872    0.721418   -1.352452
    119          1           0        0.080738   -0.891403   -0.918023
    120          1           0       -1.599374   -0.478486   -0.615169
    121          7           0       -3.066912    3.310582   -0.685177
    122          6           0       -4.390588    3.753246   -1.058983
    123          6           0       -5.479573    3.378440   -0.059667
    124          8           0       -5.192101    2.978645    1.069812
    125          6           0       -4.378269    5.232052   -1.461577
    126          8           0       -3.422990    5.434441   -2.470627
    127          1           0       -2.773904    2.532120   -1.245752
    128          1           0       -4.602811    3.281667   -2.015996
    129          1           0       -4.167947    5.891575   -0.622772
    130          1           0       -5.373961    5.503771   -1.833283
    131          1           0       -3.683180    6.293086   -2.794865
    132          7           0       -6.699344    3.435739   -0.602875
    133          6           0       -7.897071    2.907430    0.027236
    134          6           0       -8.124849    1.444585   -0.334842
    135          8           0       -7.658605    0.954178   -1.360619
    136          6           0       -9.055499    3.770977   -0.465950
    137          1           0       -6.826549    3.900358   -1.486362
    138          1           0       -7.772483    3.054417    1.105741
    139          1           0       -9.106015    3.688898   -1.543962
    140          1           0      -10.009883    3.315751   -0.178684
    141          1           0       -8.955563    4.781757   -0.079509
    142          7           0       -8.794719    0.700199    0.549784
    143          6           0       -9.127296   -0.704801    0.407413
    144          6           0       -7.914385   -1.604850    0.562517
    145          8           0       -7.894010   -2.771214    0.149261
    146          6           0      -10.057622   -0.991482   -0.771955
    147          1           0       -9.255341    1.204866    1.286831
    148          1           0       -9.689180   -0.873154    1.317052
    149          1           0      -11.066607   -0.605386   -0.613906
    150          1           0       -9.687244   -0.636576   -1.728753
    151          1           0      -10.162517   -2.081016   -0.794564
    152          7           0       -6.935677   -1.114534    1.333115
    153          6           0       -5.774457   -1.857588    1.769964
    154          6           0       -5.967369   -2.195558    3.245722
    155          8           0       -6.179768   -3.353274    3.606251
    156          6           0       -4.575739   -0.969131    1.445128
    157          6           0       -3.435979   -1.890539    1.000655
    158          6           0       -3.709811   -2.408593   -0.403175
    159          8           0       -4.312677   -1.842905   -1.340805
    160          8           0       -3.386466   -3.595340   -0.651527
    161          1           0       -7.086258   -0.253148    1.827826
    162          1           0       -5.704157   -2.796432    1.222761
    163          1           0       -4.230538   -0.349387    2.265891
    164          1           0       -4.690081   -0.325195    0.578368
    165          1           0       -3.429796   -2.708772    1.714698
    166          1           0       -2.556745   -1.255396    1.096249
    167          7           0       -6.168189   -1.166838    4.065664
    168          6           0       -6.589314   -1.206706    5.450570
    169          1           0       -7.560907   -1.696569    5.520364
    170          1           0       -5.858704   -1.763608    6.037365
    171          1           0       -6.666937   -0.190183    5.836053
    172          1           0       -5.988551   -0.247497    3.703114
    173         20           0       -4.184409   -3.607496   -3.303345
    174          8           0       -6.594881   -3.466883   -2.239883
    175          1           0       -7.422639   -3.649645   -2.693109
    176          1           0       -6.841474   -2.919983   -1.492426
 ---------------------------------------------------------------------

 SCF Done:  E(RB3LYP) =  -5333.32657886     A.U. after   54 cycles

 The electronic state is 1-A.
 Alpha  occ. eigenvalues -- -145.45484 -19.17203 -19.15565 -19.14422 -19.12804
 Alpha  occ. eigenvalues --  -19.12216 -19.11921 -19.09951 -19.09724 -19.09224
 Alpha  occ. eigenvalues --  -19.08116 -19.07734 -19.06072 -19.05258 -19.04830
 Alpha  occ. eigenvalues --  -19.04533 -19.04303 -19.04178 -19.03840 -19.03361
 Alpha  occ. eigenvalues --  -19.02912 -19.01314 -18.96920 -18.96256 -15.51429
 Alpha  occ. eigenvalues --  -14.57905 -14.39315 -14.38054 -14.37305 -14.36765
 Alpha  occ. eigenvalues --  -14.35634 -14.35272 -14.35011 -14.33717 -14.32082
 Alpha  occ. eigenvalues --  -14.31652 -14.31199 -14.30066 -14.29640 -14.29114
 Alpha  occ. eigenvalues --  -12.65046 -12.64982 -12.64936 -10.33794 -10.31305
 Alpha  occ. eigenvalues --  -10.31014 -10.30383 -10.28569 -10.28135 -10.27799
 Alpha  occ. eigenvalues --  -10.26989 -10.26969 -10.26844 -10.26815 -10.26096
 Alpha  occ. eigenvalues --  -10.25217 -10.24984 -10.24763 -10.24475 -10.24445
 Alpha  occ. eigenvalues --  -10.23907 -10.23827 -10.23809 -10.23206 -10.23044
 Alpha  occ. eigenvalues --  -10.22826 -10.22414 -10.22378 -10.22138 -10.22118
 Alpha  occ. eigenvalues --  -10.22102 -10.22017 -10.21880 -10.21451 -10.20747
 Alpha  occ. eigenvalues --  -10.20117 -10.19588 -10.19444 -10.18951 -10.18852
 Alpha  occ. eigenvalues --  -10.18780 -10.18757 -10.18684 -10.18486 -10.18052
 Alpha  occ. eigenvalues --  -10.17836 -10.17481 -10.17248 -10.17099 -10.17012
 Alpha  occ. eigenvalues --  -10.16433 -10.16015 -10.16009 -10.15660 -10.14731
 Alpha  occ. eigenvalues --  -10.14355 -10.10948  -1.88111  -1.15720  -1.15154
 Alpha  occ. eigenvalues --   -1.14900  -1.13214  -1.06184  -1.04814  -1.04315
 Alpha  occ. eigenvalues --   -1.04270  -1.03389  -1.02979  -1.02977  -1.02681
 Alpha  occ. eigenvalues --   -1.02042  -1.01672  -1.01085  -1.00658  -0.99029
 Alpha  occ. eigenvalues --   -0.98668  -0.97833  -0.97664  -0.97326  -0.96937
 Alpha  occ. eigenvalues --   -0.96352  -0.96108  -0.95181  -0.94270  -0.92618
 Alpha  occ. eigenvalues --   -0.92550  -0.91921  -0.91798  -0.91136  -0.89846
 Alpha  occ. eigenvalues --   -0.88969  -0.88458  -0.88449  -0.87993  -0.87624
 Alpha  occ. eigenvalues --   -0.86892  -0.86564  -0.85589  -0.85146  -0.84675
 Alpha  occ. eigenvalues --   -0.82753  -0.81268  -0.80895  -0.80309  -0.79866
 Alpha  occ. eigenvalues --   -0.78835  -0.78500  -0.76906  -0.75139  -0.74826
 Alpha  occ. eigenvalues --   -0.74285  -0.74077  -0.73623  -0.73117  -0.72772
 Alpha  occ. eigenvalues --   -0.72371  -0.72368  -0.71636  -0.71002  -0.70846
 Alpha  occ. eigenvalues --   -0.69687  -0.69316  -0.68932  -0.68869  -0.67432
 Alpha  occ. eigenvalues --   -0.66220  -0.65986  -0.65909  -0.64616  -0.63336
 Alpha  occ. eigenvalues --   -0.62375  -0.62358  -0.61908  -0.61605  -0.61569
 Alpha  occ. eigenvalues --   -0.61106  -0.60463  -0.60087  -0.59699  -0.59548
 Alpha  occ. eigenvalues --   -0.59292  -0.58921  -0.58865  -0.58406  -0.57651
 Alpha  occ. eigenvalues --   -0.57493  -0.56896  -0.56445  -0.55803  -0.55735
 Alpha  occ. eigenvalues --   -0.55593  -0.55222  -0.54755  -0.54640  -0.54521
 Alpha  occ. eigenvalues --   -0.54464  -0.54238  -0.53396  -0.52909  -0.52502
 Alpha  occ. eigenvalues --   -0.52427  -0.51954  -0.51505  -0.51201  -0.50396
 Alpha  occ. eigenvalues --   -0.50132  -0.50060  -0.49866  -0.49562  -0.49522
 Alpha  occ. eigenvalues --   -0.49314  -0.48984  -0.48965  -0.48630  -0.48021
 Alpha  occ. eigenvalues --   -0.47820  -0.47757  -0.47439  -0.47364  -0.47197
 Alpha  occ. eigenvalues --   -0.46932  -0.46597  -0.46478  -0.46347  -0.46053
 Alpha  occ. eigenvalues --   -0.45929  -0.45708  -0.45078  -0.44980  -0.44488
 Alpha  occ. eigenvalues --   -0.44380  -0.44241  -0.44185  -0.44113  -0.43908
 Alpha  occ. eigenvalues --   -0.43819  -0.43700  -0.43445  -0.43263  -0.43179
 Alpha  occ. eigenvalues --   -0.43038  -0.42757  -0.42664  -0.42605  -0.42507
 Alpha  occ. eigenvalues --   -0.42353  -0.42265  -0.42183  -0.41944  -0.41650
 Alpha  occ. eigenvalues --   -0.41586  -0.41433  -0.41363  -0.41274  -0.41080
 Alpha  occ. eigenvalues --   -0.41018  -0.40760  -0.40661  -0.40450  -0.40133
 Alpha  occ. eigenvalues --   -0.40001  -0.39766  -0.39601  -0.39564  -0.39328
 Alpha  occ. eigenvalues --   -0.39231  -0.39067  -0.38867  -0.38794  -0.38756
 Alpha  occ. eigenvalues --   -0.38304  -0.38267  -0.38173  -0.38093  -0.38024
 Alpha  occ. eigenvalues --   -0.37959  -0.37804  -0.37753  -0.37519  -0.37127
 Alpha  occ. eigenvalues --   -0.37004  -0.36917  -0.36758  -0.36559  -0.36228
 Alpha  occ. eigenvalues --   -0.36169  -0.35780  -0.35553  -0.35437  -0.35401
 Alpha  occ. eigenvalues --   -0.35347  -0.35132  -0.35047  -0.34909  -0.34903
 Alpha  occ. eigenvalues --   -0.34790  -0.34469  -0.33938  -0.33809  -0.33691
 Alpha  occ. eigenvalues --   -0.33598  -0.33524  -0.33377  -0.33351  -0.33081
 Alpha  occ. eigenvalues --   -0.32642  -0.32450  -0.32347  -0.32174  -0.31880
 Alpha  occ. eigenvalues --   -0.31475  -0.30997  -0.30913  -0.30718  -0.30150
 Alpha  occ. eigenvalues --   -0.29857  -0.29418  -0.29154  -0.28985  -0.28858
 Alpha  occ. eigenvalues --   -0.28176  -0.28061  -0.27685  -0.27301  -0.26808
 Alpha  occ. eigenvalues --   -0.26734  -0.26524  -0.26353  -0.26060  -0.25665
 Alpha  occ. eigenvalues --   -0.25382  -0.25314  -0.24611  -0.24487  -0.24386
 Alpha  occ. eigenvalues --   -0.24149  -0.23375  -0.22902  -0.22651  -0.22604
 Alpha  occ. eigenvalues --   -0.22272  -0.21967  -0.21827  -0.21416  -0.21269
 Alpha  occ. eigenvalues --   -0.21188  -0.20618  -0.20247  -0.20133  -0.19943
 Alpha  occ. eigenvalues --   -0.19760  -0.19360  -0.18579  -0.18178  -0.17141
 Alpha  occ. eigenvalues --   -0.14032  -0.13769  -0.11429
 Alpha virt. eigenvalues --   -0.10623  -0.10114  -0.03921  -0.03364  -0.02308
 Alpha virt. eigenvalues --   -0.01687  -0.01385  -0.00586   0.00172   0.00238
 Alpha virt. eigenvalues --    0.00566   0.00637   0.01363   0.01869   0.01925

 Mulliken charges:
               1
     1  C    0.077537
     2  C   -0.003853
     3  O   -0.287679
     4  H    0.001426
     5  H   -0.015770
     6  H    0.042265
     7  N   -0.117694
     8  C    0.115762
     9  C    0.105282
    10  O   -0.309833
    11  C    0.063855
    12  C    0.028525
    13  O   -0.347298
    14  O   -0.373035
    15  H    0.128838
    16  H   -0.004028
    17  H   -0.020463
    18  H    0.033097
    19  N   -0.101306
    20  C    0.127434
    21  C    0.068410
    22  O   -0.262110
    23  C    0.003434
    24  C    0.009795
    25  C   -0.017009
    26  C   -0.007293
    27  N    0.083450
    28  H    0.100052
    29  H   -0.029000
    30  H    0.014568
    31  H    0.040411
    32  H    0.031024
    33  H    0.022024
    34  H    0.033444
    35  H    0.027655
    36  H    0.079379
    37  H    0.086568
    38  H    0.188136
    39  H    0.186648
    40  H    0.192855
    41  N   -0.130959
    42  C    0.161786
    43  C    0.068955
    44  O   -0.307931
    45  C    0.012311
    46  C    0.128819
    47  O   -0.341327
    48  O   -0.473998
    49  H    0.115637
    50  H    0.032981
    51  H    0.017034
    52  H   -0.017145
    53  N   -0.134368
    54  C    0.164934
    55  C    0.024877
    56  O   -0.252176
    57  H    0.138830
    58  H    0.040962
    59  H    0.025599
    60  N   -0.128862
    61  C   -0.031643
    62  C    0.054723
    63  O   -0.237365
    64  C    0.194796
    65  C   -0.045268
    66  N   -0.062225
    67  O   -0.264276
    68  H    0.125434
    69  H    0.031108
    70  H    0.028641
    71  H    0.009117
    72  H    0.114536
    73  H    0.121970
    74  N   -0.166143
    75  C    0.232074
    76  C    0.028385
    77  O   -0.265946
    78  H    0.127681
    79  H    0.043760
    80  H    0.044848
    81  N   -0.125345
    82  C    0.084325
    83  C    0.125377
    84  O   -0.295060
    85  C    0.140701
    86  C   -0.032928
    87  C    0.002228
    88  C   -0.015375
    89  C   -0.013049
    90  C   -0.040063
    91  C    0.202338
    92  O   -0.203116
    93  H    0.113998
    94  H    0.004984
    95  H    0.012788
    96  H   -0.015345
    97  H   -0.036305
    98  H   -0.027340
    99  H   -0.019928
   100  H   -0.037760
   101  H    0.174819
   102  N   -0.116885
   103  C    0.101633
   104  C    0.105029
   105  O   -0.279328
   106  C   -0.125877
   107  C    0.056636
   108  C    0.067413
   109  C   -0.014719
   110  H    0.128347
   111  H   -0.009781
   112  H   -0.027414
   113  H    0.006346
   114  H    0.034949
   115  H   -0.009403
   116  H    0.035768
   117  H    0.009119
   118  H    0.004041
   119  H    0.019939
   120  H    0.009144
   121  N   -0.110500
   122  C    0.043085
   123  C    0.117144
   124  O   -0.255854
   125  C    0.219054
   126  O   -0.281261
   127  H    0.128839
   128  H    0.016246
   129  H    0.013212
   130  H   -0.037438
   131  H    0.157941
   132  N   -0.127607
   133  C    0.058759
   134  C    0.088457
   135  O   -0.262089
   136  C    0.049567
   137  H    0.121916
   138  H    0.013959
   139  H    0.016867
   140  H    0.004399
   141  H    0.047503
   142  N   -0.153564
   143  C    0.071514
   144  C    0.105816
   145  O   -0.313645
   146  C    0.064093
   147  H    0.115925
   148  H    0.017195
   149  H    0.001027
   150  H    0.036301
   151  H    0.024839
   152  N   -0.094809
   153  C    0.065256
   154  C    0.062530
   155  O   -0.251471
   156  C    0.048650
   157  C    0.056473
   158  C    0.108973
   159  O   -0.466962
   160  O   -0.396395
   161  H    0.093436
   162  H    0.040371
   163  H   -0.016897
   164  H    0.018377
   165  H    0.005651
   166  H    0.016278
   167  N   -0.165747
   168  C    0.132555
   169  H    0.028296
   170  H    0.039093
   171  H    0.017928
   172  H    0.115353
   173  Ca   1.292171
   174  O   -0.330637
   175  H    0.169064
   176  H    0.200190
 Sum of Mulliken charges =  -0.00000

 Dipole moment (field-independent basis, Debye):
    X=            -35.9266    Y=            -16.9716    Z=             13.2779  Tot=             41.8935
 Quadrupole moment (field-independent basis, Debye-Ang):
   XX=           -576.7048   YY=           -194.6389   ZZ=           -558.9357
   XY=            -17.6271   XZ=            120.7746   YZ=            -69.9779

 ESP charges:
               1
     1  C   -0.470670
     2  C    0.663891
     3  O   -0.576126
     4  H    0.106741
     5  H    0.089803
     6  H    0.150883
     7  N   -0.442421
     8  C    0.145712
     9  C    0.685739
    10  O   -0.629918
    11  C   -0.316243
    12  C    0.816659
    13  O   -0.679910
    14  O   -0.720639
    15  H    0.264643
    16  H    0.036663
    17  H    0.046369
    18  H    0.104506
    19  N   -0.586935
    20  C    0.297314
    21  C    0.622446
    22  O   -0.518255
    23  C   -0.283914
    24  C    0.012283
    25  C    0.036519
    26  C    0.044162
    27  N   -0.430484
    28  H    0.288246
    29  H   -0.003159
    30  H    0.061113
    31  H    0.120544
    32  H    0.058924
    33  H    0.005832
    34  H    0.024039
    35  H    0.003719
    36  H    0.101180
    37  H    0.097542
    38  H    0.332310
    39  H    0.329661
    40  H    0.352561
    41  N   -0.873666
    42  C    0.609557
    43  C    0.338508
    44  O   -0.571876
    45  C   -0.432086
    46  C    0.817422
    47  O   -0.644317
    48  O   -0.798122
    49  H    0.350260
    50  H    0.016414
    51  H    0.064889
    52  H    0.064647
    53  N   -0.258596
    54  C    0.027230
    55  C    0.614903
    56  O   -0.524498
    57  H    0.256546
    58  H    0.076146
    59  H    0.054091
    60  N   -0.678469
    61  C    0.662065
    62  C    0.331646
    63  O   -0.506689
    64  C   -0.403267
    65  C    0.681421
    66  N   -0.800719
    67  O   -0.572263
    68  H    0.317972
    69  H   -0.083978
    70  H    0.113095
    71  H    0.100315
    72  H    0.330585
    73  H    0.364629
    74  N   -0.335505
    75  C   -0.068172
    76  C    0.567386
    77  O   -0.549682
    78  H    0.278505
    79  H    0.106273
    80  H    0.035276
    81  N   -0.548912
    82  C    0.269852
    83  C    0.657108
    84  O   -0.549832
    85  C   -0.306912
    86  C    0.110790
    87  C   -0.181587
    88  C   -0.124799
    89  C   -0.249092
    90  C   -0.361699
    91  C    0.429771
    92  O   -0.567743
    93  H    0.252305
    94  H    0.041685
    95  H    0.094861
    96  H    0.089945
    97  H    0.133664
    98  H    0.138509
    99  H    0.165688
   100  H    0.159472
   101  H    0.412013
   102  N   -0.584007
   103  C   -0.146894
   104  C    0.732576
   105  O   -0.553670
   106  C    0.429578
   107  C   -0.097417
   108  C   -0.501835
   109  C   -0.263672
   110  H    0.313105
   111  H    0.058694
   112  H   -0.069994
   113  H    0.037527
   114  H    0.060357
   115  H    0.098662
   116  H    0.127585
   117  H    0.123632
   118  H    0.057839
   119  H    0.103379
   120  H    0.009071
   121  N   -0.490742
   122  C   -0.002003
   123  C    0.611666
   124  O   -0.530966
   125  C    0.236307
   126  O   -0.592873
   127  H    0.307935
   128  H    0.090257
   129  H    0.016981
   130  H   -0.037176
   131  H    0.396788
   132  N   -0.664520
   133  C    0.392997
   134  C    0.472002
   135  O   -0.524052
   136  C   -0.412279
   137  H    0.321432
   138  H    0.013254
   139  H    0.128872
   140  H    0.076006
   141  H    0.128417
   142  N   -0.423505
   143  C    0.232154
   144  C    0.458274
   145  O   -0.520979
   146  C   -0.310187
   147  H    0.240365
   148  H    0.047255
   149  H    0.080083
   150  H    0.112069
   151  H    0.071655
   152  N   -0.216800
   153  C   -0.169111
   154  C    0.588817
   155  O   -0.521841
   156  C    0.236447
   157  C   -0.630800
   158  C    0.927586
   159  O   -0.790912
   160  O   -0.688221
   161  H    0.078178
   162  H    0.127084
   163  H   -0.060158
   164  H    0.013791
   165  H    0.128960
   166  H    0.227931
   167  N   -0.326862
   168  C   -0.262005
   169  H    0.118939
   170  H    0.122265
   171  H    0.114606
   172  H    0.302503
   173  Ca   1.426824
   174  O   -0.742489
   175  H    0.369759
   176  H    0.381209
 Sum of ESP charges =  -0.00000

 Normal termination of Gaussian 16 at Wed Sep 18 14:39:05 2019.
