 Gaussian 16, Revision A.03,
 Gaussian 16:  ES64L-G16RevA.03 25-Dec-2016

 ----------------------------------------------------------------------
 #b3lyp/svp scf=(tight,noincore) Test #IOP(5/87=12) Density=Current Pop
 =(MK,readradii) iop(6/33=2) iop(6/42=6)
 ----------------------------------------------------------------------

 ----------------
 Ng-31_loop3_20.0
 ----------------
 Symbolic Z-matrix:
 Charge =  0 Multiplicity = 1

                         Standard orientation:
 ---------------------------------------------------------------------
 Center     Atomic      Atomic             Coordinates (Angstroms)
 Number     Number       Type             X           Y           Z
 ---------------------------------------------------------------------
      1          6           0        5.231008   -3.632187    4.624842
      2          6           0        4.991959   -2.700762    3.453218
      3          8           0        3.944538   -2.096292    3.244109
      4          1           0        4.273056   -3.932926    5.050842
      5          1           0        5.769854   -4.516104    4.283348
      6          1           0        5.819959   -3.118269    5.383958
      7          7           0        6.092765   -2.402833    2.761146
      8          6           0        6.180555   -1.339300    1.780896
      9          6           0        5.200267   -1.488653    0.628843
     10          8           0        4.170341   -0.842120    0.502948
     11          6           0        7.596307   -1.115180    1.246184
     12          6           0        8.655990   -2.161702    1.548778
     13          8           0        9.679008   -1.802713    2.166485
     14          8           0        8.441410   -3.342222    1.214822
     15          1           0        6.968169   -2.856294    2.980561
     16          1           0        5.914983   -0.452408    2.352205
     17          1           0        7.838006   -0.174428    1.752116
     18          1           0        7.598096   -0.918469    0.169382
     19          7           0        5.464859   -2.543317   -0.149472
     20          6           0        4.754235   -2.932658   -1.357084
     21          6           0        5.081901   -1.810542   -2.326048
     22          8           0        6.229897   -1.537713   -2.668058
     23          6           0        5.234482   -4.316462   -1.776427
     24          6           0        4.424393   -5.124297   -2.791247
     25          6           0        5.012631   -6.477541   -3.165823
     26          6           0        5.095545   -7.458784   -1.987865
     27          7           0        5.792143   -8.706424   -2.334054
     28          1           0        6.216544   -3.135077    0.147835
     29          1           0        3.669888   -2.858116   -1.229277
     30          1           0        5.097660   -4.819754   -0.819099
     31          1           0        6.309331   -4.285485   -1.939952
     32          1           0        4.376493   -4.612202   -3.749038
     33          1           0        3.425681   -5.282981   -2.386903
     34          1           0        5.943154   -6.383045   -3.719265
     35          1           0        4.365855   -6.955946   -3.894802
     36          1           0        4.096877   -7.699012   -1.639651
     37          1           0        5.740771   -7.066756   -1.202882
     38          1           0        6.527528   -8.508867   -2.987492
     39          1           0        6.093276   -9.193894   -1.508045
     40          1           0        5.140726   -9.324934   -2.795359
     41          7           0        3.989789   -1.215589   -2.811765
     42          6           0        4.067138   -0.227535   -3.869435
     43          6           0        4.617575    1.131555   -3.466824
     44          8           0        5.094354    1.902660   -4.294518
     45          6           0        2.714613    0.063183   -4.515546
     46          6           0        1.527643    0.487670   -3.659792
     47          8           0        0.398726   -0.044640   -3.767455
     48          8           0        1.773344    1.328054   -2.771094
     49          1           0        3.110364   -1.413487   -2.364610
     50          1           0        4.690374   -0.608288   -4.684054
     51          1           0        2.403718   -0.789928   -5.122131
     52          1           0        2.913715    0.875986   -5.213406
     53          7           0        4.657271    1.419649   -2.164316
     54          6           0        4.742442    2.788812   -1.689409
     55          6           0        5.093556    3.019807   -0.232439
     56          8           0        5.696009    2.117715    0.355252
     57          1           0        4.362829    0.681007   -1.543985
     58          1           0        3.797115    3.298855   -1.877058
     59          1           0        5.442835    3.391584   -2.275938
     60          7           0        4.613433    3.993626    0.549136
     61          6           0        3.808985    5.131425    0.151549
     62          6           0        2.876490    5.514712    1.288274
     63          8           0        3.330083    6.010704    2.319363
     64          6           0        4.692428    6.236350   -0.419651
     65          6           0        3.932343    7.529070   -0.668136
     66          7           0        4.021369    8.502449    0.246363
     67          8           0        3.041644    7.663333   -1.501700
     68          1           0        5.024563    4.024389    1.468606
     69          1           0        3.098694    4.784029   -0.607465
     70          1           0        5.015048    5.944191   -1.427351
     71          1           0        5.579091    6.403027    0.186936
     72          1           0        4.701120    8.458279    0.993415
     73          1           0        3.360597    9.263554    0.159192
     74          7           0        1.551680    5.607680    1.159297
     75          6           0        0.671560    5.504470    0.013331
     76          6           0       -0.269565    4.311682    0.113518
     77          8           0        0.149224    3.304048    0.695833
     78          1           0        1.076757    6.053834    1.928903
     79          1           0        1.239638    5.358323   -0.899866
     80          1           0        0.108002    6.434379   -0.012565
     81          7           0       -1.486523    4.305146   -0.444489
     82          6           0       -2.531982    3.309797   -0.321223
     83          6           0       -3.197551    3.119660   -1.677455
     84          8           0       -3.523236    4.087824   -2.359135
     85          6           0       -3.533395    3.597836    0.798824
     86          6           0       -2.961061    3.582735    2.189473
     87          6           0       -2.955235    2.429172    2.985249
     88          6           0       -2.390709    4.742047    2.727334
     89          6           0       -2.449555    2.385550    4.292569
     90          6           0       -1.816781    4.731779    4.005850
     91          6           0       -1.835204    3.556419    4.774479
     92          8           0       -1.248799    3.487710    6.011414
     93          1           0       -1.795563    5.158636   -0.875825
     94          1           0       -2.028292    2.386195   -0.047988
     95          1           0       -4.421543    2.965630    0.788376
     96          1           0       -3.989564    4.584606    0.693969
     97          1           0       -3.449482    1.576398    2.534810
     98          1           0       -2.502016    5.647469    2.147661
     99          1           0       -2.499232    1.561287    4.984033
    100          1           0       -1.536558    5.671628    4.459675
    101          1           0       -0.908775    4.333057    6.296144
    102          7           0       -3.472611    1.852719   -1.987459
    103          6           0       -4.081073    1.457145   -3.251854
    104          6           0       -5.599473    1.505881   -3.227644
    105          8           0       -6.132427    2.051514   -4.195345
    106          6           0       -3.435207    0.200605   -3.829229
    107          6           0       -3.707684   -1.054698   -3.005233
    108          6           0       -3.919785   -0.012536   -5.262357
    109          6           0       -2.820835   -2.261197   -3.311272
    110          1           0       -3.074246    1.095423   -1.455286
    111          1           0       -3.843914    2.238063   -3.972842
    112          1           0       -2.353401    0.242225   -3.974360
    113          1           0       -4.670817   -1.415610   -3.361769
    114          1           0       -3.803200   -0.934357   -1.918773
    115          1           0       -3.640371    0.781680   -5.958093
    116          1           0       -3.595284   -0.899385   -5.801613
    117          1           0       -5.006707   -0.110600   -5.229422
    118          1           0       -3.240515   -3.123097   -2.800589
    119          1           0       -2.752945   -2.393202   -4.396844
    120          1           0       -1.812493   -2.009648   -2.984669
    121          7           0       -6.176492    1.089778   -2.094458
    122          6           0       -7.549774    1.262568   -1.669559
    123          6           0       -8.235463   -0.041706   -1.280715
    124          8           0       -9.459941   -0.092133   -1.185257
    125          6           0       -7.598663    2.327569   -0.576499
    126          8           0       -7.261443    3.569000   -1.145122
    127          1           0       -5.472351    0.941800   -1.388988
    128          1           0       -8.090069    1.671804   -2.517502
    129          1           0       -6.952354    2.051979    0.257308
    130          1           0       -8.600208    2.417226   -0.151681
    131          1           0       -7.086054    4.152865   -0.407598
    132          7           0       -7.497037   -1.132907   -1.086277
    133          6           0       -7.933809   -2.396072   -0.521790
    134          6           0       -6.701396   -3.123914   -0.006810
    135          8           0       -5.641086   -3.023989   -0.617922
    136          6           0       -8.558446   -3.181651   -1.668565
    137          1           0       -6.535488   -1.100816   -1.381565
    138          1           0       -8.636939   -2.305223    0.305951
    139          1           0       -8.355413   -4.237106   -1.444528
    140          1           0       -9.648977   -3.168238   -1.747701
    141          1           0       -8.122604   -2.959135   -2.641770
    142          7           0       -6.882523   -4.046633    0.932701
    143          6           0       -5.944902   -5.070108    1.344244
    144          6           0       -4.517714   -4.598351    1.602465
    145          8           0       -3.505058   -5.273646    1.376402
    146          6           0       -6.142411   -6.274770    0.436070
    147          1           0       -7.666153   -3.917398    1.562083
    148          1           0       -6.295326   -5.373795    2.332108
    149          1           0       -7.206176   -6.525460    0.423517
    150          1           0       -5.804614   -5.906065   -0.541146
    151          1           0       -5.624399   -7.115266    0.895015
    152          7           0       -4.277365   -3.411075    2.151108
    153          6           0       -3.044074   -2.902081    2.722088
    154          6           0       -3.010651   -2.745699    4.239101
    155          8           0       -1.978863   -2.289615    4.715756
    156          6           0       -2.567800   -1.659394    1.991407
    157          6           0       -2.130002   -1.965370    0.556691
    158          6           0       -0.666075   -2.389909    0.433463
    159          8           0        0.241096   -1.565329    0.184046
    160          8           0       -0.428462   -3.610405    0.353914
    161          1           0       -5.123629   -2.892673    2.339779
    162          1           0       -2.314896   -3.704726    2.589952
    163          1           0       -1.702330   -1.260214    2.514969
    164          1           0       -3.407850   -0.978445    2.143475
    165          1           0       -2.235118   -1.067138   -0.037473
    166          1           0       -2.790378   -2.661175    0.040204
    167          7           0       -4.124799   -2.958960    4.952468
    168          6           0       -4.300649   -2.802421    6.380009
    169          1           0       -3.806181   -3.623754    6.898749
    170          1           0       -3.864053   -1.856549    6.698893
    171          1           0       -5.363504   -2.810634    6.618792
    172          1           0       -4.974013   -3.062905    4.420461
    173         20           0        1.904580   -0.659073    1.901026
    174          8           0        0.289019    1.147383    2.619411
    175          1           0       -0.122246    1.850592    2.101667
    176          1           0        0.484789    1.562455    3.463205
 ---------------------------------------------------------------------

 SCF Done:  E(RB3LYP) =  -5333.32582124     A.U. after   28 cycles

 The electronic state is 1-A.
 Alpha  occ. eigenvalues -- -145.47509 -19.20140 -19.18549 -19.13354 -19.13081
 Alpha  occ. eigenvalues --  -19.12553 -19.12524 -19.11108 -19.10293 -19.09919
 Alpha  occ. eigenvalues --  -19.09526 -19.09105 -19.08898 -19.08718 -19.07562
 Alpha  occ. eigenvalues --  -19.07540 -19.06887 -19.04752 -19.03391 -19.01472
 Alpha  occ. eigenvalues --  -18.99080 -18.97275 -18.96557 -18.96494 -15.53325
 Alpha  occ. eigenvalues --  -14.58245 -14.39135 -14.37254 -14.36986 -14.36772
 Alpha  occ. eigenvalues --  -14.36119 -14.35623 -14.35307 -14.35281 -14.35167
 Alpha  occ. eigenvalues --  -14.34922 -14.34722 -14.34697 -14.33175 -14.29660
 Alpha  occ. eigenvalues --  -12.66956 -12.66905 -12.66854 -10.34809 -10.30912
 Alpha  occ. eigenvalues --  -10.30617 -10.30135 -10.29596 -10.29402 -10.29063
 Alpha  occ. eigenvalues --  -10.29001 -10.28179 -10.28104 -10.28054 -10.27860
 Alpha  occ. eigenvalues --  -10.27565 -10.26713 -10.26349 -10.26321 -10.25859
 Alpha  occ. eigenvalues --  -10.25433 -10.24888 -10.24705 -10.24551 -10.24291
 Alpha  occ. eigenvalues --  -10.24172 -10.24134 -10.23885 -10.23072 -10.22691
 Alpha  occ. eigenvalues --  -10.22409 -10.22317 -10.22316 -10.21785 -10.21573
 Alpha  occ. eigenvalues --  -10.21556 -10.21512 -10.21433 -10.21278 -10.21169
 Alpha  occ. eigenvalues --  -10.20642 -10.20446 -10.20154 -10.19970 -10.19698
 Alpha  occ. eigenvalues --  -10.19250 -10.18584 -10.18443 -10.18163 -10.16516
 Alpha  occ. eigenvalues --  -10.15866 -10.15051 -10.14910 -10.13928 -10.13317
 Alpha  occ. eigenvalues --  -10.13110 -10.11582  -1.89749  -1.17314  -1.17026
 Alpha  occ. eigenvalues --   -1.16609  -1.13996  -1.07103  -1.06085  -1.05704
 Alpha  occ. eigenvalues --   -1.05621  -1.04669  -1.04303  -1.03621  -1.03559
 Alpha  occ. eigenvalues --   -1.02616  -1.02463  -1.02246  -1.02061  -1.01794
 Alpha  occ. eigenvalues --   -1.00817  -1.00467  -1.00038  -0.98003  -0.96591
 Alpha  occ. eigenvalues --   -0.95904  -0.93995  -0.93693  -0.93387  -0.92887
 Alpha  occ. eigenvalues --   -0.92820  -0.92605  -0.92106  -0.92068  -0.91752
 Alpha  occ. eigenvalues --   -0.91261  -0.91247  -0.91057  -0.89784  -0.88878
 Alpha  occ. eigenvalues --   -0.88809  -0.87323  -0.87239  -0.85855  -0.83039
 Alpha  occ. eigenvalues --   -0.81970  -0.81211  -0.81052  -0.80948  -0.78978
 Alpha  occ. eigenvalues --   -0.78601  -0.78570  -0.78155  -0.77571  -0.76693
 Alpha  occ. eigenvalues --   -0.76641  -0.76076  -0.75661  -0.74485  -0.73890
 Alpha  occ. eigenvalues --   -0.73505  -0.73214  -0.72644  -0.72196  -0.70971
 Alpha  occ. eigenvalues --   -0.70339  -0.69932  -0.69274  -0.68551  -0.68197
 Alpha  occ. eigenvalues --   -0.67973  -0.66802  -0.66326  -0.64637  -0.64152
 Alpha  occ. eigenvalues --   -0.64072  -0.63088  -0.63057  -0.61603  -0.61570
 Alpha  occ. eigenvalues --   -0.61200  -0.61151  -0.60770  -0.60702  -0.60129
 Alpha  occ. eigenvalues --   -0.60050  -0.59508  -0.58900  -0.58838  -0.58787
 Alpha  occ. eigenvalues --   -0.58661  -0.58611  -0.58228  -0.58120  -0.57658
 Alpha  occ. eigenvalues --   -0.57166  -0.56970  -0.56497  -0.56001  -0.55911
 Alpha  occ. eigenvalues --   -0.55537  -0.54450  -0.54246  -0.53538  -0.53381
 Alpha  occ. eigenvalues --   -0.52916  -0.52568  -0.52456  -0.52035  -0.51442
 Alpha  occ. eigenvalues --   -0.51407  -0.51189  -0.51040  -0.50703  -0.50576
 Alpha  occ. eigenvalues --   -0.50489  -0.50110  -0.50013  -0.49968  -0.49868
 Alpha  occ. eigenvalues --   -0.49007  -0.48896  -0.48679  -0.48365  -0.47685
 Alpha  occ. eigenvalues --   -0.47636  -0.47562  -0.47507  -0.47260  -0.47084
 Alpha  occ. eigenvalues --   -0.47040  -0.46882  -0.46746  -0.46740  -0.46477
 Alpha  occ. eigenvalues --   -0.45677  -0.45566  -0.45494  -0.45336  -0.45089
 Alpha  occ. eigenvalues --   -0.44972  -0.44904  -0.44496  -0.44350  -0.44109
 Alpha  occ. eigenvalues --   -0.44006  -0.43771  -0.43727  -0.43472  -0.43329
 Alpha  occ. eigenvalues --   -0.43127  -0.43036  -0.42822  -0.42708  -0.42531
 Alpha  occ. eigenvalues --   -0.42255  -0.42225  -0.41950  -0.41716  -0.41537
 Alpha  occ. eigenvalues --   -0.41365  -0.41345  -0.41091  -0.40986  -0.40851
 Alpha  occ. eigenvalues --   -0.40835  -0.40765  -0.40711  -0.40621  -0.40370
 Alpha  occ. eigenvalues --   -0.40211  -0.39949  -0.39733  -0.39495  -0.39286
 Alpha  occ. eigenvalues --   -0.38890  -0.38848  -0.38726  -0.38676  -0.38561
 Alpha  occ. eigenvalues --   -0.38342  -0.38330  -0.38112  -0.37989  -0.37911
 Alpha  occ. eigenvalues --   -0.37788  -0.37556  -0.37322  -0.37239  -0.37229
 Alpha  occ. eigenvalues --   -0.37138  -0.36995  -0.36934  -0.36901  -0.36603
 Alpha  occ. eigenvalues --   -0.36321  -0.36244  -0.36100  -0.35889  -0.35733
 Alpha  occ. eigenvalues --   -0.35697  -0.35426  -0.35203  -0.35113  -0.34987
 Alpha  occ. eigenvalues --   -0.34501  -0.34442  -0.34191  -0.33855  -0.33549
 Alpha  occ. eigenvalues --   -0.33174  -0.32725  -0.32246  -0.31712  -0.31613
 Alpha  occ. eigenvalues --   -0.30650  -0.30567  -0.30188  -0.29722  -0.29712
 Alpha  occ. eigenvalues --   -0.29557  -0.28973  -0.28567  -0.28407  -0.28258
 Alpha  occ. eigenvalues --   -0.28126  -0.28058  -0.27977  -0.27833  -0.27813
 Alpha  occ. eigenvalues --   -0.27406  -0.27398  -0.27195  -0.26939  -0.26797
 Alpha  occ. eigenvalues --   -0.26691  -0.26429  -0.26376  -0.26149  -0.25940
 Alpha  occ. eigenvalues --   -0.25605  -0.25444  -0.25135  -0.24913  -0.24845
 Alpha  occ. eigenvalues --   -0.24558  -0.24365  -0.23953  -0.23666  -0.23024
 Alpha  occ. eigenvalues --   -0.22636  -0.22292  -0.21486  -0.20927  -0.20056
 Alpha  occ. eigenvalues --   -0.19151  -0.17152  -0.16224  -0.15868  -0.14281
 Alpha  occ. eigenvalues --   -0.14094  -0.13418  -0.11664
 Alpha virt. eigenvalues --   -0.10673  -0.06898  -0.04949  -0.04149  -0.04057
 Alpha virt. eigenvalues --   -0.02480  -0.02022  -0.01195  -0.00818  -0.00552
 Alpha virt. eigenvalues --   -0.00194   0.00073   0.00149   0.00830   0.01320

 Mulliken charges:
               1
     1  C    0.044052
     2  C    0.069111
     3  O   -0.403588
     4  H    0.024092
     5  H    0.039353
     6  H    0.058790
     7  N   -0.101132
     8  C    0.100122
     9  C    0.122498
    10  O   -0.385659
    11  C    0.089322
    12  C   -0.009504
    13  O   -0.351593
    14  O   -0.410978
    15  H    0.143028
    16  H   -0.011502
    17  H   -0.008171
    18  H    0.045578
    19  N   -0.117364
    20  C    0.117906
    21  C    0.051540
    22  O   -0.258075
    23  C   -0.006238
    24  C    0.070741
    25  C   -0.033683
    26  C   -0.000865
    27  N    0.103751
    28  H    0.102093
    29  H   -0.002654
    30  H    0.000575
    31  H    0.037593
    32  H    0.043645
    33  H    0.032742
    34  H    0.029944
    35  H    0.016647
    36  H    0.080670
    37  H    0.078962
    38  H    0.179244
    39  H    0.179922
    40  H    0.167897
    41  N   -0.134379
    42  C    0.142915
    43  C    0.059470
    44  O   -0.294479
    45  C    0.060130
    46  C    0.014561
    47  O   -0.359328
    48  O   -0.391356
    49  H    0.149913
    50  H   -0.004109
    51  H   -0.039354
    52  H    0.013212
    53  N   -0.105766
    54  C    0.228282
    55  C   -0.007090
    56  O   -0.289884
    57  H    0.110955
    58  H    0.009929
    59  H    0.032621
    60  N   -0.117850
    61  C    0.077403
    62  C    0.053413
    63  O   -0.293941
    64  C    0.157387
    65  C   -0.024375
    66  N   -0.054196
    67  O   -0.274301
    68  H    0.121331
    69  H    0.018714
    70  H    0.036861
    71  H   -0.000161
    72  H    0.118487
    73  H    0.125471
    74  N   -0.102539
    75  C    0.197322
    76  C    0.061031
    77  O   -0.328252
    78  H    0.113570
    79  H    0.092928
    80  H    0.014244
    81  N   -0.116684
    82  C    0.121958
    83  C    0.130611
    84  O   -0.263832
    85  C    0.161973
    86  C   -0.049481
    87  C    0.000083
    88  C   -0.012849
    89  C   -0.008851
    90  C   -0.027064
    91  C    0.127191
    92  O   -0.201930
    93  H    0.119405
    94  H    0.003760
    95  H   -0.018465
    96  H   -0.009177
    97  H   -0.034973
    98  H   -0.033451
    99  H   -0.013677
   100  H   -0.030431
   101  H    0.173777
   102  N   -0.151480
   103  C    0.138147
   104  C    0.059330
   105  O   -0.252484
   106  C   -0.062857
   107  C   -0.045254
   108  C    0.044352
   109  C    0.030095
   110  H    0.142973
   111  H    0.029278
   112  H    0.048600
   113  H   -0.020687
   114  H   -0.027654
   115  H    0.010634
   116  H   -0.002524
   117  H   -0.003989
   118  H    0.015811
   119  H   -0.009377
   120  H    0.050380
   121  N   -0.142737
   122  C    0.137949
   123  C    0.045576
   124  O   -0.281938
   125  C    0.204717
   126  O   -0.271934
   127  H    0.100938
   128  H    0.042103
   129  H   -0.036848
   130  H    0.002876
   131  H    0.158451
   132  N   -0.132571
   133  C    0.115361
   134  C    0.036238
   135  O   -0.261212
   136  C    0.080963
   137  H    0.132622
   138  H   -0.007294
   139  H   -0.011677
   140  H    0.035073
   141  H    0.036645
   142  N   -0.138717
   143  C    0.032052
   144  C    0.077451
   145  O   -0.251747
   146  C    0.089082
   147  H    0.122762
   148  H    0.005147
   149  H   -0.000274
   150  H    0.056609
   151  H    0.031291
   152  N   -0.137081
   153  C    0.104712
   154  C    0.052567
   155  O   -0.287424
   156  C    0.038961
   157  C    0.104011
   158  C    0.033073
   159  O   -0.464578
   160  O   -0.335991
   161  H    0.081000
   162  H    0.049210
   163  H   -0.015077
   164  H   -0.038065
   165  H   -0.025650
   166  H    0.036171
   167  N   -0.146839
   168  C    0.130028
   169  H    0.035695
   170  H    0.033278
   171  H    0.014345
   172  H    0.090192
   173  Ca   1.456470
   174  O   -0.353371
   175  H    0.214971
   176  H    0.193645
 Sum of Mulliken charges =  -0.00000

 Dipole moment (field-independent basis, Debye):
    X=             -7.1490    Y=            -25.6251    Z=             16.0804  Tot=             31.0859
 Quadrupole moment (field-independent basis, Debye-Ang):
   XX=           -696.2483   YY=           -233.4072   ZZ=           -566.3889
   XY=           -100.4576   XZ=           -119.2877   YZ=            135.0136

 ESP charges:
               1
     1  C   -0.394462
     2  C    0.737930
     3  O   -0.697512
     4  H    0.099804
     5  H    0.109228
     6  H    0.140881
     7  N   -0.647368
     8  C    0.530525
     9  C    0.343854
    10  O   -0.661119
    11  C   -0.408586
    12  C    0.772854
    13  O   -0.687386
    14  O   -0.729639
    15  H    0.321852
    16  H    0.001391
    17  H    0.065634
    18  H    0.131299
    19  N   -0.251754
    20  C   -0.047409
    21  C    0.603299
    22  O   -0.548232
    23  C    0.223519
    24  C   -0.456481
    25  C    0.172764
    26  C   -0.000360
    27  N   -0.361994
    28  H    0.150265
    29  H    0.049505
    30  H   -0.018048
    31  H    0.019203
    32  H    0.151247
    33  H    0.142084
    34  H    0.018624
    35  H   -0.000691
    36  H    0.103102
    37  H    0.080695
    38  H    0.308726
    39  H    0.335090
    40  H    0.300793
    41  N   -0.538746
    42  C    0.038802
    43  C    0.525349
    44  O   -0.547247
    45  C   -0.250529
    46  C    0.839753
    47  O   -0.785761
    48  O   -0.730043
    49  H    0.356842
    50  H    0.095707
    51  H    0.029985
    52  H    0.071140
    53  N   -0.377750
    54  C   -0.045983
    55  C    0.715825
    56  O   -0.620022
    57  H    0.313411
    58  H    0.077624
    59  H    0.086755
    60  N   -0.702225
    61  C    0.350148
    62  C    0.452495
    63  O   -0.548764
    64  C   -0.460275
    65  C    0.723363
    66  N   -0.796408
    67  O   -0.584131
    68  H    0.352521
    69  H    0.057749
    70  H    0.124251
    71  H    0.148962
    72  H    0.357848
    73  H    0.379274
    74  N   -0.451276
    75  C   -0.025381
    76  C    0.716845
    77  O   -0.621429
    78  H    0.312268
    79  H    0.084320
    80  H    0.072804
    81  N   -0.583771
    82  C    0.222476
    83  C    0.586030
    84  O   -0.508843
    85  C   -0.489581
    86  C    0.077478
    87  C   -0.050186
    88  C   -0.024991
    89  C   -0.356766
    90  C   -0.457339
    91  C    0.469323
    92  O   -0.574100
    93  H    0.279758
    94  H    0.124824
    95  H    0.163927
    96  H    0.145698
    97  H    0.079933
    98  H    0.110881
    99  H    0.200914
   100  H    0.176727
   101  H    0.417834
   102  N   -0.516248
   103  C   -0.001568
   104  C    0.513994
   105  O   -0.513035
   106  C   -0.013872
   107  C    0.277044
   108  C   -0.227495
   109  C   -0.536031
   110  H    0.219102
   111  H    0.123357
   112  H    0.118343
   113  H   -0.006340
   114  H   -0.081953
   115  H    0.065572
   116  H    0.078332
   117  H    0.027048
   118  H    0.115249
   119  H    0.108094
   120  H    0.202824
   121  N   -0.305062
   122  C   -0.093079
   123  C    0.542327
   124  O   -0.552460
   125  C    0.202358
   126  O   -0.539565
   127  H    0.237047
   128  H    0.160662
   129  H   -0.035031
   130  H    0.020657
   131  H    0.376222
   132  N   -0.388728
   133  C    0.106254
   134  C    0.472335
   135  O   -0.394012
   136  C   -0.093231
   137  H    0.135377
   138  H    0.047484
   139  H   -0.002324
   140  H    0.063061
   141  H    0.077447
   142  N   -0.595051
   143  C    0.476167
   144  C    0.286563
   145  O   -0.448024
   146  C   -0.438724
   147  H    0.299117
   148  H   -0.006171
   149  H    0.121231
   150  H    0.147484
   151  H    0.109620
   152  N   -0.486969
   153  C    0.047103
   154  C    0.579202
   155  O   -0.549620
   156  C   -0.259807
   157  C   -0.028124
   158  C    0.661369
   159  O   -0.772872
   160  O   -0.646762
   161  H    0.230133
   162  H    0.115030
   163  H    0.019236
   164  H    0.098222
   165  H    0.024351
   166  H    0.126548
   167  N   -0.333800
   168  C   -0.209728
   169  H    0.108619
   170  H    0.103298
   171  H    0.107819
   172  H    0.249519
   173  Ca   1.639912
   174  O   -0.744735
   175  H    0.369355
   176  H    0.398907
 Sum of ESP charges =   0.00000

 Normal termination of Gaussian 16 at Wed Sep 18 14:29:15 2019.
