 Gaussian 16, Revision A.03,
 Gaussian 16:  ES64L-G16RevA.03 25-Dec-2016

 ----------------------------------------------------------------------
 #b3lyp/svp scf=(tight,noincore) Test #IOP(5/87=12) Density=Current Pop
 =(MK,readradii) iop(6/33=2) iop(6/42=6)
 ----------------------------------------------------------------------

 ---------------
 Ng-31_loop3_0.0
 ---------------
 Symbolic Z-matrix:
 Charge =  0 Multiplicity = 1

                         Standard orientation:
 ---------------------------------------------------------------------
 Center     Atomic      Atomic             Coordinates (Angstroms)
 Number     Number       Type             X           Y           Z
 ---------------------------------------------------------------------
      1          6           0       -8.114728    3.165330    1.684421
      2          6           0       -7.804345    1.785285    1.118701
      3          8           0       -7.156357    0.893597    1.653587
      4          1           0       -7.357275    3.434052    2.420233
      5          1           0       -8.112924    3.897798    0.877488
      6          1           0       -9.094720    3.150882    2.161701
      7          7           0       -8.361792    1.473197   -0.054011
      8          6           0       -8.011771    0.307416   -0.842262
      9          6           0       -6.763555    0.503065   -1.685753
     10          8           0       -6.589198    1.592675   -2.237251
     11          6           0       -9.250028   -0.134866   -1.619441
     12          6           0       -9.791510    0.922860   -2.566865
     13          8           0       -9.745311    2.137450   -2.266802
     14          8           0      -10.231347    0.530643   -3.669956
     15          1           0       -9.037167    2.078077   -0.497845
     16          1           0       -7.811302   -0.486439   -0.123926
     17          1           0      -10.060406   -0.458435   -0.960435
     18          1           0       -9.085950   -1.010455   -2.243638
     19          7           0       -5.859800   -0.476055   -1.775480
     20          6           0       -4.547585   -0.296347   -2.367675
     21          6           0       -3.501852    0.342985   -1.459325
     22          8           0       -2.482186    0.793275   -1.962636
     23          6           0       -4.089235   -1.648423   -2.908420
     24          6           0       -2.718598   -1.654199   -3.582971
     25          6           0       -2.478417   -3.033208   -4.198395
     26          6           0       -1.553912   -2.969859   -5.414321
     27          7           0       -1.930633   -4.214210   -6.105242
     28          1           0       -6.101293   -1.325703   -1.291146
     29          1           0       -4.634541    0.385276   -3.204412
     30          1           0       -4.802194   -1.860258   -3.704482
     31          1           0       -4.097627   -2.352450   -2.074288
     32          1           0       -2.032772   -1.491210   -2.755639
     33          1           0       -2.710206   -0.950171   -4.417102
     34          1           0       -3.458160   -3.357148   -4.553596
     35          1           0       -2.141786   -3.829227   -3.531586
     36          1           0       -0.524751   -2.853922   -5.078932
     37          1           0       -1.898600   -2.098495   -5.973620
     38          1           0       -2.914336   -4.430702   -6.164910
     39          1           0       -1.603334   -4.157122   -7.059242
     40          1           0       -1.623234   -5.072423   -5.676083
     41          7           0       -3.652582    0.365786   -0.131372
     42          6           0       -2.572955    0.813116    0.727116
     43          6           0       -1.492596   -0.247081    0.859061
     44          8           0       -0.358695   -0.014634    1.272262
     45          6           0       -2.999499    1.419673    2.062462
     46          6           0       -3.784706    0.542180    3.032491
     47          8           0       -4.385142    1.095172    3.976566
     48          8           0       -3.901676   -0.691001    2.872235
     49          1           0       -4.423226   -0.054856    0.368896
     50          1           0       -2.028635    1.593507    0.195886
     51          1           0       -3.547847    2.331155    1.856027
     52          1           0       -2.053009    1.657206    2.535256
     53          7           0       -1.839879   -1.470603    0.446886
     54          6           0       -0.902532   -2.571057    0.478196
     55          6           0       -1.538959   -3.939755    0.227946
     56          8           0       -2.727618   -4.140618    0.472166
     57          1           0       -2.807769   -1.626099    0.205203
     58          1           0       -0.383018   -2.555367    1.442799
     59          1           0       -0.092202   -2.385798   -0.217825
     60          7           0       -0.718158   -4.904820   -0.170845
     61          6           0        0.699164   -5.111674   -0.364264
     62          6           0        1.170360   -6.145709    0.648724
     63          8           0        0.461894   -7.099951    1.005793
     64          6           0        1.033378   -5.640021   -1.756690
     65          6           0        0.902042   -4.644323   -2.902437
     66          7           0        1.382672   -4.960211   -4.110952
     67          8           0        0.390792   -3.546367   -2.692637
     68          1           0       -1.181361   -5.787227   -0.041999
     69          1           0        1.221883   -4.183987   -0.143671
     70          1           0        0.373454   -6.493086   -1.896619
     71          1           0        1.991824   -6.163884   -1.775357
     72          1           0        1.766110   -5.889441   -4.164883
     73          1           0        1.341319   -4.270138   -4.846948
     74          7           0        2.426840   -6.153347    1.097055
     75          6           0        3.437541   -5.133673    0.938159
     76          6           0        3.158824   -3.768707    1.549375
     77          8           0        2.146892   -3.481398    2.181867
     78          1           0        2.626785   -6.993428    1.618001
     79          1           0        3.742105   -5.022982   -0.105339
     80          1           0        4.370167   -5.523633    1.326927
     81          7           0        4.140016   -2.894874    1.268168
     82          6           0        4.146625   -1.474204    1.551990
     83          6           0        5.021095   -0.772832    0.518608
     84          8           0        6.035714   -0.116039    0.726867
     85          6           0        4.662761   -1.173179    2.949805
     86          6           0        3.811887   -1.666620    4.095025
     87          6           0        2.666385   -1.046135    4.601211
     88          6           0        4.288497   -2.822273    4.727645
     89          6           0        1.905330   -1.689420    5.590292
     90          6           0        3.587065   -3.456232    5.757446
     91          6           0        2.396712   -2.852636    6.207926
     92          8           0        1.762576   -3.318273    7.319210
     93          1           0        5.048387   -3.231600    1.012283
     94          1           0        3.165406   -1.041700    1.347420
     95          1           0        4.710231   -0.085711    3.068379
     96          1           0        5.694744   -1.509871    3.082662
     97          1           0        2.324363   -0.141798    4.121320
     98          1           0        5.152113   -3.346209    4.341953
     99          1           0        1.027838   -1.198368    5.998920
    100          1           0        3.903117   -4.359567    6.257943
    101          1           0        2.128567   -4.101353    7.721499
    102          7           0        4.655168   -0.923536   -0.760292
    103          6           0        5.606189   -0.969279   -1.854991
    104          6           0        5.885441    0.339198   -2.600381
    105          8           0        6.822323    0.476202   -3.367507
    106          6           0        5.294541   -2.039945   -2.889713
    107          6           0        5.582600   -3.394678   -2.242394
    108          6           0        3.893403   -2.023680   -3.491664
    109          6           0        5.461177   -4.610482   -3.156493
    110          1           0        3.782930   -1.409329   -0.894480
    111          1           0        6.575813   -1.167354   -1.399804
    112          1           0        6.010928   -2.029573   -3.710190
    113          1           0        4.991919   -3.415563   -1.326065
    114          1           0        6.645377   -3.413375   -1.979419
    115          1           0        3.819559   -1.294086   -4.299649
    116          1           0        3.649211   -2.940791   -4.016906
    117          1           0        3.103493   -1.780931   -2.771306
    118          1           0        6.189900   -4.389384   -3.937696
    119          1           0        5.665121   -5.554066   -2.659446
    120          1           0        4.459633   -4.635290   -3.597395
    121          7           0        4.997756    1.335245   -2.476665
    122          6           0        5.000175    2.557662   -3.251322
    123          6           0        3.606611    2.903243   -3.738411
    124          8           0        3.320388    3.115580   -4.915096
    125          6           0        5.705136    3.705477   -2.535117
    126          8           0        4.949633    4.397058   -1.560268
    127          1           0        4.390399    1.273861   -1.676447
    128          1           0        5.623030    2.310418   -4.114063
    129          1           0        5.904830    4.477886   -3.281914
    130          1           0        6.624286    3.347569   -2.082387
    131          1           0        4.576257    3.835645   -0.877622
    132          7           0        2.673670    2.978018   -2.787344
    133          6           0        1.442569    3.707300   -3.000975
    134          6           0        1.281111    5.065511   -2.324148
    135          8           0        0.163623    5.536135   -2.168472
    136          6           0        0.324258    2.744418   -2.616479
    137          1           0        2.806811    2.623750   -1.850077
    138          1           0        1.261644    3.921410   -4.054741
    139          1           0        0.487901    2.325222   -1.623053
    140          1           0       -0.675197    3.186549   -2.543607
    141          1           0        0.374713    1.852105   -3.237472
    142          7           0        2.384051    5.613231   -1.800291
    143          6           0        2.370634    6.560357   -0.703353
    144          6           0        1.602056    6.031994    0.493902
    145          8           0        0.700559    6.703770    0.994522
    146          6           0        1.963161    7.941748   -1.201575
    147          1           0        3.285006    5.214455   -2.018828
    148          1           0        3.366603    6.721548   -0.310081
    149          1           0        1.880896    8.740134   -0.451100
    150          1           0        2.721539    8.276677   -1.897553
    151          1           0        0.990968    7.795514   -1.672378
    152          7           0        1.825692    4.782581    0.904456
    153          6           0        1.240138    4.140033    2.066161
    154          6           0        1.850859    4.619567    3.380379
    155          8           0        1.211802    4.593212    4.425277
    156          6           0        1.269110    2.623437    1.919203
    157          6           0        2.537886    1.787680    1.976810
    158          6           0        3.328264    2.157926    0.727362
    159          8           0        4.342542    2.881444    0.834885
    160          8           0        2.931436    1.725181   -0.372937
    161          1           0        2.483511    4.281473    0.331077
    162          1           0        0.191446    4.456176    2.107369
    163          1           0        0.775385    2.352778    0.975234
    164          1           0        0.640909    2.223424    2.709617
    165          1           0        2.200991    0.753421    1.859714
    166          1           0        3.086786    1.967920    2.907359
    167          7           0        3.098609    5.096106    3.362236
    168          6           0        3.733796    5.591513    4.565777
    169          1           0        4.003462    4.751479    5.206138
    170          1           0        4.632490    6.148673    4.300335
    171          1           0        3.043930    6.246273    5.098090
    172          1           0        3.632262    5.156644    2.503138
    173         20           0       -5.267730   -1.120466    5.432480
    174          8           0       -6.985136   -1.071171    3.562574
    175          1           0       -6.842096   -0.486799    2.821461
    176          1           0       -7.648297   -1.694806    3.256962
 ---------------------------------------------------------------------

 SCF Done:  E(RB3LYP) =  -5333.31846818     A.U. after   57 cycles

 The electronic state is 1-A.
 Alpha  occ. eigenvalues -- -145.51813 -19.19167 -19.17166 -19.15629 -19.13390
 Alpha  occ. eigenvalues --  -19.13111 -19.11864 -19.09936 -19.09359 -19.09183
 Alpha  occ. eigenvalues --  -19.08630 -19.08395 -19.08215 -19.08009 -19.07897
 Alpha  occ. eigenvalues --  -19.05795 -19.04383 -19.04361 -19.04299 -19.03862
 Alpha  occ. eigenvalues --  -19.03792 -19.03257 -19.03148 -19.02458 -15.57807
 Alpha  occ. eigenvalues --  -14.59492 -14.43906 -14.39748 -14.38089 -14.37946
 Alpha  occ. eigenvalues --  -14.36379 -14.35355 -14.34488 -14.34068 -14.32677
 Alpha  occ. eigenvalues --  -14.30091 -14.30016 -14.29461 -14.28837 -14.28160
 Alpha  occ. eigenvalues --  -12.71396 -12.71363 -12.71319 -10.36330 -10.35161
 Alpha  occ. eigenvalues --  -10.32501 -10.31823 -10.30949 -10.29114 -10.28310
 Alpha  occ. eigenvalues --  -10.28138 -10.27723 -10.27561 -10.27301 -10.27198
 Alpha  occ. eigenvalues --  -10.27196 -10.26923 -10.26368 -10.24457 -10.24427
 Alpha  occ. eigenvalues --  -10.24287 -10.23865 -10.23101 -10.22872 -10.22822
 Alpha  occ. eigenvalues --  -10.22731 -10.22443 -10.22441 -10.22304 -10.22274
 Alpha  occ. eigenvalues --  -10.22182 -10.21990 -10.21619 -10.21556 -10.20611
 Alpha  occ. eigenvalues --  -10.20158 -10.19887 -10.19293 -10.18956 -10.18613
 Alpha  occ. eigenvalues --  -10.18206 -10.18143 -10.18002 -10.17947 -10.17929
 Alpha  occ. eigenvalues --  -10.17871 -10.17869 -10.17809 -10.17791 -10.17751
 Alpha  occ. eigenvalues --  -10.17586 -10.17001 -10.16742 -10.13799 -10.13421
 Alpha  occ. eigenvalues --  -10.11876 -10.11832  -1.94449  -1.21875  -1.21691
 Alpha  occ. eigenvalues --   -1.21298  -1.14995  -1.10042  -1.06847  -1.05406
 Alpha  occ. eigenvalues --   -1.05208  -1.04712  -1.04362  -1.03462  -1.03233
 Alpha  occ. eigenvalues --   -1.03044  -1.02490  -1.01451  -1.00829  -0.99444
 Alpha  occ. eigenvalues --   -0.98421  -0.98274  -0.97975  -0.97509  -0.97282
 Alpha  occ. eigenvalues --   -0.96880  -0.95946  -0.95904  -0.95860  -0.95475
 Alpha  occ. eigenvalues --   -0.95221  -0.92989  -0.92580  -0.91943  -0.91550
 Alpha  occ. eigenvalues --   -0.90236  -0.89853  -0.89516  -0.88148  -0.87921
 Alpha  occ. eigenvalues --   -0.87274  -0.87132  -0.86523  -0.85538  -0.85055
 Alpha  occ. eigenvalues --   -0.84264  -0.83952  -0.82887  -0.82815  -0.80150
 Alpha  occ. eigenvalues --   -0.78441  -0.76920  -0.76630  -0.76440  -0.75682
 Alpha  occ. eigenvalues --   -0.75131  -0.74518  -0.74027  -0.73345  -0.73199
 Alpha  occ. eigenvalues --   -0.73109  -0.72616  -0.72290  -0.71664  -0.71286
 Alpha  occ. eigenvalues --   -0.70232  -0.69076  -0.68212  -0.68045  -0.66544
 Alpha  occ. eigenvalues --   -0.66283  -0.66182  -0.65181  -0.64975  -0.64819
 Alpha  occ. eigenvalues --   -0.64508  -0.64012  -0.63680  -0.62545  -0.62331
 Alpha  occ. eigenvalues --   -0.61290  -0.61043  -0.60901  -0.60163  -0.59970
 Alpha  occ. eigenvalues --   -0.59591  -0.59445  -0.58907  -0.58694  -0.57998
 Alpha  occ. eigenvalues --   -0.57751  -0.57501  -0.57402  -0.57193  -0.56989
 Alpha  occ. eigenvalues --   -0.56210  -0.56101  -0.55153  -0.54786  -0.54619
 Alpha  occ. eigenvalues --   -0.54388  -0.54266  -0.54077  -0.53429  -0.53022
 Alpha  occ. eigenvalues --   -0.52885  -0.52569  -0.52253  -0.51862  -0.51761
 Alpha  occ. eigenvalues --   -0.51380  -0.51254  -0.50768  -0.50491  -0.49872
 Alpha  occ. eigenvalues --   -0.49531  -0.49364  -0.49328  -0.49287  -0.48718
 Alpha  occ. eigenvalues --   -0.48622  -0.48531  -0.48282  -0.47744  -0.47640
 Alpha  occ. eigenvalues --   -0.47517  -0.47368  -0.47137  -0.46936  -0.46844
 Alpha  occ. eigenvalues --   -0.46732  -0.46357  -0.46061  -0.45662  -0.45244
 Alpha  occ. eigenvalues --   -0.45142  -0.45042  -0.44981  -0.44684  -0.44486
 Alpha  occ. eigenvalues --   -0.44251  -0.43918  -0.43873  -0.43827  -0.43605
 Alpha  occ. eigenvalues --   -0.43538  -0.43411  -0.43153  -0.43075  -0.43005
 Alpha  occ. eigenvalues --   -0.42730  -0.42310  -0.42160  -0.42008  -0.41886
 Alpha  occ. eigenvalues --   -0.41822  -0.41730  -0.41618  -0.41197  -0.41019
 Alpha  occ. eigenvalues --   -0.40937  -0.40828  -0.40666  -0.40558  -0.40418
 Alpha  occ. eigenvalues --   -0.40197  -0.40111  -0.40007  -0.39889  -0.39643
 Alpha  occ. eigenvalues --   -0.39335  -0.39162  -0.39140  -0.38991  -0.38860
 Alpha  occ. eigenvalues --   -0.38714  -0.38518  -0.38459  -0.38429  -0.38223
 Alpha  occ. eigenvalues --   -0.38175  -0.37949  -0.37872  -0.37826  -0.37747
 Alpha  occ. eigenvalues --   -0.37585  -0.37248  -0.37016  -0.36841  -0.36595
 Alpha  occ. eigenvalues --   -0.36416  -0.36106  -0.36007  -0.35968  -0.35659
 Alpha  occ. eigenvalues --   -0.35540  -0.35502  -0.35382  -0.35272  -0.34871
 Alpha  occ. eigenvalues --   -0.34850  -0.34588  -0.34144  -0.34130  -0.34028
 Alpha  occ. eigenvalues --   -0.33863  -0.33803  -0.33484  -0.33215  -0.33031
 Alpha  occ. eigenvalues --   -0.32930  -0.32779  -0.32748  -0.32722  -0.32428
 Alpha  occ. eigenvalues --   -0.32211  -0.31812  -0.31654  -0.30808  -0.30626
 Alpha  occ. eigenvalues --   -0.30487  -0.30062  -0.29723  -0.29434  -0.28978
 Alpha  occ. eigenvalues --   -0.28711  -0.28601  -0.28519  -0.28239  -0.28102
 Alpha  occ. eigenvalues --   -0.27918  -0.27862  -0.27379  -0.26898  -0.26576
 Alpha  occ. eigenvalues --   -0.26161  -0.25730  -0.25461  -0.24845  -0.24750
 Alpha  occ. eigenvalues --   -0.24629  -0.24379  -0.24304  -0.23513  -0.23451
 Alpha  occ. eigenvalues --   -0.22891  -0.22794  -0.22146  -0.21785  -0.21430
 Alpha  occ. eigenvalues --   -0.21300  -0.21087  -0.20806  -0.20666  -0.20541
 Alpha  occ. eigenvalues --   -0.20493  -0.20046  -0.19015  -0.18521  -0.18277
 Alpha  occ. eigenvalues --   -0.18025  -0.17931  -0.17883
 Alpha virt. eigenvalues --   -0.17005  -0.11670  -0.06394  -0.05913  -0.05526
 Alpha virt. eigenvalues --   -0.04408  -0.03819  -0.03331  -0.02600  -0.02225
 Alpha virt. eigenvalues --   -0.01215  -0.01045  -0.00703  -0.00546   0.00488

 Mulliken charges:
               1
     1  C    0.048593
     2  C    0.051941
     3  O   -0.349120
     4  H    0.040156
     5  H    0.057311
     6  H    0.037516
     7  N   -0.109479
     8  C    0.123429
     9  C    0.072710
    10  O   -0.247793
    11  C    0.045766
    12  C    0.098189
    13  O   -0.310080
    14  O   -0.286859
    15  H    0.121291
    16  H   -0.057311
    17  H    0.010674
    18  H   -0.023465
    19  N   -0.136119
    20  C    0.195356
    21  C    0.066637
    22  O   -0.263499
    23  C   -0.064252
    24  C    0.075133
    25  C   -0.086174
    26  C    0.059261
    27  N    0.086690
    28  H    0.109085
    29  H    0.030577
    30  H    0.008407
    31  H    0.012989
    32  H    0.066484
    33  H    0.016368
    34  H   -0.024667
    35  H    0.035421
    36  H    0.104387
    37  H    0.077585
    38  H    0.175469
    39  H    0.184077
    40  H    0.171468
    41  N   -0.144710
    42  C    0.122378
    43  C    0.051869
    44  O   -0.270748
    45  C    0.100848
    46  C    0.083310
    47  O   -0.411272
    48  O   -0.409716
    49  H    0.117895
    50  H    0.050095
    51  H    0.042342
    52  H    0.053756
    53  N   -0.146297
    54  C    0.158427
    55  C    0.030171
    56  O   -0.282424
    57  H    0.105319
    58  H    0.059016
    59  H    0.024093
    60  N   -0.108343
    61  C    0.104126
    62  C    0.057616
    63  O   -0.283493
    64  C    0.055688
    65  C    0.036392
    66  N   -0.043723
    67  O   -0.252996
    68  H    0.114326
    69  H    0.031119
    70  H    0.017179
    71  H    0.025616
    72  H    0.132277
    73  H    0.133810
    74  N   -0.095015
    75  C    0.131864
    76  C    0.098081
    77  O   -0.239674
    78  H    0.135637
    79  H    0.022340
    80  H    0.028033
    81  N   -0.157237
    82  C    0.076015
    83  C    0.043358
    84  O   -0.235855
    85  C    0.169518
    86  C   -0.007011
    87  C    0.021723
    88  C   -0.008626
    89  C   -0.004942
    90  C   -0.031227
    91  C    0.144748
    92  O   -0.210724
    93  H    0.128424
    94  H    0.050990
    95  H    0.030468
    96  H   -0.010057
    97  H   -0.023044
    98  H   -0.054021
    99  H   -0.029166
   100  H   -0.061766
   101  H    0.166423
   102  N   -0.103475
   103  C    0.166814
   104  C    0.064710
   105  O   -0.286518
   106  C   -0.103212
   107  C   -0.009797
   108  C    0.065695
   109  C    0.057554
   110  H    0.111356
   111  H    0.002104
   112  H    0.002161
   113  H   -0.064364
   114  H    0.002347
   115  H    0.025823
   116  H   -0.047381
   117  H    0.016088
   118  H    0.018089
   119  H    0.002507
   120  H   -0.031902
   121  N   -0.164589
   122  C    0.096770
   123  C    0.062326
   124  O   -0.281220
   125  C    0.301252
   126  O   -0.357987
   127  H    0.146625
   128  H   -0.005213
   129  H   -0.006653
   130  H    0.004250
   131  H    0.158687
   132  N   -0.177557
   133  C    0.113737
   134  C    0.059606
   135  O   -0.265260
   136  C    0.049583
   137  H    0.126812
   138  H    0.018879
   139  H   -0.000741
   140  H    0.029148
   141  H   -0.029795
   142  N   -0.155893
   143  C    0.097846
   144  C    0.023591
   145  O   -0.265516
   146  C    0.078512
   147  H    0.119102
   148  H    0.001245
   149  H   -0.000393
   150  H   -0.019014
   151  H    0.035882
   152  N   -0.153820
   153  C    0.200954
   154  C    0.045401
   155  O   -0.288434
   156  C   -0.058410
   157  C    0.106859
   158  C    0.059995
   159  O   -0.369724
   160  O   -0.414741
   161  H    0.118527
   162  H    0.007830
   163  H    0.043485
   164  H   -0.001797
   165  H    0.017480
   166  H    0.005317
   167  N   -0.160969
   168  C    0.146007
   169  H    0.012185
   170  H    0.003139
   171  H    0.025401
   172  H    0.120451
   173  Ca   1.168836
   174  O   -0.359717
   175  H    0.200956
   176  H    0.184810
 Sum of Mulliken charges =  -0.00000

 Dipole moment (field-independent basis, Debye):
    X=             -6.8378    Y=            -49.1086    Z=              0.1032  Tot=             49.5824
 Quadrupole moment (field-independent basis, Debye-Ang):
   XX=           -680.3392   YY=           -534.2109   ZZ=           -382.3029
   XY=             35.3740   XZ=           -101.1438   YZ=            112.6334

 ESP charges:
               1
     1  C   -0.414153
     2  C    0.695223
     3  O   -0.600665
     4  H    0.121377
     5  H    0.141482
     6  H    0.113185
     7  N   -0.584572
     8  C    0.275500
     9  C    0.669033
    10  O   -0.522451
    11  C   -0.357120
    12  C    0.739406
    13  O   -0.594156
    14  O   -0.565588
    15  H    0.321410
    16  H   -0.000402
    17  H    0.089024
    18  H    0.066206
    19  N   -0.866036
    20  C    0.666967
    21  C    0.307445
    22  O   -0.539838
    23  C   -0.300125
    24  C   -0.242933
    25  C    0.439702
    26  C   -0.003795
    27  N   -0.407915
    28  H    0.320240
    29  H   -0.001154
    30  H    0.088946
    31  H    0.075879
    32  H    0.076864
    33  H    0.079614
    34  H   -0.112598
    35  H   -0.087506
    36  H    0.051096
    37  H    0.098243
    38  H    0.338430
    39  H    0.333079
    40  H    0.304976
    41  N   -0.315530
    42  C    0.237204
    43  C    0.453892
    44  O   -0.513647
    45  C   -0.681086
    46  C    0.858299
    47  O   -0.663461
    48  O   -0.684715
    49  H    0.227769
    50  H    0.131672
    51  H    0.206870
    52  H    0.182521
    53  N   -0.277099
    54  C   -0.151988
    55  C    0.694153
    56  O   -0.579800
    57  H    0.197790
    58  H    0.105452
    59  H    0.121427
    60  N   -0.595772
    61  C    0.356738
    62  C    0.486998
    63  O   -0.532838
    64  C   -0.365131
    65  C    0.718896
    66  N   -0.856473
    67  O   -0.541366
    68  H    0.277840
    69  H    0.016039
    70  H    0.099995
    71  H    0.109640
    72  H    0.371754
    73  H    0.418742
    74  N   -0.542654
    75  C    0.099765
    76  C    0.537854
    77  O   -0.498027
    78  H    0.343679
    79  H    0.020695
    80  H    0.066335
    81  N   -0.542515
    82  C    0.361311
    83  C    0.391021
    84  O   -0.485424
    85  C   -0.413126
    86  C    0.264581
    87  C   -0.303750
    88  C   -0.198551
    89  C   -0.150613
    90  C   -0.281686
    91  C    0.363938
    92  O   -0.600375
    93  H    0.270062
    94  H    0.004437
    95  H    0.131805
    96  H    0.101689
    97  H    0.208677
    98  H    0.120935
    99  H    0.128560
   100  H    0.126126
   101  H    0.422225
   102  N    0.191796
   103  C   -0.995235
   104  C    0.911093
   105  O   -0.618554
   106  C    0.432522
   107  C    0.392547
   108  C   -0.366482
   109  C   -0.347728
   110  H    0.120591
   111  H    0.242072
   112  H   -0.022971
   113  H   -0.220453
   114  H   -0.051708
   115  H    0.087145
   116  H    0.058472
   117  H    0.101855
   118  H    0.071146
   119  H    0.072272
   120  H    0.036290
   121  N   -0.348991
   122  C   -0.221697
   123  C    0.655240
   124  O   -0.590331
   125  C    0.225100
   126  O   -0.656375
   127  H    0.161748
   128  H    0.094053
   129  H    0.040205
   130  H    0.035213
   131  H    0.474086
   132  N   -0.536288
   133  C    0.276403
   134  C    0.443549
   135  O   -0.482908
   136  C   -0.419268
   137  H    0.404624
   138  H    0.047035
   139  H    0.147733
   140  H    0.107853
   141  H    0.081295
   142  N   -0.660203
   143  C    0.624453
   144  C   -0.034437
   145  O   -0.454322
   146  C   -0.296755
   147  H    0.346180
   148  H   -0.070483
   149  H    0.059864
   150  H    0.047031
   151  H    0.090513
   152  N    0.712798
   153  C   -1.082801
   154  C    0.783618
   155  O   -0.574130
   156  C    0.681433
   157  C   -0.802743
   158  C    1.039366
   159  O   -0.694667
   160  O   -0.827344
   161  H   -0.305531
   162  H    0.271566
   163  H   -0.094917
   164  H   -0.026853
   165  H    0.176074
   166  H    0.153510
   167  N   -0.290678
   168  C   -0.232952
   169  H    0.086686
   170  H    0.104383
   171  H    0.097288
   172  H    0.249875
   173  Ca   1.176107
   174  O   -0.700799
   175  H    0.365593
   176  H    0.376250
 Sum of ESP charges =   0.00000

 Normal termination of Gaussian 16 at Wed Sep 18 13:02:45 2019.
