 Gaussian 16, Revision A.03,
 Gaussian 16:  ES64L-G16RevA.03 25-Dec-2016

 ----------------------------------------------------------------------
 #b3lyp/svp scf=(tight,noincore) Test #IOP(5/87=12) Density=Current Pop
 =(MK,readradii) iop(6/33=2) iop(6/42=6)
 ----------------------------------------------------------------------

 ----------------
 Ng-31_loop3_44.0
 ----------------
 Symbolic Z-matrix:
 Charge =  0 Multiplicity = 1

                         Standard orientation:
 ---------------------------------------------------------------------
 Center     Atomic      Atomic             Coordinates (Angstroms)
 Number     Number       Type             X           Y           Z
 ---------------------------------------------------------------------
      1          6           0       -5.429931    2.158435    5.138479
      2          6           0       -5.364134    1.649829    3.702829
      3          8           0       -4.351485    1.175944    3.196891
      4          1           0       -4.422835    2.384455    5.489880
      5          1           0       -6.039143    3.061383    5.177550
      6          1           0       -5.872793    1.393310    5.776022
      7          7           0       -6.533613    1.614535    3.062147
      8          6           0       -6.709538    0.969790    1.774608
      9          6           0       -5.842513    1.611578    0.691984
     10          8           0       -4.754042    1.113330    0.444033
     11          6           0       -8.181509    0.885048    1.407702
     12          6           0       -9.171079    2.033592    1.486436
     13          8           0       -8.705556    3.186703    1.628288
     14          8           0      -10.398142    1.820574    1.539726
     15          1           0       -7.352013    2.116955    3.403608
     16          1           0       -6.389355   -0.073186    1.709154
     17          1           0       -8.531598    0.056780    2.039769
     18          1           0       -8.157849    0.549831    0.377959
     19          7           0       -6.330001    2.643055   -0.001493
     20          6           0       -5.646365    3.321670   -1.087598
     21          6           0       -5.898244    2.605027   -2.409218
     22          8           0       -6.749861    2.983129   -3.213201
     23          6           0       -6.041604    4.787815   -1.008188
     24          6           0       -5.166529    5.795785   -1.772150
     25          6           0       -5.800445    7.163587   -1.563660
     26          6           0       -5.070304    8.170696   -2.457597
     27          7           0       -5.666591    9.518405   -2.519441
     28          1           0       -7.243344    2.930268    0.307237
     29          1           0       -4.565815    3.255483   -0.914882
     30          1           0       -5.946364    5.101723    0.024523
     31          1           0       -7.076076    4.938078   -1.311318
     32          1           0       -5.174395    5.458478   -2.800577
     33          1           0       -4.170245    5.826275   -1.336846
     34          1           0       -5.694576    7.380724   -0.506001
     35          1           0       -6.863756    7.067003   -1.809917
     36          1           0       -5.259404    7.840668   -3.484789
     37          1           0       -4.021155    8.222839   -2.165249
     38          1           0       -5.450381   10.041578   -3.347959
     39          1           0       -6.678551    9.476009   -2.513256
     40          1           0       -5.445246   10.116073   -1.738480
     41          7           0       -5.328373    1.399386   -2.526593
     42          6           0       -5.624644    0.318470   -3.438537
     43          6           0       -5.485471   -1.081732   -2.860466
     44          8           0       -5.799443   -2.048744   -3.559543
     45          6           0       -4.658686    0.362866   -4.619830
     46          6           0       -3.213085    0.772390   -4.368774
     47          8           0       -2.724440    0.403204   -3.279358
     48          8           0       -2.571339    1.413352   -5.226346
     49          1           0       -4.584281    1.265920   -1.858226
     50          1           0       -6.654015    0.411109   -3.786982
     51          1           0       -5.029840    1.010931   -5.415101
     52          1           0       -4.529311   -0.657464   -4.965069
     53          7           0       -5.028130   -1.266716   -1.620418
     54          6           0       -4.558176   -2.558977   -1.153401
     55          6           0       -3.871268   -2.404899    0.197715
     56          8           0       -3.566276   -1.326848    0.706032
     57          1           0       -4.999296   -0.543827   -0.921061
     58          1           0       -3.721383   -2.738361   -1.832959
     59          1           0       -5.215517   -3.425325   -1.255600
     60          7           0       -3.377640   -3.477628    0.820760
     61          6           0       -3.582055   -4.888702    0.597190
     62          6           0       -2.429385   -5.698997    1.163736
     63          8           0       -2.468166   -5.988227    2.359119
     64          6           0       -4.916686   -5.364654    1.151474
     65          6           0       -5.323746   -6.749878    0.673607
     66          7           0       -4.719719   -7.831242    1.192069
     67          8           0       -6.157786   -6.881498   -0.215074
     68          1           0       -2.782845   -3.210074    1.589092
     69          1           0       -3.694961   -5.058316   -0.477558
     70          1           0       -5.649612   -4.589946    0.933423
     71          1           0       -4.935501   -5.303743    2.241490
     72          1           0       -4.068625   -7.742092    1.961893
     73          1           0       -4.925349   -8.760927    0.868183
     74          7           0       -1.382602   -6.077857    0.410603
     75          6           0       -0.917077   -5.577271   -0.864270
     76          6           0       -0.078022   -4.315228   -0.719580
     77          8           0       -0.636039   -3.260025   -0.405156
     78          1           0       -0.715051   -6.678451    0.858893
     79          1           0       -1.738045   -5.338039   -1.534553
     80          1           0       -0.331837   -6.369506   -1.324660
     81          7           0        1.234168   -4.461490   -0.900037
     82          6           0        2.171447   -3.359267   -0.783802
     83          6           0        3.045941   -3.272024   -2.036499
     84          8           0        3.177967   -4.242645   -2.771253
     85          6           0        3.100146   -3.559067    0.402367
     86          6           0        2.241082   -3.698762    1.637436
     87          6           0        1.865809   -2.433272    2.104453
     88          6           0        1.710886   -4.865230    2.204836
     89          6           0        1.037242   -2.385467    3.228104
     90          6           0        0.794448   -4.823826    3.264943
     91          6           0        0.451668   -3.551195    3.761846
     92          8           0       -0.411060   -3.377567    4.798887
     93          1           0        1.602719   -5.403134   -0.861605
     94          1           0        1.661939   -2.406027   -0.685134
     95          1           0        3.829013   -2.755761    0.522167
     96          1           0        3.633647   -4.492493    0.226034
     97          1           0        2.351968   -1.574465    1.665135
     98          1           0        1.855921   -5.775879    1.649062
     99          1           0        0.867957   -1.435916    3.720644
    100          1           0        0.429345   -5.733490    3.711945
    101          1           0       -0.674752   -4.160669    5.292768
    102          7           0        3.632767   -2.105413   -2.310824
    103          6           0        4.557413   -1.855765   -3.395861
    104          6           0        6.006208   -1.734815   -2.918719
    105          8           0        6.904003   -2.114156   -3.670360
    106          6           0        4.216171   -0.688148   -4.321023
    107          6           0        4.143409    0.705498   -3.698242
    108          6           0        5.163309   -0.709868   -5.526286
    109          6           0        5.323918    1.660085   -3.536807
    110          1           0        3.439152   -1.330063   -1.689980
    111          1           0        4.516805   -2.765910   -3.990830
    112          1           0        3.227624   -0.904176   -4.713716
    113          1           0        3.703981    0.587418   -2.710436
    114          1           0        3.490534    1.282556   -4.364318
    115          1           0        6.078892   -0.135701   -5.400825
    116          1           0        5.411113   -1.726757   -5.840499
    117          1           0        4.669448   -0.251154   -6.370432
    118          1           0        4.861828    2.562374   -3.142917
    119          1           0        5.935410    1.276956   -2.718156
    120          1           0        5.813125    1.805248   -4.504900
    121          7           0        6.245521   -1.432841   -1.644968
    122          6           0        7.531929   -1.685287   -1.015820
    123          6           0        8.314711   -0.465689   -0.538817
    124          8           0        9.390702   -0.537136    0.048327
    125          6           0        7.423287   -2.771721    0.051165
    126          8           0        6.694932   -3.868945   -0.447333
    127          1           0        5.463528   -1.221704   -1.045963
    128          1           0        8.122208   -2.069289   -1.846912
    129          1           0        6.950337   -2.210193    0.859500
    130          1           0        8.426215   -3.052240    0.379562
    131          1           0        6.263577   -4.244115    0.325441
    132          7           0        7.847172    0.738307   -0.860220
    133          6           0        8.519848    1.938214   -0.392641
    134          6           0        7.505683    2.995432    0.015721
    135          8           0        6.461706    3.172385   -0.624748
    136          6           0        9.406269    2.387682   -1.544091
    137          1           0        6.872017    0.919354   -1.061204
    138          1           0        9.191163    1.817449    0.452197
    139          1           0        8.802655    2.607918   -2.432767
    140          1           0        9.877772    3.348732   -1.336082
    141          1           0       10.098279    1.605669   -1.862018
    142          7           0        7.900737    3.755870    1.037370
    143          6           0        7.273982    4.921170    1.627753
    144          6           0        5.863780    4.710422    2.160684
    145          8           0        5.326819    5.739899    2.558742
    146          6           0        7.364275    6.142680    0.715744
    147          1           0        8.686833    3.352754    1.523734
    148          1           0        7.875122    5.205599    2.498920
    149          1           0        6.508354    6.004924    0.053081
    150          1           0        7.258690    7.075240    1.263543
    151          1           0        8.271903    5.964653    0.139534
    152          7           0        5.254974    3.521261    2.176535
    153          6           0        3.897247    3.294621    2.649517
    154          6           0        3.848664    3.310509    4.170795
    155          8           0        2.921019    3.756576    4.845258
    156          6           0        3.369202    1.971577    2.107647
    157          6           0        3.384973    1.922327    0.583172
    158          6           0        3.109758    0.540286    0.001349
    159          8           0        4.017651   -0.271413   -0.283212
    160          8           0        1.952214    0.292260   -0.387335
    161          1           0        5.710906    2.807457    1.630541
    162          1           0        3.294330    4.128283    2.296106
    163          1           0        2.379728    1.907916    2.542833
    164          1           0        3.988145    1.181136    2.533689
    165          1           0        4.315691    2.295885    0.144516
    166          1           0        2.606403    2.607277    0.268892
    167          7           0        4.905532    2.773550    4.776192
    168          6           0        5.184836    2.808610    6.204079
    169          1           0        5.367372    3.837715    6.512588
    170          1           0        4.330662    2.411354    6.751883
    171          1           0        6.066436    2.204373    6.417170
    172          1           0        5.622201    2.393743    4.168054
    173         20           0       -2.253290    0.870833    1.661770
    174          8           0       -0.499200   -0.664694    0.589984
    175          1           0       -0.517758   -1.540966    0.197170
    176          1           0        0.362583   -0.312783    0.365290
 ---------------------------------------------------------------------

 SCF Done:  E(RB3LYP) =  -5333.36054038     A.U. after   26 cycles

 The electronic state is 1-A.
 Alpha  occ. eigenvalues -- -145.50206 -19.16962 -19.15394 -19.13871 -19.13210
 Alpha  occ. eigenvalues --  -19.13132 -19.12808 -19.12243 -19.12117 -19.11786
 Alpha  occ. eigenvalues --  -19.09870 -19.09183 -19.08983 -19.08457 -19.07892
 Alpha  occ. eigenvalues --  -19.06213 -19.06000 -19.05861 -19.05276 -19.05033
 Alpha  occ. eigenvalues --  -19.01535 -18.99627 -18.99443 -18.99336 -15.56019
 Alpha  occ. eigenvalues --  -14.60079 -14.38956 -14.38349 -14.38065 -14.37640
 Alpha  occ. eigenvalues --  -14.37312 -14.36543 -14.36500 -14.35530 -14.35326
 Alpha  occ. eigenvalues --  -14.33752 -14.33092 -14.32998 -14.31026 -14.30330
 Alpha  occ. eigenvalues --  -12.69645 -12.69602 -12.69541 -10.36653 -10.33101
 Alpha  occ. eigenvalues --  -10.31834 -10.31795 -10.30561 -10.30413 -10.30046
 Alpha  occ. eigenvalues --  -10.28922 -10.28767 -10.28754 -10.27891 -10.27231
 Alpha  occ. eigenvalues --  -10.26649 -10.26376 -10.26034 -10.25789 -10.25413
 Alpha  occ. eigenvalues --  -10.25342 -10.25155 -10.25090 -10.24856 -10.24715
 Alpha  occ. eigenvalues --  -10.23994 -10.23817 -10.23702 -10.23409 -10.23149
 Alpha  occ. eigenvalues --  -10.22927 -10.22608 -10.22306 -10.22260 -10.21735
 Alpha  occ. eigenvalues --  -10.20767 -10.20448 -10.20376 -10.20120 -10.20075
 Alpha  occ. eigenvalues --  -10.20041 -10.19993 -10.19433 -10.19107 -10.19040
 Alpha  occ. eigenvalues --  -10.18928 -10.18897 -10.18472 -10.18193 -10.17854
 Alpha  occ. eigenvalues --  -10.17295 -10.16493 -10.14995 -10.14001 -10.13724
 Alpha  occ. eigenvalues --  -10.12833 -10.11838  -1.92417  -1.19991  -1.19599
 Alpha  occ. eigenvalues --   -1.19221  -1.15439  -1.07885  -1.06582  -1.06096
 Alpha  occ. eigenvalues --   -1.05804  -1.05455  -1.04673  -1.04579  -1.03346
 Alpha  occ. eigenvalues --   -1.02032  -1.01966  -1.01477  -1.01247  -1.00865
 Alpha  occ. eigenvalues --   -1.00222  -0.99737  -0.99462  -0.99444  -0.98159
 Alpha  occ. eigenvalues --   -0.96060  -0.95171  -0.94928  -0.94730  -0.94667
 Alpha  occ. eigenvalues --   -0.94021  -0.93703  -0.93654  -0.93639  -0.91110
 Alpha  occ. eigenvalues --   -0.90770  -0.90589  -0.90289  -0.90111  -0.89744
 Alpha  occ. eigenvalues --   -0.89167  -0.88467  -0.87318  -0.85584  -0.85242
 Alpha  occ. eigenvalues --   -0.83827  -0.83558  -0.80788  -0.80244  -0.80144
 Alpha  occ. eigenvalues --   -0.79736  -0.79340  -0.77695  -0.77065  -0.75996
 Alpha  occ. eigenvalues --   -0.75930  -0.75280  -0.75068  -0.74897  -0.74228
 Alpha  occ. eigenvalues --   -0.73721  -0.73677  -0.73492  -0.72763  -0.72570
 Alpha  occ. eigenvalues --   -0.70295  -0.70008  -0.69836  -0.69357  -0.67359
 Alpha  occ. eigenvalues --   -0.66448  -0.65474  -0.65179  -0.65070  -0.64908
 Alpha  occ. eigenvalues --   -0.63493  -0.63165  -0.63109  -0.62989  -0.62690
 Alpha  occ. eigenvalues --   -0.62074  -0.61607  -0.60834  -0.60514  -0.60297
 Alpha  occ. eigenvalues --   -0.59785  -0.59720  -0.59466  -0.59149  -0.58948
 Alpha  occ. eigenvalues --   -0.58779  -0.58185  -0.57819  -0.57813  -0.56760
 Alpha  occ. eigenvalues --   -0.56467  -0.56118  -0.55980  -0.55832  -0.55276
 Alpha  occ. eigenvalues --   -0.55181  -0.54614  -0.54257  -0.54216  -0.54163
 Alpha  occ. eigenvalues --   -0.53630  -0.53530  -0.53250  -0.52905  -0.52805
 Alpha  occ. eigenvalues --   -0.52360  -0.52149  -0.51583  -0.51280  -0.50817
 Alpha  occ. eigenvalues --   -0.50683  -0.50181  -0.50139  -0.49709  -0.49417
 Alpha  occ. eigenvalues --   -0.49308  -0.48893  -0.48640  -0.48555  -0.48298
 Alpha  occ. eigenvalues --   -0.48153  -0.47975  -0.47619  -0.47384  -0.47093
 Alpha  occ. eigenvalues --   -0.46749  -0.46562  -0.46403  -0.46109  -0.45980
 Alpha  occ. eigenvalues --   -0.45754  -0.45701  -0.45416  -0.45070  -0.44902
 Alpha  occ. eigenvalues --   -0.44814  -0.44684  -0.44584  -0.44174  -0.44100
 Alpha  occ. eigenvalues --   -0.43980  -0.43834  -0.43717  -0.43651  -0.43541
 Alpha  occ. eigenvalues --   -0.43382  -0.43133  -0.42970  -0.42835  -0.42692
 Alpha  occ. eigenvalues --   -0.42408  -0.42341  -0.42223  -0.42101  -0.42007
 Alpha  occ. eigenvalues --   -0.41899  -0.41829  -0.41690  -0.41527  -0.41408
 Alpha  occ. eigenvalues --   -0.41234  -0.40977  -0.40704  -0.40660  -0.40642
 Alpha  occ. eigenvalues --   -0.40277  -0.40164  -0.40120  -0.39888  -0.39638
 Alpha  occ. eigenvalues --   -0.39558  -0.39465  -0.39260  -0.39254  -0.39122
 Alpha  occ. eigenvalues --   -0.38978  -0.38850  -0.38697  -0.38611  -0.38356
 Alpha  occ. eigenvalues --   -0.38335  -0.38176  -0.38074  -0.37724  -0.37392
 Alpha  occ. eigenvalues --   -0.37298  -0.37092  -0.36997  -0.36665  -0.36233
 Alpha  occ. eigenvalues --   -0.36057  -0.35971  -0.35619  -0.35521  -0.35479
 Alpha  occ. eigenvalues --   -0.35215  -0.35108  -0.35032  -0.34975  -0.34555
 Alpha  occ. eigenvalues --   -0.34396  -0.34130  -0.33961  -0.33819  -0.33639
 Alpha  occ. eigenvalues --   -0.33480  -0.33004  -0.32953  -0.32412  -0.32329
 Alpha  occ. eigenvalues --   -0.32162  -0.31858  -0.31160  -0.30996  -0.30882
 Alpha  occ. eigenvalues --   -0.30791  -0.30270  -0.30092  -0.29551  -0.29465
 Alpha  occ. eigenvalues --   -0.29444  -0.28872  -0.28715  -0.28370  -0.28294
 Alpha  occ. eigenvalues --   -0.28285  -0.27898  -0.27414  -0.27157  -0.27045
 Alpha  occ. eigenvalues --   -0.26904  -0.26776  -0.26687  -0.26093  -0.25797
 Alpha  occ. eigenvalues --   -0.25355  -0.24957  -0.24767  -0.24624  -0.24583
 Alpha  occ. eigenvalues --   -0.24453  -0.24109  -0.23831  -0.23514  -0.23233
 Alpha  occ. eigenvalues --   -0.23125  -0.23056  -0.21711  -0.21548  -0.21529
 Alpha  occ. eigenvalues --   -0.20679  -0.19396  -0.18793  -0.18290  -0.16642
 Alpha  occ. eigenvalues --   -0.16051  -0.15782  -0.14118
 Alpha virt. eigenvalues --   -0.12376  -0.12105  -0.05996  -0.05652  -0.02935
 Alpha virt. eigenvalues --   -0.02882  -0.02614  -0.02335  -0.01806  -0.01167
 Alpha virt. eigenvalues --   -0.01000  -0.00621  -0.00540   0.00019   0.00203

 Mulliken charges:
               1
     1  C    0.049543
     2  C    0.079669
     3  O   -0.407266
     4  H    0.019801
     5  H    0.042526
     6  H    0.062801
     7  N   -0.095671
     8  C    0.138266
     9  C    0.040604
    10  O   -0.371724
    11  C   -0.006938
    12  C    0.059829
    13  O   -0.417277
    14  O   -0.333226
    15  H    0.138663
    16  H    0.005771
    17  H    0.011548
    18  H    0.019299
    19  N   -0.080028
    20  C    0.136589
    21  C    0.065531
    22  O   -0.285416
    23  C    0.026208
    24  C   -0.003697
    25  C   -0.048083
    26  C    0.053143
    27  N    0.086052
    28  H    0.117484
    29  H   -0.021722
    30  H   -0.005525
    31  H    0.034022
    32  H    0.048189
    33  H    0.007863
    34  H    0.029597
    35  H    0.036238
    36  H    0.072613
    37  H    0.086868
    38  H    0.188360
    39  H    0.185519
    40  H    0.184419
    41  N   -0.107752
    42  C    0.161893
    43  C    0.042412
    44  O   -0.291525
    45  C    0.065249
    46  C    0.024122
    47  O   -0.383402
    48  O   -0.321672
    49  H    0.118560
    50  H    0.022080
    51  H   -0.016146
    52  H    0.025912
    53  N   -0.160860
    54  C    0.192915
    55  C    0.066618
    56  O   -0.367459
    57  H    0.143805
    58  H    0.057916
    59  H    0.058861
    60  N   -0.083152
    61  C    0.036638
    62  C    0.073271
    63  O   -0.287010
    64  C    0.142199
    65  C   -0.010372
    66  N   -0.060012
    67  O   -0.244661
    68  H    0.124083
    69  H    0.028881
    70  H   -0.003470
    71  H    0.007785
    72  H    0.123732
    73  H    0.124675
    74  N   -0.104183
    75  C    0.195521
    76  C    0.090104
    77  O   -0.315206
    78  H    0.123824
    79  H    0.050322
    80  H    0.018234
    81  N   -0.090282
    82  C    0.062883
    83  C    0.079072
    84  O   -0.287122
    85  C    0.133128
    86  C   -0.039118
    87  C   -0.000649
    88  C   -0.009044
    89  C   -0.014538
    90  C   -0.029531
    91  C    0.166956
    92  O   -0.220768
    93  H    0.122739
    94  H    0.020297
    95  H    0.027490
    96  H   -0.028820
    97  H   -0.013879
    98  H   -0.059673
    99  H   -0.050515
   100  H   -0.037470
   101  H    0.181994
   102  N   -0.149406
   103  C    0.156551
   104  C    0.067892
   105  O   -0.288406
   106  C   -0.063461
   107  C   -0.020400
   108  C    0.081642
   109  C    0.054171
   110  H    0.152984
   111  H    0.018156
   112  H   -0.004605
   113  H   -0.003601
   114  H   -0.008032
   115  H    0.006623
   116  H    0.005063
   117  H   -0.021734
   118  H    0.004031
   119  H   -0.021260
   120  H    0.010765
   121  N   -0.159626
   122  C    0.125998
   123  C    0.047551
   124  O   -0.290924
   125  C    0.198224
   126  O   -0.276467
   127  H    0.127919
   128  H    0.037579
   129  H   -0.024989
   130  H    0.011506
   131  H    0.165543
   132  N   -0.132623
   133  C    0.081763
   134  C    0.041083
   135  O   -0.278174
   136  C    0.082416
   137  H    0.153664
   138  H   -0.011262
   139  H    0.018022
   140  H   -0.012073
   141  H    0.043134
   142  N   -0.131919
   143  C    0.053373
   144  C    0.055252
   145  O   -0.283708
   146  C    0.075444
   147  H    0.126923
   148  H    0.025675
   149  H    0.027074
   150  H    0.041124
   151  H    0.012256
   152  N   -0.129405
   153  C    0.117037
   154  C    0.061769
   155  O   -0.278078
   156  C    0.019053
   157  C    0.104628
   158  C    0.161708
   159  O   -0.418320
   160  O   -0.402240
   161  H    0.126059
   162  H    0.002229
   163  H   -0.014649
   164  H   -0.011831
   165  H    0.020427
   166  H   -0.021846
   167  N   -0.157368
   168  C    0.141299
   169  H    0.031309
   170  H    0.030964
   171  H    0.012872
   172  H    0.101401
   173  Ca   1.365634
   174  O   -0.398508
   175  H    0.206792
   176  H    0.176002
 Sum of Mulliken charges =  -0.00000

 Dipole moment (field-independent basis, Debye):
    X=             -3.0772    Y=             30.2749    Z=             15.9234  Tot=             34.3452
 Quadrupole moment (field-independent basis, Debye-Ang):
   XX=           -759.9384   YY=           -176.3927   ZZ=           -609.7004
   XY=           -142.7225   XZ=             58.5764   YZ=           -133.7981

 ESP charges:
               1
     1  C   -0.371263
     2  C    0.717536
     3  O   -0.678972
     4  H    0.085365
     5  H    0.109410
     6  H    0.143817
     7  N   -0.697183
     8  C    0.646716
     9  C    0.095425
    10  O   -0.380538
    11  C   -0.563158
    12  C    0.845459
    13  O   -0.759792
    14  O   -0.668083
    15  H    0.368944
    16  H   -0.013196
    17  H    0.103469
    18  H    0.105948
    19  N   -0.214817
    20  C    0.072630
    21  C    0.594124
    22  O   -0.538653
    23  C   -0.010101
    24  C   -0.106401
    25  C    0.118916
    26  C   -0.138256
    27  N   -0.193263
    28  H    0.204857
    29  H   -0.002420
    30  H    0.026840
    31  H    0.048258
    32  H    0.026233
    33  H    0.048928
    34  H    0.007062
    35  H    0.021403
    36  H    0.129724
    37  H    0.123040
    38  H    0.297026
    39  H    0.276335
    40  H    0.287647
    41  N   -0.423619
    42  C    0.117670
    43  C    0.451504
    44  O   -0.527073
    45  C   -0.346370
    46  C    0.808158
    47  O   -0.700283
    48  O   -0.653578
    49  H    0.176108
    50  H    0.091985
    51  H    0.067891
    52  H    0.114672
    53  N   -0.275222
    54  C   -0.049656
    55  C    0.633531
    56  O   -0.609537
    57  H    0.186289
    58  H    0.142574
    59  H    0.066424
    60  N   -0.599502
    61  C    0.289043
    62  C    0.438144
    63  O   -0.537761
    64  C   -0.421041
    65  C    0.735417
    66  N   -0.858601
    67  O   -0.549765
    68  H    0.367839
    69  H    0.060798
    70  H    0.127875
    71  H    0.122490
    72  H    0.371969
    73  H    0.394819
    74  N   -0.438471
    75  C   -0.120689
    76  C    0.853844
    77  O   -0.658096
    78  H    0.325277
    79  H    0.074789
    80  H    0.096428
    81  N   -0.822795
    82  C    0.450357
    83  C    0.609573
    84  O   -0.567725
    85  C   -0.444810
    86  C    0.141561
    87  C   -0.123992
    88  C   -0.217536
    89  C   -0.315760
    90  C   -0.263233
    91  C    0.418851
    92  O   -0.595289
    93  H    0.365878
    94  H    0.055651
    95  H    0.178203
    96  H    0.111015
    97  H    0.115185
    98  H    0.135404
    99  H    0.152931
   100  H    0.135488
   101  H    0.429741
   102  N   -0.905944
   103  C    0.650017
   104  C    0.210053
   105  O   -0.534431
   106  C   -0.002433
   107  C    0.122184
   108  C   -0.230332
   109  C   -0.193832
   110  H    0.377262
   111  H   -0.003862
   112  H    0.007241
   113  H   -0.055024
   114  H   -0.007233
   115  H    0.066492
   116  H    0.036308
   117  H    0.049001
   118  H    0.047880
   119  H    0.010180
   120  H    0.055623
   121  N   -0.036401
   122  C    0.106099
   123  C    0.460037
   124  O   -0.549771
   125  C    0.242106
   126  O   -0.560044
   127  H    0.134809
   128  H    0.081814
   129  H   -0.052183
   130  H   -0.013361
   131  H    0.357558
   132  N   -0.456651
   133  C    0.258457
   134  C    0.712254
   135  O   -0.542345
   136  C   -0.296912
   137  H    0.143729
   138  H    0.000519
   139  H    0.076357
   140  H    0.049182
   141  H    0.132330
   142  N   -0.765092
   143  C    0.492277
   144  C    0.170416
   145  O   -0.451365
   146  C   -0.402550
   147  H    0.325774
   148  H    0.019492
   149  H    0.130923
   150  H    0.110357
   151  H    0.114904
   152  N   -0.144773
   153  C   -0.076710
   154  C    0.460510
   155  O   -0.532464
   156  C   -0.017841
   157  C   -0.094305
   158  C    0.773727
   159  O   -0.711234
   160  O   -0.724318
   161  H    0.120241
   162  H    0.110050
   163  H    0.005180
   164  H   -0.002228
   165  H    0.127021
   166  H    0.004991
   167  N   -0.171751
   168  C   -0.311491
   169  H    0.136220
   170  H    0.127172
   171  H    0.119716
   172  H    0.191519
   173  Ca   1.438229
   174  O   -0.820091
   175  H    0.464170
   176  H    0.372607
 Sum of ESP charges =  -0.00000

 Normal termination of Gaussian 16 at Wed Sep 18 19:47:07 2019.
