 Gaussian 16, Revision A.03,
 Gaussian 16:  ES64L-G16RevA.03 25-Dec-2016

 ----------------------------------------------------------------------
 #b3lyp/svp scf=(tight,noincore) Test #IOP(5/87=12) Density=Current Pop
 =(MK,readradii) iop(6/33=2) iop(6/42=6)
 ----------------------------------------------------------------------

 ----------------
 Ng-31_loop3_53.0
 ----------------
 Symbolic Z-matrix:
 Charge =  0 Multiplicity = 1

                         Standard orientation:
 ---------------------------------------------------------------------
 Center     Atomic      Atomic             Coordinates (Angstroms)
 Number     Number       Type             X           Y           Z
 ---------------------------------------------------------------------
      1          6           0        4.401547    0.630561    5.675742
      2          6           0        4.100629    0.769438    4.184983
      3          8           0        3.005042    0.490220    3.703084
      4          1           0        3.886867   -0.245413    6.069691
      5          1           0        5.475778    0.515694    5.820958
      6          1           0        4.056617    1.520564    6.200989
      7          7           0        5.147826    0.969830    3.382847
      8          6           0        5.217550    1.147553    1.941233
      9          6           0        4.966501   -0.119925    1.135147
     10          8           0        3.931759   -0.218789    0.468938
     11          6           0        6.564835    1.796163    1.616535
     12          6           0        7.839424    1.097966    2.080587
     13          8           0        7.759689    0.161364    2.897300
     14          8           0        8.887405    1.509516    1.539050
     15          1           0        6.016822    0.856604    3.871443
     16          1           0        4.403703    1.848077    1.762859
     17          1           0        6.582844    2.810137    2.005934
     18          1           0        6.606245    1.709060    0.526582
     19          7           0        5.960602   -1.016086    1.099662
     20          6           0        5.963120   -2.177942    0.234859
     21          6           0        6.168948   -1.826009   -1.235507
     22          8           0        6.984382   -0.957217   -1.515985
     23          6           0        7.106389   -3.092035    0.671632
     24          6           0        6.927880   -3.745816    2.042291
     25          6           0        7.968760   -4.845059    2.201150
     26          6           0        7.759914   -5.618508    3.506546
     27          7           0        8.661173   -6.759218    3.723601
     28          1           0        6.725971   -0.855207    1.736002
     29          1           0        5.000555   -2.693709    0.291894
     30          1           0        8.028726   -2.518571    0.648552
     31          1           0        7.214834   -3.865954   -0.081886
     32          1           0        5.951722   -4.219118    2.052294
     33          1           0        6.949487   -3.103622    2.926327
     34          1           0        8.951565   -4.378868    2.193435
     35          1           0        7.839809   -5.571735    1.410066
     36          1           0        6.718778   -5.905342    3.629277
     37          1           0        7.965472   -4.892331    4.292048
     38          1           0        8.255750   -7.507138    3.188860
     39          1           0        9.600786   -6.531789    3.449001
     40          1           0        8.835148   -7.079208    4.670775
     41          7           0        5.413302   -2.352928   -2.207288
     42          6           0        5.339242   -1.895940   -3.586953
     43          6           0        4.650292   -0.546831   -3.685710
     44          8           0        4.578599    0.006534   -4.772791
     45          6           0        4.590540   -2.971339   -4.360687
     46          6           0        3.340593   -3.575343   -3.743183
     47          8           0        2.275115   -3.502625   -4.398675
     48          8           0        3.191296   -4.049025   -2.596826
     49          1           0        4.850143   -3.141402   -1.929333
     50          1           0        6.312860   -1.819536   -4.080037
     51          1           0        5.284550   -3.811497   -4.399204
     52          1           0        4.204836   -2.738637   -5.357373
     53          7           0        4.134316    0.060334   -2.616262
     54          6           0        3.552602    1.388528   -2.567157
     55          6           0        4.525959    2.514831   -2.244021
     56          8           0        5.725503    2.434855   -2.524732
     57          1           0        4.270333   -0.346792   -1.698522
     58          1           0        2.851996    1.292824   -1.747283
     59          1           0        2.998150    1.570812   -3.492552
     60          7           0        4.093462    3.693588   -1.781875
     61          6           0        2.774466    4.136339   -1.381476
     62          6           0        2.917683    4.669748    0.034703
     63          8           0        3.515067    5.723870    0.220602
     64          6           0        2.126193    5.158621   -2.308019
     65          6           0        1.785438    4.695538   -3.718423
     66          7           0        1.177696    5.487163   -4.605542
     67          8           0        2.138752    3.578512   -4.108324
     68          1           0        4.816857    4.351393   -1.533095
     69          1           0        2.059454    3.321630   -1.268302
     70          1           0        2.770832    6.034281   -2.245886
     71          1           0        1.231958    5.511814   -1.802946
     72          1           0        0.870677    6.418269   -4.316094
     73          1           0        0.996847    5.132124   -5.532980
     74          7           0        2.214805    4.205752    1.071269
     75          6           0        1.658735    2.875568    1.262044
     76          6           0        0.208893    2.767540    0.811724
     77          8           0       -0.231665    1.717951    0.359208
     78          1           0        2.338055    4.723309    1.928208
     79          1           0        1.718999    2.627561    2.326216
     80          1           0        2.299160    2.168770    0.744943
     81          7           0       -0.567829    3.835049    0.966734
     82          6           0       -1.966151    3.982166    0.591563
     83          6           0       -2.175853    3.809311   -0.909352
     84          8           0       -1.750468    4.665550   -1.668894
     85          6           0       -2.639612    5.215850    1.181456
     86          6           0       -2.713214    5.363492    2.684082
     87          6           0       -2.689131    4.275709    3.559666
     88          6           0       -2.797541    6.676877    3.165028
     89          6           0       -2.904166    4.472369    4.926299
     90          6           0       -2.976814    6.908251    4.535658
     91          6           0       -2.995141    5.792865    5.404956
     92          8           0       -3.169961    5.964704    6.752438
     93          1           0       -0.105728    4.570929    1.474222
     94          1           0       -2.519845    3.116766    0.952542
     95          1           0       -3.675167    5.219238    0.835315
     96          1           0       -2.194800    6.124763    0.791303
     97          1           0       -2.469393    3.311308    3.114418
     98          1           0       -2.710250    7.488765    2.463161
     99          1           0       -2.916441    3.662918    5.636326
    100          1           0       -2.991400    7.914515    4.908379
    101          1           0       -3.196169    6.896842    6.972286
    102          7           0       -2.942824    2.769837   -1.256265
    103          6           0       -3.488144    2.497846   -2.571083
    104          6           0       -4.932753    2.028318   -2.630649
    105          8           0       -5.524157    2.144137   -3.698931
    106          6           0       -2.626330    1.420115   -3.223441
    107          6           0       -1.153689    1.748553   -3.465218
    108          6           0       -2.803126    0.075135   -2.519897
    109          6           0       -0.405375    0.841756   -4.436479
    110          1           0       -3.148259    2.168434   -0.474785
    111          1           0       -3.493329    3.385689   -3.205283
    112          1           0       -2.961637    1.310546   -4.250312
    113          1           0       -0.575528    1.772015   -2.537382
    114          1           0       -1.104282    2.780268   -3.810939
    115          1           0       -3.755443   -0.409337   -2.701223
    116          1           0       -2.133605   -0.668804   -2.974757
    117          1           0       -2.718859    0.149354   -1.441755
    118          1           0       -0.368242    1.371269   -5.389441
    119          1           0        0.643856    0.710490   -4.177860
    120          1           0       -0.758168   -0.191701   -4.438398
    121          7           0       -5.565386    1.575569   -1.544695
    122          6           0       -6.913720    1.046697   -1.675039
    123          6           0       -7.118147   -0.191880   -0.822784
    124          8           0       -6.534981   -0.297651    0.256952
    125          6           0       -7.908373    2.115495   -1.232619
    126          8           0       -7.858425    3.264012   -2.047122
    127          1           0       -5.097978    1.496128   -0.658626
    128          1           0       -7.120795    0.784044   -2.719851
    129          1           0       -7.864326    2.359253   -0.166250
    130          1           0       -8.876535    1.640726   -1.381467
    131          1           0       -7.156537    3.880336   -1.821074
    132          7           0       -8.008535   -1.073865   -1.283123
    133          6           0       -8.354738   -2.248397   -0.519174
    134          6           0       -7.259083   -3.295625   -0.401475
    135          8           0       -6.259380   -3.309472   -1.119667
    136          6           0       -9.566335   -2.861110   -1.219757
    137          1           0       -8.504789   -0.854020   -2.129763
    138          1           0       -8.644624   -1.968438    0.493540
    139          1           0      -10.032213   -3.585318   -0.544051
    140          1           0      -10.381430   -2.172675   -1.432076
    141          1           0       -9.316328   -3.243119   -2.215280
    142          7           0       -7.499341   -4.259816    0.489879
    143          6           0       -6.657024   -5.388372    0.828499
    144          6           0       -5.236022   -5.028098    1.272521
    145          8           0       -4.321014   -5.836097    1.129000
    146          6           0       -6.913326   -6.373316   -0.307808
    147          1           0       -8.391301   -4.196176    0.962488
    148          1           0       -7.071770   -5.855625    1.717184
    149          1           0       -6.518496   -5.950479   -1.232967
    150          1           0       -6.452699   -7.349013   -0.133342
    151          1           0       -7.987303   -6.514560   -0.380078
    152          7           0       -5.035493   -3.850372    1.859079
    153          6           0       -3.799790   -3.579725    2.562775
    154          6           0       -3.960444   -3.441083    4.071804
    155          8           0       -3.001593   -3.838808    4.726188
    156          6           0       -3.226068   -2.307948    1.920805
    157          6           0       -2.656827   -2.287731    0.505158
    158          6           0       -1.659038   -3.375617    0.125395
    159          8           0       -0.911090   -3.892820    0.977378
    160          8           0       -1.570049   -3.735177   -1.075479
    161          1           0       -5.820080   -3.254876    2.055822
    162          1           0       -3.012691   -4.328635    2.450041
    163          1           0       -2.479445   -1.982139    2.643440
    164          1           0       -3.968449   -1.518334    1.855372
    165          1           0       -2.232358   -1.322795    0.260771
    166          1           0       -3.609345   -2.349124   -0.021282
    167          7           0       -5.071553   -2.940870    4.614964
    168          6           0       -5.164442   -2.591475    6.014034
    169          1           0       -5.416072   -3.479552    6.593823
    170          1           0       -4.208300   -2.194335    6.354178
    171          1           0       -5.940126   -1.838329    6.150469
    172          1           0       -5.859152   -2.757985    4.019027
    173         20           0        0.521934   -4.358395   -2.621313
    174          8           0       -1.172724   -2.827287   -3.908651
    175          1           0       -2.040257   -2.798424   -3.527661
    176          1           0       -1.282458   -2.532208   -4.813962
 ---------------------------------------------------------------------

 SCF Done:  E(RB3LYP) =  -5333.36570377     A.U. after   25 cycles

 The electronic state is 1-A.
 Alpha  occ. eigenvalues -- -145.46273 -19.18863 -19.15989 -19.13150 -19.11836
 Alpha  occ. eigenvalues --  -19.10676 -19.08899 -19.08803 -19.08325 -19.07781
 Alpha  occ. eigenvalues --  -19.07659 -19.07112 -19.07109 -19.06949 -19.06313
 Alpha  occ. eigenvalues --  -19.05523 -19.04795 -19.04480 -19.03276 -19.02763
 Alpha  occ. eigenvalues --  -19.02615 -19.01535 -18.98459 -18.95851 -15.52178
 Alpha  occ. eigenvalues --  -14.58901 -14.38079 -14.37308 -14.36003 -14.35494
 Alpha  occ. eigenvalues --  -14.34827 -14.34557 -14.34167 -14.33761 -14.33050
 Alpha  occ. eigenvalues --  -14.31265 -14.30344 -14.30008 -14.28622 -14.28333
 Alpha  occ. eigenvalues --  -12.65816 -12.65758 -12.65665 -10.34262 -10.30000
 Alpha  occ. eigenvalues --  -10.29652 -10.28026 -10.27510 -10.27147 -10.26683
 Alpha  occ. eigenvalues --  -10.26633 -10.26425 -10.26239 -10.26159 -10.26036
 Alpha  occ. eigenvalues --  -10.25833 -10.25149 -10.24604 -10.24323 -10.23804
 Alpha  occ. eigenvalues --  -10.23773 -10.23417 -10.23304 -10.22572 -10.22414
 Alpha  occ. eigenvalues --  -10.22413 -10.22245 -10.22204 -10.22048 -10.21944
 Alpha  occ. eigenvalues --  -10.21752 -10.21070 -10.21029 -10.20628 -10.20586
 Alpha  occ. eigenvalues --  -10.19857 -10.19600 -10.19597 -10.19273 -10.19237
 Alpha  occ. eigenvalues --  -10.19183 -10.19082 -10.18774 -10.18340 -10.17415
 Alpha  occ. eigenvalues --  -10.17394 -10.17162 -10.17004 -10.16828 -10.16528
 Alpha  occ. eigenvalues --  -10.15893 -10.15535 -10.14848 -10.14674 -10.14512
 Alpha  occ. eigenvalues --  -10.14000 -10.10459  -1.88675  -1.16396  -1.16023
 Alpha  occ. eigenvalues --   -1.15290  -1.14179  -1.04960  -1.04796  -1.04608
 Alpha  occ. eigenvalues --   -1.03591  -1.03498  -1.02781  -1.02159  -1.01281
 Alpha  occ. eigenvalues --   -1.01117  -1.00937  -1.00670  -1.00150  -0.99384
 Alpha  occ. eigenvalues --   -0.98991  -0.97615  -0.97407  -0.96580  -0.96280
 Alpha  occ. eigenvalues --   -0.95796  -0.94919  -0.94093  -0.92854  -0.92212
 Alpha  occ. eigenvalues --   -0.91729  -0.91466  -0.91401  -0.91324  -0.90209
 Alpha  occ. eigenvalues --   -0.89669  -0.88685  -0.88278  -0.87581  -0.87154
 Alpha  occ. eigenvalues --   -0.86873  -0.86784  -0.85621  -0.85046  -0.84683
 Alpha  occ. eigenvalues --   -0.82248  -0.81689  -0.80515  -0.80252  -0.78490
 Alpha  occ. eigenvalues --   -0.77845  -0.76318  -0.76040  -0.75454  -0.75163
 Alpha  occ. eigenvalues --   -0.74900  -0.74653  -0.73982  -0.73843  -0.72222
 Alpha  occ. eigenvalues --   -0.71977  -0.71353  -0.71294  -0.70082  -0.68775
 Alpha  occ. eigenvalues --   -0.68606  -0.68294  -0.68029  -0.67717  -0.66682
 Alpha  occ. eigenvalues --   -0.66261  -0.66162  -0.65546  -0.64699  -0.63860
 Alpha  occ. eigenvalues --   -0.62695  -0.62432  -0.62112  -0.61088  -0.60917
 Alpha  occ. eigenvalues --   -0.60287  -0.59892  -0.59291  -0.59019  -0.58930
 Alpha  occ. eigenvalues --   -0.58765  -0.58075  -0.57957  -0.57680  -0.57611
 Alpha  occ. eigenvalues --   -0.57325  -0.56805  -0.56770  -0.56416  -0.55961
 Alpha  occ. eigenvalues --   -0.55101  -0.54704  -0.54643  -0.54369  -0.54014
 Alpha  occ. eigenvalues --   -0.53398  -0.52601  -0.52490  -0.52430  -0.52340
 Alpha  occ. eigenvalues --   -0.51750  -0.51568  -0.50965  -0.50657  -0.50155
 Alpha  occ. eigenvalues --   -0.49968  -0.49842  -0.49743  -0.49314  -0.49011
 Alpha  occ. eigenvalues --   -0.48442  -0.48368  -0.48339  -0.47508  -0.47303
 Alpha  occ. eigenvalues --   -0.47211  -0.47190  -0.47040  -0.46786  -0.46512
 Alpha  occ. eigenvalues --   -0.46295  -0.46063  -0.45699  -0.45595  -0.45583
 Alpha  occ. eigenvalues --   -0.45357  -0.44964  -0.44425  -0.44395  -0.44052
 Alpha  occ. eigenvalues --   -0.43763  -0.43633  -0.43531  -0.43471  -0.43159
 Alpha  occ. eigenvalues --   -0.43083  -0.43002  -0.42840  -0.42820  -0.42633
 Alpha  occ. eigenvalues --   -0.42395  -0.42345  -0.42202  -0.42137  -0.42074
 Alpha  occ. eigenvalues --   -0.41855  -0.41762  -0.41362  -0.41342  -0.41045
 Alpha  occ. eigenvalues --   -0.40996  -0.40751  -0.40587  -0.40579  -0.40500
 Alpha  occ. eigenvalues --   -0.40488  -0.40244  -0.40054  -0.40021  -0.39920
 Alpha  occ. eigenvalues --   -0.39768  -0.39522  -0.39328  -0.39182  -0.38962
 Alpha  occ. eigenvalues --   -0.38913  -0.38546  -0.38391  -0.38318  -0.38197
 Alpha  occ. eigenvalues --   -0.38086  -0.38035  -0.37706  -0.37634  -0.37514
 Alpha  occ. eigenvalues --   -0.37024  -0.36956  -0.36862  -0.36834  -0.36775
 Alpha  occ. eigenvalues --   -0.36744  -0.36508  -0.36397  -0.36175  -0.35693
 Alpha  occ. eigenvalues --   -0.35665  -0.35591  -0.35571  -0.35457  -0.35277
 Alpha  occ. eigenvalues --   -0.35196  -0.35030  -0.34919  -0.34620  -0.34229
 Alpha  occ. eigenvalues --   -0.34073  -0.33982  -0.33766  -0.33664  -0.33256
 Alpha  occ. eigenvalues --   -0.33084  -0.33064  -0.32931  -0.32894  -0.32629
 Alpha  occ. eigenvalues --   -0.32393  -0.32161  -0.31793  -0.31641  -0.31416
 Alpha  occ. eigenvalues --   -0.30748  -0.30706  -0.30460  -0.30283  -0.29435
 Alpha  occ. eigenvalues --   -0.29150  -0.28755  -0.28552  -0.28079  -0.28009
 Alpha  occ. eigenvalues --   -0.27652  -0.27181  -0.26934  -0.26674  -0.26387
 Alpha  occ. eigenvalues --   -0.26144  -0.25951  -0.25753  -0.25645  -0.25188
 Alpha  occ. eigenvalues --   -0.25052  -0.24495  -0.24354  -0.24116  -0.23577
 Alpha  occ. eigenvalues --   -0.23466  -0.23420  -0.23183  -0.22674  -0.22490
 Alpha  occ. eigenvalues --   -0.22382  -0.22117  -0.21953  -0.21855  -0.21665
 Alpha  occ. eigenvalues --   -0.21515  -0.20570  -0.20343  -0.20245  -0.19762
 Alpha  occ. eigenvalues --   -0.19643  -0.18744  -0.18372  -0.17726  -0.17367
 Alpha  occ. eigenvalues --   -0.15155  -0.14802  -0.12310
 Alpha virt. eigenvalues --   -0.10927  -0.07463  -0.05041  -0.04331  -0.01786
 Alpha virt. eigenvalues --   -0.00493  -0.00138   0.00007   0.00215   0.00815
 Alpha virt. eigenvalues --    0.01291   0.01961   0.02194   0.02370   0.02540

 Mulliken charges:
               1
     1  C    0.057018
     2  C   -0.020017
     3  O   -0.301665
     4  H    0.020693
     5  H    0.004208
     6  H    0.023711
     7  N   -0.124426
     8  C    0.152408
     9  C    0.106810
    10  O   -0.304798
    11  C    0.016848
    12  C    0.064605
    13  O   -0.433303
    14  O   -0.350308
    15  H    0.097523
    16  H   -0.044703
    17  H    0.002173
    18  H    0.046833
    19  N   -0.119826
    20  C    0.180140
    21  C   -0.000870
    22  O   -0.243833
    23  C    0.001974
    24  C    0.041414
    25  C   -0.027732
    26  C    0.000894
    27  N    0.095515
    28  H    0.126700
    29  H   -0.018132
    30  H    0.050151
    31  H   -0.017842
    32  H   -0.003107
    33  H    0.046316
    34  H    0.045322
    35  H    0.005600
    36  H    0.076033
    37  H    0.072440
    38  H    0.194091
    39  H    0.186033
    40  H    0.188109
    41  N   -0.158898
    42  C    0.171827
    43  C    0.058252
    44  O   -0.282253
    45  C    0.092934
    46  C    0.081060
    47  O   -0.442862
    48  O   -0.447630
    49  H    0.113285
    50  H    0.028049
    51  H    0.000931
    52  H    0.039994
    53  N   -0.141485
    54  C    0.166694
    55  C    0.037014
    56  O   -0.255773
    57  H    0.126422
    58  H    0.009475
    59  H    0.079292
    60  N   -0.106493
    61  C    0.071295
    62  C    0.054825
    63  O   -0.282229
    64  C    0.075878
    65  C    0.055969
    66  N   -0.040393
    67  O   -0.271721
    68  H    0.125975
    69  H    0.016818
    70  H    0.022130
    71  H    0.014819
    72  H    0.117448
    73  H    0.130349
    74  N   -0.142557
    75  C    0.138082
    76  C    0.030008
    77  O   -0.269006
    78  H    0.122899
    79  H    0.061337
    80  H    0.073997
    81  N   -0.089281
    82  C    0.107350
    83  C    0.069909
    84  O   -0.276669
    85  C    0.151878
    86  C   -0.052026
    87  C   -0.006906
    88  C   -0.023864
    89  C    0.003659
    90  C   -0.025783
    91  C    0.156146
    92  O   -0.200617
    93  H    0.102755
    94  H   -0.043199
    95  H    0.008266
    96  H    0.008902
    97  H   -0.005325
    98  H   -0.029111
    99  H   -0.018554
   100  H   -0.041214
   101  H    0.170131
   102  N   -0.128080
   103  C    0.187609
   104  C    0.027566
   105  O   -0.266261
   106  C   -0.109529
   107  C    0.037214
   108  C    0.057313
   109  C    0.052553
   110  H    0.138744
   111  H    0.018064
   112  H   -0.015646
   113  H    0.016321
   114  H   -0.010114
   115  H   -0.002228
   116  H   -0.032153
   117  H    0.003484
   118  H    0.006635
   119  H    0.023139
   120  H   -0.044732
   121  N   -0.132103
   122  C    0.090097
   123  C    0.083200
   124  O   -0.293707
   125  C    0.277473
   126  O   -0.301766
   127  H    0.103259
   128  H    0.022209
   129  H   -0.006922
   130  H   -0.031433
   131  H    0.174331
   132  N   -0.101969
   133  C    0.074823
   134  C    0.085363
   135  O   -0.251004
   136  C    0.034273
   137  H    0.127656
   138  H    0.002185
   139  H    0.010499
   140  H    0.020950
   141  H    0.032067
   142  N   -0.153599
   143  C    0.051638
   144  C    0.096279
   145  O   -0.260005
   146  C    0.074553
   147  H    0.107747
   148  H    0.015592
   149  H    0.038005
   150  H    0.021511
   151  H   -0.015039
   152  N   -0.119336
   153  C    0.124083
   154  C    0.029766
   155  O   -0.262682
   156  C    0.044323
   157  C    0.031110
   158  C    0.113462
   159  O   -0.343595
   160  O   -0.490955
   161  H    0.099420
   162  H    0.049063
   163  H    0.004021
   164  H   -0.044454
   165  H    0.039858
   166  H    0.003002
   167  N   -0.152454
   168  C    0.138004
   169  H    0.021520
   170  H    0.044030
   171  H    0.007709
   172  H    0.090573
   173  Ca   1.384167
   174  O   -0.296459
   175  H    0.195253
   176  H    0.199298
 Sum of Mulliken charges =  -0.00000

 Dipole moment (field-independent basis, Debye):
    X=             -8.9605    Y=            -30.2348    Z=             12.5284  Tot=             33.9322
 Quadrupole moment (field-independent basis, Debye-Ang):
   XX=           -417.4275   YY=           -318.2168   ZZ=           -524.0305
   XY=           -268.3354   XZ=            109.1725   YZ=            -34.8286

 ESP charges:
               1
     1  C   -0.476650
     2  C    0.678644
     3  O   -0.596174
     4  H    0.133627
     5  H    0.099600
     6  H    0.120861
     7  N   -0.523755
     8  C   -0.090753
     9  C    0.801220
    10  O   -0.588791
    11  C   -0.471738
    12  C    0.809711
    13  O   -0.775386
    14  O   -0.668010
    15  H    0.333255
    16  H    0.177075
    17  H    0.142548
    18  H    0.122243
    19  N   -0.696497
    20  C    0.243894
    21  C    0.422644
    22  O   -0.472659
    23  C   -0.242733
    24  C    0.176621
    25  C   -0.109573
    26  C    0.239488
    27  N   -0.557774
    28  H    0.404414
    29  H    0.023600
    30  H    0.110788
    31  H    0.043257
    32  H   -0.013824
    33  H   -0.002200
    34  H    0.053476
    35  H    0.017697
    36  H    0.028459
    37  H    0.046036
    38  H    0.374844
    39  H    0.359745
    40  H    0.372944
    41  N   -0.387596
    42  C    0.073400
    43  C    0.553503
    44  O   -0.555651
    45  C   -0.205485
    46  C    0.714604
    47  O   -0.720742
    48  O   -0.762595
    49  H    0.233498
    50  H    0.087243
    51  H    0.061181
    52  H    0.085963
    53  N   -0.358787
    54  C   -0.123373
    55  C    0.730948
    56  O   -0.538782
    57  H    0.217965
    58  H    0.081073
    59  H    0.129164
    60  N   -0.672478
    61  C    0.357026
    62  C    0.483916
    63  O   -0.545764
    64  C   -0.211416
    65  C    0.673307
    66  N   -0.827701
    67  O   -0.533702
    68  H    0.319316
    69  H   -0.016782
    70  H    0.073717
    71  H    0.044424
    72  H    0.359155
    73  H    0.397296
    74  N   -0.508965
    75  C    0.092371
    76  C    0.539887
    77  O   -0.510057
    78  H    0.314393
    79  H    0.075006
    80  H   -0.014503
    81  N   -0.509204
    82  C    0.103202
    83  C    0.668779
    84  O   -0.562283
    85  C   -0.199873
    86  C    0.197386
    87  C   -0.272733
    88  C   -0.188278
    89  C   -0.190868
    90  C   -0.307663
    91  C    0.347010
    92  O   -0.548072
    93  H    0.274352
    94  H   -0.009231
    95  H    0.061544
    96  H    0.078622
    97  H    0.171897
    98  H    0.144078
    99  H    0.163119
   100  H    0.154187
   101  H    0.406851
   102  N   -0.543595
   103  C   -0.182449
   104  C    0.716780
   105  O   -0.582200
   106  C    0.194674
   107  C    0.214341
   108  C   -0.322538
   109  C   -0.486070
   110  H    0.349864
   111  H    0.128697
   112  H   -0.024658
   113  H   -0.030016
   114  H   -0.009809
   115  H    0.063445
   116  H    0.067373
   117  H    0.107915
   118  H    0.100659
   119  H    0.154050
   120  H    0.112392
   121  N   -0.627839
   122  C    0.293571
   123  C    0.435495
   124  O   -0.479927
   125  C    0.239812
   126  O   -0.615781
   127  H    0.268211
   128  H    0.045204
   129  H   -0.009631
   130  H    0.000508
   131  H    0.408796
   132  N   -0.703108
   133  C    0.422454
   134  C    0.548702
   135  O   -0.486310
   136  C   -0.431381
   137  H    0.366743
   138  H   -0.004348
   139  H    0.094028
   140  H    0.120340
   141  H    0.126294
   142  N   -0.666199
   143  C    0.350753
   144  C    0.387260
   145  O   -0.486812
   146  C   -0.250268
   147  H    0.311639
   148  H    0.012350
   149  H    0.093794
   150  H    0.052430
   151  H    0.063691
   152  N   -0.308869
   153  C   -0.166530
   154  C    0.564862
   155  O   -0.510365
   156  C    0.207369
   157  C   -0.085659
   158  C    0.798386
   159  O   -0.691264
   160  O   -0.843512
   161  H    0.159389
   162  H    0.158241
   163  H   -0.036061
   164  H   -0.064453
   165  H   -0.011466
   166  H    0.045430
   167  N   -0.395500
   168  C   -0.177122
   169  H    0.088549
   170  H    0.116212
   171  H    0.090940
   172  H    0.297579
   173  Ca   1.593626
   174  O   -0.793183
   175  H    0.395531
   176  H    0.421569
 Sum of ESP charges =   0.00000

 Normal termination of Gaussian 16 at Thu Sep 19 09:55:05 2019.
