 Gaussian 16, Revision A.03,
 Gaussian 16:  ES64L-G16RevA.03 25-Dec-2016

 ----------------------------------------------------------------------
 #b3lyp/svp scf=(tight,noincore) Test #IOP(5/87=12) Density=Current Pop
 =(MK,readradii) iop(6/33=2) iop(6/42=6)
 ----------------------------------------------------------------------

 ----------------
 Ng-31_loop3_18.0
 ----------------
 Symbolic Z-matrix:
 Charge =  0 Multiplicity = 1

                         Standard orientation:
 ---------------------------------------------------------------------
 Center     Atomic      Atomic             Coordinates (Angstroms)
 Number     Number       Type             X           Y           Z
 ---------------------------------------------------------------------
      1          6           0        5.649339   -0.645630    5.275088
      2          6           0        5.312012   -0.142594    3.876744
      3          8           0        4.223510    0.366833    3.624260
      4          1           0        4.749983   -1.045502    5.743533
      5          1           0        6.402647   -1.429830    5.207242
      6          1           0        6.034646    0.178288    5.875324
      7          7           0        6.334841   -0.245814    3.018335
      8          6           0        6.376514    0.099684    1.608124
      9          6           0        5.729668   -0.972539    0.753707
     10          8           0        4.539234   -1.028173    0.466353
     11          6           0        7.755416    0.547317    1.126508
     12          6           0        8.919735   -0.313258    1.611041
     13          8           0        8.782679   -1.527010    1.869540
     14          8           0       10.098477    0.099915    1.581805
     15          1           0        7.072400   -0.822466    3.395799
     16          1           0        5.764565    1.011022    1.591363
     17          1           0        7.819336    1.560744    1.511841
     18          1           0        7.646538    0.552762    0.045991
     19          7           0        6.559406   -1.872435    0.200787
     20          6           0        6.206493   -2.812678   -0.838249
     21          6           0        6.028776   -2.186621   -2.210317
     22          8           0        6.820936   -2.386723   -3.124452
     23          6           0        7.296829   -3.886241   -0.832843
     24          6           0        6.874731   -5.167557   -1.525493
     25          6           0        7.975910   -6.219982   -1.673500
     26          6           0        7.457804   -7.263974   -2.650509
     27          7           0        8.343599   -8.447526   -2.619309
     28          1           0        7.540064   -1.728710    0.413750
     29          1           0        5.283564   -3.347957   -0.607645
     30          1           0        7.314058   -4.173707    0.221892
     31          1           0        8.250473   -3.477741   -1.155010
     32          1           0        6.392388   -5.004416   -2.495302
     33          1           0        6.142422   -5.648385   -0.884768
     34          1           0        8.130370   -6.679249   -0.705091
     35          1           0        8.882265   -5.733153   -2.059918
     36          1           0        7.444241   -6.895606   -3.676238
     37          1           0        6.512120   -7.693538   -2.308520
     38          1           0        8.203000   -9.081098   -3.392496
     39          1           0        9.318954   -8.184754   -2.630844
     40          1           0        8.205804   -8.971685   -1.763932
     41          7           0        5.023592   -1.294996   -2.246506
     42          6           0        4.715255   -0.469987   -3.395064
     43          6           0        4.375570    0.950941   -2.964510
     44          8           0        4.226415    1.787571   -3.851868
     45          6           0        3.788234   -1.162415   -4.394252
     46          6           0        2.684021   -1.974473   -3.734195
     47          8           0        1.614698   -1.439211   -3.371646
     48          8           0        2.755115   -3.222805   -3.767547
     49          1           0        4.534854   -1.068546   -1.395944
     50          1           0        5.683735   -0.340553   -3.878482
     51          1           0        4.475128   -1.823262   -4.913250
     52          1           0        3.244078   -0.555123   -5.119504
     53          7           0        4.009794    1.267656   -1.719319
     54          6           0        3.198103    2.402374   -1.347873
     55          6           0        3.229106    2.585117    0.165680
     56          8           0        3.488385    1.558897    0.792216
     57          1           0        4.027007    0.560304   -0.989692
     58          1           0        2.186233    2.160037   -1.678317
     59          1           0        3.665004    3.296238   -1.765977
     60          7           0        3.055626    3.771289    0.754238
     61          6           0        2.725589    5.021885    0.096908
     62          6           0        1.804271    5.753750    1.068013
     63          8           0        2.007460    5.841843    2.275637
     64          6           0        4.012278    5.770824   -0.234336
     65          6           0        3.609439    7.076425   -0.904877
     66          7           0        4.187571    8.186014   -0.432144
     67          8           0        2.873506    7.173269   -1.888708
     68          1           0        3.464375    3.770893    1.679346
     69          1           0        2.273202    4.796585   -0.868901
     70          1           0        4.635815    5.218809   -0.935107
     71          1           0        4.503486    5.859907    0.737610
     72          1           0        4.822199    8.159075    0.348831
     73          1           0        3.995961    9.064940   -0.894286
     74          7           0        0.674894    6.341505    0.678074
     75          6           0       -0.044609    6.118790   -0.561125
     76          6           0       -0.800506    4.801699   -0.653276
     77          8           0       -0.233250    3.736132   -0.404102
     78          1           0        0.218870    6.804963    1.449533
     79          1           0        0.664001    6.270078   -1.376039
     80          1           0       -0.684935    6.993149   -0.681458
     81          7           0       -2.062677    4.939546   -1.064401
     82          6           0       -3.044865    3.922526   -0.772040
     83          6           0       -4.029027    3.668156   -1.903288
     84          8           0       -4.218537    4.550584   -2.740907
     85          6           0       -3.709809    4.305341    0.557585
     86          6           0       -2.750568    4.226509    1.718077
     87          6           0       -2.343429    2.993926    2.222336
     88          6           0       -2.233140    5.402885    2.281112
     89          6           0       -1.411391    2.901207    3.262965
     90          6           0       -1.285653    5.316093    3.306703
     91          6           0       -0.891147    4.075710    3.848104
     92          8           0        0.182343    3.951615    4.682562
     93          1           0       -2.396962    5.811228   -1.436591
     94          1           0       -2.507593    2.971952   -0.681225
     95          1           0       -4.652403    3.798694    0.765975
     96          1           0       -4.068932    5.307781    0.344408
     97          1           0       -2.689699    2.067816    1.780842
     98          1           0       -2.608104    6.380047    1.981854
     99          1           0       -1.175944    1.918750    3.642891
    100          1           0       -0.798125    6.218632    3.651291
    101          1           0        0.668110    4.784557    4.731933
    102          7           0       -4.631631    2.470186   -1.950592
    103          6           0       -5.463443    1.934640   -3.002913
    104          6           0       -6.792141    1.402903   -2.489574
    105          8           0       -7.730355    1.328363   -3.276657
    106          6           0       -4.690146    1.012583   -3.935074
    107          6           0       -3.960606   -0.229928   -3.409395
    108          6           0       -5.491827    0.835121   -5.214259
    109          6           0       -4.774302   -1.269651   -2.633718
    110          1           0       -4.414550    1.843958   -1.189794
    111          1           0       -5.678756    2.805450   -3.625592
    112          1           0       -3.857747    1.594830   -4.326608
    113          1           0       -3.174193    0.010325   -2.692992
    114          1           0       -3.393961   -0.657585   -4.232635
    115          1           0       -5.904489   -0.176013   -5.265416
    116          1           0       -6.315728    1.542073   -5.216801
    117          1           0       -5.008590    1.056947   -6.166402
    118          1           0       -5.837686   -1.252660   -2.894916
    119          1           0       -4.378679   -2.250961   -2.866771
    120          1           0       -4.745658   -1.056569   -1.556140
    121          7           0       -6.882950    0.958559   -1.235297
    122          6           0       -8.143683    0.799190   -0.545258
    123          6           0       -8.622490   -0.645627   -0.516139
    124          8           0       -9.813026   -0.837386   -0.272108
    125          6           0       -7.941682    1.332054    0.863057
    126          8           0       -7.707088    2.720325    0.846692
    127          1           0       -6.081817    0.860144   -0.617316
    128          1           0       -9.009201    1.351353   -0.917541
    129          1           0       -7.145952    0.860178    1.454620
    130          1           0       -8.810421    1.090273    1.464501
    131          1           0       -7.388177    2.984484    1.710645
    132          7           0       -7.760587   -1.654505   -0.693309
    133          6           0       -7.979309   -3.065475   -0.450156
    134          6           0       -6.752371   -3.736630    0.160071
    135          8           0       -5.632015   -3.518891   -0.285454
    136          6           0       -8.253091   -3.706852   -1.808750
    137          1           0       -6.821697   -1.355769   -0.914312
    138          1           0       -8.792517   -3.271916    0.242213
    139          1           0       -7.479476   -3.514375   -2.560595
    140          1           0       -8.385730   -4.787983   -1.779361
    141          1           0       -9.229854   -3.329045   -2.104715
    142          7           0       -6.959781   -4.783178    0.957452
    143          6           0       -6.106675   -5.930290    1.222112
    144          6           0       -4.707007   -5.637341    1.738164
    145          8           0       -3.943952   -6.610556    1.739479
    146          6           0       -6.127174   -6.878593    0.035984
    147          1           0       -7.888700   -4.850672    1.359640
    148          1           0       -6.532509   -6.553902    2.001710
    149          1           0       -5.167504   -6.810869   -0.474159
    150          1           0       -6.378864   -7.891446    0.362298
    151          1           0       -6.876661   -6.594974   -0.708617
    152          7           0       -4.330232   -4.397301    2.062111
    153          6           0       -2.969247   -4.166452    2.487348
    154          6           0       -2.825730   -4.286573    3.997107
    155          8           0       -1.937035   -4.973078    4.499833
    156          6           0       -2.444747   -2.829388    1.977290
    157          6           0       -2.541144   -2.541302    0.475753
    158          6           0       -1.650081   -1.342422    0.201357
    159          8           0       -2.111516   -0.183081    0.190948
    160          8           0       -0.465095   -1.535749   -0.146968
    161          1           0       -4.982300   -3.642383    1.955778
    162          1           0       -2.257642   -4.871221    2.042917
    163          1           0       -1.403415   -2.669516    2.278898
    164          1           0       -2.907514   -2.019779    2.539145
    165          1           0       -3.566952   -2.441229    0.126320
    166          1           0       -2.007385   -3.421125    0.138687
    167          7           0       -3.758645   -3.697481    4.740438
    168          6           0       -3.917162   -3.765157    6.180019
    169          1           0       -4.295511   -4.748841    6.457532
    170          1           0       -2.953090   -3.598255    6.660366
    171          1           0       -4.622922   -3.000779    6.504339
    172          1           0       -4.510812   -3.253925    4.222361
    173         20           0        2.255817   -0.602970    1.823008
    174          8           0        1.788068   -0.691465   -0.767007
    175          1           0        0.846838   -0.861399   -0.670522
    176          1           0        2.001547   -0.997942   -1.652613
 ---------------------------------------------------------------------

 SCF Done:  E(RB3LYP) =  -5333.30171980     A.U. after   27 cycles

 The electronic state is 1-A.
 Alpha  occ. eigenvalues -- -145.48465 -19.15841 -19.13988 -19.13388 -19.13296
 Alpha  occ. eigenvalues --  -19.12416 -19.11023 -19.10744 -19.10707 -19.09603
 Alpha  occ. eigenvalues --  -19.08701 -19.08618 -19.08609 -19.08381 -19.08346
 Alpha  occ. eigenvalues --  -19.08087 -19.06209 -19.04802 -19.02556 -19.01641
 Alpha  occ. eigenvalues --  -19.01039 -18.98771 -18.98299 -18.97844 -15.54214
 Alpha  occ. eigenvalues --  -14.58580 -14.37470 -14.37446 -14.36933 -14.36527
 Alpha  occ. eigenvalues --  -14.36062 -14.35589 -14.35562 -14.35543 -14.35346
 Alpha  occ. eigenvalues --  -14.35260 -14.35120 -14.34314 -14.32282 -14.31868
 Alpha  occ. eigenvalues --  -12.67839 -12.67781 -12.67766 -10.35145 -10.31357
 Alpha  occ. eigenvalues --  -10.30708 -10.30349 -10.30079 -10.29691 -10.29638
 Alpha  occ. eigenvalues --  -10.28275 -10.27962 -10.27733 -10.27417 -10.27347
 Alpha  occ. eigenvalues --  -10.27239 -10.26823 -10.26768 -10.25709 -10.24883
 Alpha  occ. eigenvalues --  -10.24844 -10.24433 -10.24420 -10.24251 -10.23425
 Alpha  occ. eigenvalues --  -10.23405 -10.23349 -10.22937 -10.22851 -10.22772
 Alpha  occ. eigenvalues --  -10.22275 -10.21957 -10.21753 -10.21604 -10.21597
 Alpha  occ. eigenvalues --  -10.21109 -10.21099 -10.20437 -10.20392 -10.19294
 Alpha  occ. eigenvalues --  -10.19177 -10.19146 -10.18839 -10.18774 -10.18687
 Alpha  occ. eigenvalues --  -10.18531 -10.18265 -10.18183 -10.17592 -10.17547
 Alpha  occ. eigenvalues --  -10.17021 -10.16245 -10.14790 -10.14629 -10.14096
 Alpha  occ. eigenvalues --  -10.13873 -10.12050  -1.90594  -1.18112  -1.17615
 Alpha  occ. eigenvalues --   -1.17461  -1.13961  -1.06495  -1.05610  -1.05466
 Alpha  occ. eigenvalues --   -1.04874  -1.04538  -1.04281  -1.03428  -1.02828
 Alpha  occ. eigenvalues --   -1.02165  -1.01977  -1.01799  -1.01423  -1.01147
 Alpha  occ. eigenvalues --   -1.00884  -1.00822  -0.98549  -0.97173  -0.96048
 Alpha  occ. eigenvalues --   -0.94833  -0.94070  -0.93945  -0.93378  -0.93055
 Alpha  occ. eigenvalues --   -0.92820  -0.92427  -0.92370  -0.92334  -0.92042
 Alpha  occ. eigenvalues --   -0.91764  -0.90980  -0.90831  -0.90778  -0.90044
 Alpha  occ. eigenvalues --   -0.89063  -0.88066  -0.86422  -0.84576  -0.84032
 Alpha  occ. eigenvalues --   -0.82287  -0.81915  -0.80481  -0.79912  -0.79531
 Alpha  occ. eigenvalues --   -0.79371  -0.78055  -0.77838  -0.76993  -0.76481
 Alpha  occ. eigenvalues --   -0.75571  -0.74216  -0.74124  -0.73891  -0.73700
 Alpha  occ. eigenvalues --   -0.73035  -0.72616  -0.72540  -0.72186  -0.71559
 Alpha  occ. eigenvalues --   -0.70694  -0.70122  -0.68737  -0.68175  -0.67894
 Alpha  occ. eigenvalues --   -0.66967  -0.65758  -0.65471  -0.64986  -0.63773
 Alpha  occ. eigenvalues --   -0.63603  -0.62418  -0.61870  -0.61556  -0.61494
 Alpha  occ. eigenvalues --   -0.61011  -0.61007  -0.60589  -0.60235  -0.59844
 Alpha  occ. eigenvalues --   -0.59764  -0.59506  -0.59063  -0.59021  -0.58775
 Alpha  occ. eigenvalues --   -0.58307  -0.57984  -0.57771  -0.57724  -0.57154
 Alpha  occ. eigenvalues --   -0.57015  -0.56776  -0.55837  -0.55746  -0.55477
 Alpha  occ. eigenvalues --   -0.54762  -0.54446  -0.54355  -0.53750  -0.53419
 Alpha  occ. eigenvalues --   -0.53350  -0.53103  -0.52019  -0.51753  -0.51638
 Alpha  occ. eigenvalues --   -0.51379  -0.50712  -0.50694  -0.50512  -0.50146
 Alpha  occ. eigenvalues --   -0.49793  -0.49703  -0.49247  -0.49199  -0.49002
 Alpha  occ. eigenvalues --   -0.48730  -0.48428  -0.48330  -0.48188  -0.47743
 Alpha  occ. eigenvalues --   -0.47569  -0.47528  -0.47452  -0.47174  -0.46581
 Alpha  occ. eigenvalues --   -0.46470  -0.46117  -0.45893  -0.45828  -0.45619
 Alpha  occ. eigenvalues --   -0.45533  -0.45125  -0.44894  -0.44761  -0.44665
 Alpha  occ. eigenvalues --   -0.44525  -0.44261  -0.44207  -0.43895  -0.43720
 Alpha  occ. eigenvalues --   -0.43356  -0.43291  -0.43222  -0.43137  -0.43084
 Alpha  occ. eigenvalues --   -0.42634  -0.42404  -0.42371  -0.42266  -0.42107
 Alpha  occ. eigenvalues --   -0.41961  -0.41687  -0.41496  -0.41473  -0.41281
 Alpha  occ. eigenvalues --   -0.41151  -0.41050  -0.40893  -0.40736  -0.40617
 Alpha  occ. eigenvalues --   -0.40286  -0.40217  -0.40021  -0.39945  -0.39745
 Alpha  occ. eigenvalues --   -0.39724  -0.39548  -0.39408  -0.39260  -0.39179
 Alpha  occ. eigenvalues --   -0.38908  -0.38872  -0.38836  -0.38771  -0.38729
 Alpha  occ. eigenvalues --   -0.38318  -0.38204  -0.37927  -0.37887  -0.37670
 Alpha  occ. eigenvalues --   -0.37605  -0.37481  -0.37288  -0.37007  -0.36935
 Alpha  occ. eigenvalues --   -0.36621  -0.36603  -0.36411  -0.36253  -0.36210
 Alpha  occ. eigenvalues --   -0.36092  -0.35935  -0.35727  -0.35542  -0.35382
 Alpha  occ. eigenvalues --   -0.35048  -0.34953  -0.34566  -0.34467  -0.34142
 Alpha  occ. eigenvalues --   -0.33943  -0.33718  -0.33633  -0.33381  -0.33365
 Alpha  occ. eigenvalues --   -0.32970  -0.32763  -0.31835  -0.31663  -0.31503
 Alpha  occ. eigenvalues --   -0.31305  -0.31154  -0.30896  -0.30205  -0.29825
 Alpha  occ. eigenvalues --   -0.29517  -0.29209  -0.28991  -0.28754  -0.28500
 Alpha  occ. eigenvalues --   -0.28408  -0.28334  -0.28331  -0.28047  -0.27999
 Alpha  occ. eigenvalues --   -0.27802  -0.27587  -0.27253  -0.26874  -0.26748
 Alpha  occ. eigenvalues --   -0.26598  -0.26518  -0.26195  -0.25704  -0.25408
 Alpha  occ. eigenvalues --   -0.25379  -0.25336  -0.25049  -0.24381  -0.24334
 Alpha  occ. eigenvalues --   -0.24294  -0.24098  -0.24028  -0.23504  -0.22954
 Alpha  occ. eigenvalues --   -0.22513  -0.22279  -0.21883  -0.20478  -0.20159
 Alpha  occ. eigenvalues --   -0.19956  -0.19190  -0.17570  -0.17010  -0.15733
 Alpha  occ. eigenvalues --   -0.15631  -0.14276  -0.12425
 Alpha virt. eigenvalues --   -0.10947  -0.10429  -0.05227  -0.04256  -0.02055
 Alpha virt. eigenvalues --   -0.01609  -0.01393  -0.00721  -0.00580  -0.00441
 Alpha virt. eigenvalues --   -0.00342  -0.00123   0.00552   0.00940   0.01058

 Mulliken charges:
               1
     1  C    0.048806
     2  C    0.019499
     3  O   -0.364867
     4  H    0.021482
     5  H    0.031084
     6  H    0.062766
     7  N   -0.117128
     8  C    0.109061
     9  C    0.088946
    10  O   -0.387296
    11  C    0.067974
    12  C    0.023796
    13  O   -0.404160
    14  O   -0.330466
    15  H    0.124244
    16  H    0.008707
    17  H   -0.002158
    18  H    0.025737
    19  N   -0.090127
    20  C    0.070417
    21  C    0.104138
    22  O   -0.281469
    23  C    0.081722
    24  C   -0.026866
    25  C   -0.021856
    26  C    0.031397
    27  N    0.071594
    28  H    0.131150
    29  H    0.015491
    30  H    0.004559
    31  H    0.032038
    32  H    0.049538
    33  H   -0.001429
    34  H    0.013914
    35  H    0.047547
    36  H    0.097532
    37  H    0.069838
    38  H    0.187085
    39  H    0.185773
    40  H    0.187120
    41  N   -0.166397
    42  C    0.099148
    43  C    0.048069
    44  O   -0.292627
    45  C    0.175720
    46  C   -0.004200
    47  O   -0.368870
    48  O   -0.354952
    49  H    0.143753
    50  H    0.009951
    51  H   -0.030691
    52  H    0.018375
    53  N   -0.198785
    54  C    0.229045
    55  C    0.045214
    56  O   -0.367827
    57  H    0.140386
    58  H    0.076676
    59  H    0.022796
    60  N   -0.083481
    61  C    0.018622
    62  C    0.097581
    63  O   -0.299548
    64  C    0.110556
    65  C    0.005843
    66  N   -0.039860
    67  O   -0.260481
    68  H    0.134014
    69  H    0.060815
    70  H    0.056472
    71  H   -0.001343
    72  H    0.118421
    73  H    0.131761
    74  N   -0.114565
    75  C    0.159026
    76  C    0.104179
    77  O   -0.269929
    78  H    0.123400
    79  H    0.059859
    80  H   -0.015045
    81  N   -0.127471
    82  C    0.046421
    83  C    0.096744
    84  O   -0.282956
    85  C    0.152688
    86  C   -0.005749
    87  C    0.021882
    88  C   -0.029131
    89  C   -0.051263
    90  C   -0.047579
    91  C    0.195564
    92  O   -0.216013
    93  H    0.122269
    94  H    0.063312
    95  H   -0.016988
    96  H   -0.029533
    97  H   -0.014688
    98  H   -0.034787
    99  H   -0.042672
   100  H   -0.038208
   101  H    0.182640
   102  N   -0.147006
   103  C    0.135755
   104  C    0.107245
   105  O   -0.252419
   106  C   -0.070474
   107  C    0.014131
   108  C    0.068486
   109  C   -0.041907
   110  H    0.123966
   111  H    0.024352
   112  H   -0.000239
   113  H    0.023912
   114  H    0.006414
   115  H   -0.003947
   116  H    0.006547
   117  H   -0.000841
   118  H    0.015802
   119  H    0.029931
   120  H    0.017595
   121  N   -0.146052
   122  C    0.122031
   123  C    0.051788
   124  O   -0.286208
   125  C    0.196521
   126  O   -0.292703
   127  H    0.124099
   128  H    0.041579
   129  H   -0.031131
   130  H   -0.002462
   131  H    0.171330
   132  N   -0.133121
   133  C    0.122147
   134  C    0.031658
   135  O   -0.266566
   136  C    0.064632
   137  H    0.121154
   138  H   -0.007129
   139  H    0.043875
   140  H   -0.003068
   141  H    0.037713
   142  N   -0.128662
   143  C    0.062587
   144  C    0.068515
   145  O   -0.281616
   146  C    0.071354
   147  H    0.120750
   148  H    0.023998
   149  H    0.042294
   150  H    0.018339
   151  H    0.001703
   152  N   -0.102862
   153  C    0.151725
   154  C    0.043918
   155  O   -0.268923
   156  C   -0.052402
   157  C    0.170634
   158  C    0.046139
   159  O   -0.370158
   160  O   -0.389561
   161  H    0.117916
   162  H    0.021067
   163  H   -0.037513
   164  H   -0.046610
   165  H    0.011713
   166  H   -0.015187
   167  N   -0.153021
   168  C    0.138292
   169  H    0.027214
   170  H    0.033163
   171  H    0.012266
   172  H    0.096035
   173  Ca   1.348249
   174  O   -0.395692
   175  H    0.173505
   176  H    0.172749
 Sum of Mulliken charges =  -0.00000

 Dipole moment (field-independent basis, Debye):
    X=             13.3078    Y=            -20.9150    Z=             11.6119  Tot=             27.3747
 Quadrupole moment (field-independent basis, Debye-Ang):
   XX=           -530.1862   YY=           -249.2061   ZZ=           -585.2685
   XY=           -200.9842   XZ=           -113.1895   YZ=             97.4267

 ESP charges:
               1
     1  C   -0.454868
     2  C    0.649553
     3  O   -0.647772
     4  H    0.106401
     5  H    0.123267
     6  H    0.167074
     7  N   -0.374852
     8  C    0.151003
     9  C    0.328845
    10  O   -0.540767
    11  C   -0.606538
    12  C    0.857495
    13  O   -0.735507
    14  O   -0.677993
    15  H    0.236390
    16  H    0.144517
    17  H    0.140250
    18  H    0.174201
    19  N   -0.390176
    20  C    0.318260
    21  C    0.551468
    22  O   -0.512917
    23  C   -0.366637
    24  C    0.104987
    25  C   -0.037586
    26  C    0.051392
    27  N   -0.294702
    28  H    0.297965
    29  H    0.003638
    30  H    0.099915
    31  H    0.122080
    32  H   -0.011733
    33  H    0.025180
    34  H    0.025188
    35  H    0.050180
    36  H    0.111802
    37  H    0.061997
    38  H    0.308212
    39  H    0.281191
    40  H    0.314798
    41  N   -0.493606
    42  C    0.088642
    43  C    0.543626
    44  O   -0.554527
    45  C   -0.277403
    46  C    0.805532
    47  O   -0.652900
    48  O   -0.698779
    49  H    0.193403
    50  H    0.063619
    51  H    0.070556
    52  H    0.093386
    53  N   -0.470364
    54  C   -0.024830
    55  C    0.609083
    56  O   -0.613367
    57  H    0.319716
    58  H    0.140737
    59  H    0.084655
    60  N   -0.536721
    61  C    0.312357
    62  C    0.587959
    63  O   -0.591202
    64  C   -0.401139
    65  C    0.693315
    66  N   -0.828890
    67  O   -0.519276
    68  H    0.319702
    69  H   -0.029833
    70  H    0.167313
    71  H    0.095466
    72  H    0.376886
    73  H    0.384850
    74  N   -0.585097
    75  C    0.091811
    76  C    0.747778
    77  O   -0.566437
    78  H    0.349517
    79  H    0.024284
    80  H    0.048793
    81  N   -0.814919
    82  C    0.270704
    83  C    0.813031
    84  O   -0.564608
    85  C   -0.153215
    86  C    0.130357
    87  C   -0.279327
    88  C   -0.192051
    89  C   -0.079503
    90  C   -0.252232
    91  C    0.274766
    92  O   -0.555425
    93  H    0.348925
    94  H    0.117294
    95  H    0.028424
    96  H    0.053281
    97  H    0.167826
    98  H    0.127915
    99  H    0.108074
   100  H    0.121756
   101  H    0.432442
   102  N   -1.221232
   103  C    0.772769
   104  C    0.221992
   105  O   -0.522683
   106  C   -0.017534
   107  C   -0.084875
   108  C   -0.215208
   109  C   -0.064897
   110  H    0.382379
   111  H   -0.023485
   112  H    0.033352
   113  H    0.062177
   114  H    0.055700
   115  H    0.034826
   116  H    0.039791
   117  H    0.059097
   118  H    0.026224
   119  H    0.037149
   120  H    0.018767
   121  N    0.114446
   122  C   -0.274197
   123  C    0.587501
   124  O   -0.551931
   125  C    0.279684
   126  O   -0.623582
   127  H    0.158400
   128  H    0.191799
   129  H   -0.028183
   130  H    0.008212
   131  H    0.407450
   132  N   -0.479802
   133  C    0.211689
   134  C    0.587095
   135  O   -0.432558
   136  C   -0.150544
   137  H    0.127571
   138  H    0.022936
   139  H    0.058616
   140  H    0.028891
   141  H    0.082814
   142  N   -0.919908
   143  C    0.549488
   144  C    0.327270
   145  O   -0.494154
   146  C   -0.351512
   147  H    0.387194
   148  H    0.001742
   149  H    0.110168
   150  H    0.073178
   151  H    0.118340
   152  N   -0.416148
   153  C    0.133131
   154  C    0.459475
   155  O   -0.532643
   156  C    0.262091
   157  C   -0.377724
   158  C    1.064995
   159  O   -0.820431
   160  O   -0.890561
   161  H    0.268801
   162  H    0.056472
   163  H   -0.130918
   164  H   -0.114178
   165  H    0.062491
   166  H    0.095624
   167  N   -0.281877
   168  C   -0.228116
   169  H    0.113846
   170  H    0.115400
   171  H    0.099721
   172  H    0.229532
   173  Ca   1.515084
   174  O   -1.025299
   175  H    0.563099
   176  H    0.428382
 Sum of ESP charges =  -0.00000

 Normal termination of Gaussian 16 at Wed Sep 18 14:27:39 2019.
