 Gaussian 16, Revision A.03,
 Gaussian 16:  ES64L-G16RevA.03 25-Dec-2016

 ----------------------------------------------------------------------
 #b3lyp/svp scf=(tight,noincore) Test #IOP(5/87=12) Density=Current Pop
 =(MK,readradii) iop(6/33=2) iop(6/42=6)
 ----------------------------------------------------------------------

 ----------------
 Ng-31_loop3_26.0
 ----------------
 Symbolic Z-matrix:
 Charge =  0 Multiplicity = 1

                         Standard orientation:
 ---------------------------------------------------------------------
 Center     Atomic      Atomic             Coordinates (Angstroms)
 Number     Number       Type             X           Y           Z
 ---------------------------------------------------------------------
      1          6           0        5.462475   -0.079174    5.226639
      2          6           0        5.481441    0.183954    3.726871
      3          8           0        4.490204    0.334524    3.008973
      4          1           0        4.458140    0.095608    5.612893
      5          1           0        5.750179   -1.113276    5.418159
      6          1           0        6.164178    0.591371    5.722894
      7          7           0        6.698211    0.222263    3.181892
      8          6           0        7.062310    0.301547    1.784521
      9          6           0        7.352838   -1.067253    1.182788
     10          8           0        7.379097   -2.061334    1.915053
     11          6           0        8.190964    1.311021    1.591642
     12          6           0        9.428001    1.191779    2.477769
     13          8           0        9.305750    0.613069    3.583278
     14          8           0       10.449635    1.782582    2.088264
     15          1           0        7.474722    0.019328    3.797073
     16          1           0        6.239475    0.836016    1.319134
     17          1           0        7.810756    2.324423    1.732559
     18          1           0        8.545913    1.242506    0.563285
     19          7           0        7.500047   -1.062926   -0.146464
     20          6           0        7.643205   -2.274083   -0.917699
     21          6           0        6.629559   -2.270789   -2.056913
     22          8           0        6.839774   -2.807772   -3.142620
     23          6           0        9.130551   -2.477082   -1.201413
     24          6           0        9.378747   -3.970521   -1.426220
     25          6           0       10.852251   -4.326949   -1.596939
     26          6           0       11.196939   -5.813831   -1.714292
     27          7           0       10.592358   -6.280535   -2.972533
     28          1           0        7.392643   -0.172426   -0.612484
     29          1           0        7.394896   -3.182432   -0.361960
     30          1           0        9.702391   -2.048175   -0.387018
     31          1           0        9.372887   -1.860343   -2.066228
     32          1           0        8.839876   -4.144840   -2.354622
     33          1           0        9.088515   -4.571358   -0.568688
     34          1           0       11.522369   -3.900431   -0.843664
     35          1           0       11.208913   -3.818092   -2.488038
     36          1           0       10.759575   -6.252088   -0.824829
     37          1           0       12.271667   -5.904836   -1.566378
     38          1           0        9.594297   -6.087358   -2.920991
     39          1           0       11.042143   -6.001428   -3.824350
     40          1           0       10.619253   -7.284254   -2.993133
     41          7           0        5.552196   -1.506842   -1.885232
     42          6           0        4.332725   -1.437316   -2.665909
     43          6           0        3.694998   -0.069424   -2.885853
     44          8           0        2.980526    0.183481   -3.854806
     45          6           0        3.312930   -2.388961   -2.046643
     46          6           0        3.069208   -2.212254   -0.552430
     47          8           0        3.510469   -1.174297   -0.020892
     48          8           0        2.284169   -2.991075    0.039983
     49          1           0        5.344381   -1.177465   -0.952803
     50          1           0        4.515656   -1.778627   -3.680425
     51          1           0        3.644369   -3.428593   -2.075161
     52          1           0        2.389490   -2.230814   -2.603464
     53          7           0        4.062004    0.870345   -2.011758
     54          6           0        3.336513    2.111368   -1.849208
     55          6           0        3.192448    2.503169   -0.389674
     56          8           0        3.487702    1.681108    0.486990
     57          1           0        4.495577    0.474404   -1.182936
     58          1           0        2.406163    2.216575   -2.393800
     59          1           0        3.995783    2.872174   -2.271744
     60          7           0        2.738179    3.704838   -0.023433
     61          6           0        2.157883    4.695511   -0.895457
     62          6           0        1.253356    5.608196   -0.080266
     63          8           0        1.787729    6.110170    0.906633
     64          6           0        3.286386    5.466793   -1.579930
     65          6           0        2.772102    6.662295   -2.370175
     66          7           0        2.918140    7.934565   -1.980555
     67          8           0        2.074926    6.459935   -3.362241
     68          1           0        2.796053    3.924265    0.967477
     69          1           0        1.517256    4.237841   -1.636088
     70          1           0        3.863885    4.840757   -2.254817
     71          1           0        3.879504    5.901526   -0.769178
     72          1           0        3.467151    8.324699   -1.224260
     73          1           0        2.564409    8.570837   -2.672388
     74          7           0       -0.014141    5.831782   -0.400987
     75          6           0       -0.761603    5.312276   -1.535144
     76          6           0       -1.383688    3.954926   -1.245469
     77          8           0       -0.876916    3.023070   -0.626497
     78          1           0       -0.429588    6.518570    0.219598
     79          1           0       -0.251255    5.304058   -2.492681
     80          1           0       -1.596676    5.986117   -1.739330
     81          7           0       -2.632296    3.851290   -1.704640
     82          6           0       -3.479783    2.731821   -1.362945
     83          6           0       -4.032572    2.049840   -2.608026
     84          8           0       -4.847442    2.612773   -3.338227
     85          6           0       -4.556652    3.176580   -0.381190
     86          6           0       -4.094274    3.769602    0.934686
     87          6           0       -3.427701    2.874019    1.776476
     88          6           0       -4.292884    5.118381    1.272695
     89          6           0       -2.994997    3.329665    3.028736
     90          6           0       -3.774215    5.591914    2.479239
     91          6           0       -3.233733    4.671493    3.395756
     92          8           0       -2.711340    5.130187    4.572873
     93          1           0       -3.008909    4.659211   -2.173284
     94          1           0       -2.869447    1.933612   -0.940984
     95          1           0       -5.259093    2.367646   -0.150539
     96          1           0       -5.160423    3.973360   -0.821990
     97          1           0       -3.184056    1.871825    1.459705
     98          1           0       -4.601098    5.758767    0.469009
     99          1           0       -2.450478    2.659913    3.683436
    100          1           0       -3.870522    6.647604    2.726514
    101          1           0       -3.056621    6.016389    4.714385
    102          7           0       -3.861957    0.740444   -2.799524
    103          6           0       -4.636737    0.015997   -3.789621
    104          6           0       -6.113515   -0.120682   -3.465820
    105          8           0       -6.884301   -0.454417   -4.356780
    106          6           0       -3.976891   -1.327937   -4.115879
    107          6           0       -4.187390   -2.396456   -3.046413
    108          6           0       -4.323403   -1.925515   -5.475964
    109          6           0       -3.687981   -3.813857   -3.274372
    110          1           0       -3.201711    0.227841   -2.233208
    111          1           0       -4.526090    0.582967   -4.707174
    112          1           0       -2.912173   -1.114333   -4.143218
    113          1           0       -5.279716   -2.421211   -3.043033
    114          1           0       -3.815629   -2.155300   -2.053923
    115          1           0       -4.038348   -1.176144   -6.208553
    116          1           0       -3.702659   -2.807771   -5.649173
    117          1           0       -5.376562   -2.222474   -5.459503
    118          1           0       -4.391691   -4.225924   -4.008601
    119          1           0       -2.694041   -3.694670   -3.701430
    120          1           0       -3.554358   -4.334897   -2.338872
    121          7           0       -6.583070    0.190818   -2.251659
    122          6           0       -7.884192    0.121906   -1.616968
    123          6           0       -8.243202   -1.283485   -1.157634
    124          8           0       -9.351200   -1.547819   -0.695608
    125          6           0       -7.909537    1.063930   -0.423255
    126          8           0       -6.899013    0.712055    0.497139
    127          1           0       -5.866928    0.561663   -1.647991
    128          1           0       -8.663275    0.481845   -2.298051
    129          1           0       -8.888892    1.043325    0.054488
    130          1           0       -7.904669    2.108523   -0.755671
    131          1           0       -7.043529    1.329833    1.217393
    132          7           0       -7.300057   -2.221714   -1.129287
    133          6           0       -7.462951   -3.617759   -0.772184
    134          6           0       -6.397890   -4.103008    0.198578
    135          8           0       -5.237068   -4.314282   -0.166462
    136          6           0       -7.591196   -4.346340   -2.109952
    137          1           0       -6.393730   -2.084868   -1.545753
    138          1           0       -8.382496   -3.753630   -0.211758
    139          1           0       -8.415043   -3.927435   -2.683707
    140          1           0       -6.637608   -4.309422   -2.629766
    141          1           0       -7.788725   -5.397225   -1.897294
    142          7           0       -6.810391   -4.341741    1.442543
    143          6           0       -6.082660   -4.877138    2.586203
    144          6           0       -4.856868   -4.035766    2.938949
    145          8           0       -3.799083   -4.534400    3.324247
    146          6           0       -5.814940   -6.378637    2.517454
    147          1           0       -7.798583   -4.291467    1.625163
    148          1           0       -6.783000   -4.677266    3.399268
    149          1           0       -6.766172   -6.811918    2.197571
    150          1           0       -5.024748   -6.454479    1.768758
    151          1           0       -5.420792   -6.743166    3.468173
    152          7           0       -4.881814   -2.731707    2.682616
    153          6           0       -3.762783   -1.833076    2.887633
    154          6           0       -3.728846   -1.417524    4.354318
    155          8           0       -2.736928   -0.777224    4.693900
    156          6           0       -3.879710   -0.556996    2.049273
    157          6           0       -3.859390   -0.782514    0.544604
    158          6           0       -2.459689   -1.180159    0.096478
    159          8           0       -1.958934   -2.310413    0.335580
    160          8           0       -1.788698   -0.428559   -0.629172
    161          1           0       -5.700409   -2.342241    2.229715
    162          1           0       -2.833800   -2.319808    2.621957
    163          1           0       -2.987095    0.040507    2.261939
    164          1           0       -4.761334   -0.003550    2.368860
    165          1           0       -4.125195    0.148438    0.041538
    166          1           0       -4.604873   -1.542598    0.300008
    167          7           0       -4.779518   -1.591403    5.158590
    168          6           0       -4.887807   -1.332217    6.587574
    169          1           0       -5.549870   -2.070138    7.041375
    170          1           0       -3.901192   -1.399894    7.045941
    171          1           0       -5.295231   -0.333357    6.746652
    172          1           0       -5.607092   -2.004547    4.742255
    173         20           0        2.116916   -0.105642    2.002863
    174          8           0        0.525667   -2.183615    1.765259
    175          1           0        1.062491   -2.851912    1.334215
    176          1           0       -0.369801   -2.489010    1.646213
 ---------------------------------------------------------------------

 SCF Done:  E(RB3LYP) =  -5333.38531267     A.U. after   24 cycles

 The electronic state is 1-A.
 Alpha  occ. eigenvalues -- -145.47457 -19.16013 -19.15349 -19.13629 -19.11636
 Alpha  occ. eigenvalues --  -19.10971 -19.10471 -19.10333 -19.10296 -19.09881
 Alpha  occ. eigenvalues --  -19.08867 -19.08812 -19.08632 -19.07543 -19.07503
 Alpha  occ. eigenvalues --  -19.07120 -19.07013 -19.06529 -19.06502 -19.05005
 Alpha  occ. eigenvalues --  -18.99806 -18.98868 -18.97381 -18.96279 -15.53225
 Alpha  occ. eigenvalues --  -14.59308 -14.38592 -14.38578 -14.36759 -14.35970
 Alpha  occ. eigenvalues --  -14.35906 -14.35519 -14.35126 -14.34591 -14.33940
 Alpha  occ. eigenvalues --  -14.33621 -14.33286 -14.33260 -14.32511 -14.31824
 Alpha  occ. eigenvalues --  -12.66850 -12.66819 -12.66752 -10.35531 -10.32366
 Alpha  occ. eigenvalues --  -10.30685 -10.29975 -10.29409 -10.28628 -10.28413
 Alpha  occ. eigenvalues --  -10.27643 -10.27295 -10.27289 -10.27235 -10.26697
 Alpha  occ. eigenvalues --  -10.26221 -10.26110 -10.25781 -10.25777 -10.25440
 Alpha  occ. eigenvalues --  -10.25394 -10.25323 -10.24915 -10.24830 -10.24766
 Alpha  occ. eigenvalues --  -10.24523 -10.24106 -10.23339 -10.23075 -10.22081
 Alpha  occ. eigenvalues --  -10.22004 -10.21976 -10.21871 -10.21672 -10.21669
 Alpha  occ. eigenvalues --  -10.20166 -10.20109 -10.19744 -10.19347 -10.19297
 Alpha  occ. eigenvalues --  -10.19192 -10.18915 -10.18540 -10.18400 -10.18343
 Alpha  occ. eigenvalues --  -10.18216 -10.17283 -10.17053 -10.16888 -10.16888
 Alpha  occ. eigenvalues --  -10.16534 -10.16015 -10.14260 -10.14038 -10.14006
 Alpha  occ. eigenvalues --  -10.13462 -10.13313  -1.89557  -1.17069  -1.16769
 Alpha  occ. eigenvalues --   -1.16282  -1.14621  -1.06609  -1.05164  -1.04802
 Alpha  occ. eigenvalues --   -1.03738  -1.03645  -1.03587  -1.02979  -1.02821
 Alpha  occ. eigenvalues --   -1.02013  -1.01630  -1.01243  -1.01095  -1.01050
 Alpha  occ. eigenvalues --   -1.00812  -1.00480  -0.99655  -0.99486  -0.96422
 Alpha  occ. eigenvalues --   -0.95487  -0.94596  -0.94471  -0.93844  -0.92462
 Alpha  occ. eigenvalues --   -0.92356  -0.92233  -0.91775  -0.91028  -0.90979
 Alpha  occ. eigenvalues --   -0.90790  -0.90563  -0.90389  -0.89903  -0.89470
 Alpha  occ. eigenvalues --   -0.89300  -0.88963  -0.88860  -0.84671  -0.83257
 Alpha  occ. eigenvalues --   -0.83026  -0.82059  -0.80428  -0.79189  -0.78557
 Alpha  occ. eigenvalues --   -0.78223  -0.78080  -0.76970  -0.76604  -0.75925
 Alpha  occ. eigenvalues --   -0.75406  -0.75336  -0.74863  -0.74680  -0.74346
 Alpha  occ. eigenvalues --   -0.74052  -0.72188  -0.72128  -0.71135  -0.70924
 Alpha  occ. eigenvalues --   -0.70809  -0.70162  -0.69139  -0.67686  -0.67245
 Alpha  occ. eigenvalues --   -0.66399  -0.66049  -0.65043  -0.64588  -0.64467
 Alpha  occ. eigenvalues --   -0.63628  -0.62921  -0.62381  -0.62304  -0.62025
 Alpha  occ. eigenvalues --   -0.61832  -0.60521  -0.60131  -0.59876  -0.59812
 Alpha  occ. eigenvalues --   -0.59723  -0.59297  -0.58411  -0.58129  -0.58054
 Alpha  occ. eigenvalues --   -0.57874  -0.57603  -0.57334  -0.56834  -0.56460
 Alpha  occ. eigenvalues --   -0.56179  -0.55745  -0.55642  -0.55325  -0.54917
 Alpha  occ. eigenvalues --   -0.54781  -0.54268  -0.53781  -0.53537  -0.52915
 Alpha  occ. eigenvalues --   -0.52834  -0.52715  -0.52484  -0.52126  -0.51202
 Alpha  occ. eigenvalues --   -0.50967  -0.50800  -0.50584  -0.50055  -0.49877
 Alpha  occ. eigenvalues --   -0.49621  -0.49239  -0.49181  -0.49078  -0.48829
 Alpha  occ. eigenvalues --   -0.48326  -0.48129  -0.47949  -0.47549  -0.47312
 Alpha  occ. eigenvalues --   -0.47138  -0.47039  -0.47022  -0.46868  -0.46482
 Alpha  occ. eigenvalues --   -0.46128  -0.46008  -0.45892  -0.45273  -0.45101
 Alpha  occ. eigenvalues --   -0.45009  -0.44827  -0.44721  -0.44609  -0.44528
 Alpha  occ. eigenvalues --   -0.44331  -0.44267  -0.43837  -0.43599  -0.43463
 Alpha  occ. eigenvalues --   -0.43332  -0.43244  -0.43041  -0.42998  -0.42584
 Alpha  occ. eigenvalues --   -0.42476  -0.42242  -0.42167  -0.41889  -0.41771
 Alpha  occ. eigenvalues --   -0.41632  -0.41482  -0.41371  -0.41279  -0.41259
 Alpha  occ. eigenvalues --   -0.41119  -0.40926  -0.40682  -0.40570  -0.40559
 Alpha  occ. eigenvalues --   -0.40476  -0.40392  -0.40273  -0.40183  -0.40108
 Alpha  occ. eigenvalues --   -0.39788  -0.39270  -0.39222  -0.39047  -0.38965
 Alpha  occ. eigenvalues --   -0.38887  -0.38743  -0.38607  -0.38488  -0.38456
 Alpha  occ. eigenvalues --   -0.38236  -0.38084  -0.37987  -0.37826  -0.37679
 Alpha  occ. eigenvalues --   -0.37482  -0.37405  -0.37386  -0.37000  -0.36820
 Alpha  occ. eigenvalues --   -0.36597  -0.36542  -0.36515  -0.36218  -0.36048
 Alpha  occ. eigenvalues --   -0.35880  -0.35423  -0.35406  -0.35162  -0.35026
 Alpha  occ. eigenvalues --   -0.34904  -0.34844  -0.34665  -0.34601  -0.34513
 Alpha  occ. eigenvalues --   -0.34142  -0.34041  -0.33892  -0.33862  -0.33393
 Alpha  occ. eigenvalues --   -0.33179  -0.32939  -0.32835  -0.32768  -0.31992
 Alpha  occ. eigenvalues --   -0.30296  -0.30063  -0.29921  -0.29661  -0.29618
 Alpha  occ. eigenvalues --   -0.29182  -0.28886  -0.28866  -0.28699  -0.28502
 Alpha  occ. eigenvalues --   -0.28312  -0.27791  -0.27679  -0.27577  -0.27532
 Alpha  occ. eigenvalues --   -0.27266  -0.26930  -0.26674  -0.26613  -0.26104
 Alpha  occ. eigenvalues --   -0.25949  -0.25859  -0.25789  -0.25577  -0.25442
 Alpha  occ. eigenvalues --   -0.25370  -0.25030  -0.24971  -0.24729  -0.24374
 Alpha  occ. eigenvalues --   -0.23860  -0.23855  -0.23736  -0.23354  -0.23292
 Alpha  occ. eigenvalues --   -0.22890  -0.22811  -0.22510  -0.21872  -0.21516
 Alpha  occ. eigenvalues --   -0.21399  -0.21353  -0.17656  -0.17042  -0.14666
 Alpha  occ. eigenvalues --   -0.14506  -0.13873  -0.12845
 Alpha virt. eigenvalues --   -0.10609  -0.07623  -0.05121  -0.04017  -0.02424
 Alpha virt. eigenvalues --   -0.02146  -0.01552  -0.00351  -0.00046   0.00463
 Alpha virt. eigenvalues --    0.00906   0.01291   0.01765   0.01835   0.01905

 Mulliken charges:
               1
     1  C    0.038417
     2  C    0.064345
     3  O   -0.421854
     4  H   -0.002052
     5  H    0.058776
     6  H    0.059240
     7  N   -0.090307
     8  C    0.112027
     9  C    0.118889
    10  O   -0.266905
    11  C    0.009921
    12  C    0.056190
    13  O   -0.404910
    14  O   -0.376828
    15  H    0.118616
    16  H   -0.002001
    17  H    0.002072
    18  H   -0.043771
    19  N   -0.164008
    20  C    0.101625
    21  C    0.052340
    22  O   -0.293055
    23  C    0.101262
    24  C   -0.052428
    25  C   -0.059263
    26  C    0.041178
    27  N    0.093111
    28  H    0.130524
    29  H    0.027668
    30  H    0.039987
    31  H    0.002410
    32  H    0.013446
    33  H    0.024186
    34  H    0.055722
    35  H    0.008891
    36  H    0.078797
    37  H    0.085648
    38  H    0.197330
    39  H    0.195479
    40  H    0.179440
    41  N   -0.139466
    42  C    0.110706
    43  C    0.055083
    44  O   -0.264114
    45  C    0.057579
    46  C    0.114848
    47  O   -0.470952
    48  O   -0.365796
    49  H    0.148499
    50  H    0.012872
    51  H    0.013872
    52  H    0.057155
    53  N   -0.151307
    54  C    0.216379
    55  C    0.027546
    56  O   -0.351721
    57  H    0.135153
    58  H    0.074428
    59  H    0.023041
    60  N   -0.082771
    61  C    0.065461
    62  C    0.048430
    63  O   -0.283381
    64  C    0.154254
    65  C   -0.031273
    66  N   -0.046293
    67  O   -0.282436
    68  H    0.137104
    69  H    0.016587
    70  H    0.038518
    71  H   -0.004250
    72  H    0.128092
    73  H    0.127362
    74  N   -0.090347
    75  C    0.167073
    76  C    0.054605
    77  O   -0.269684
    78  H    0.139561
    79  H    0.077562
    80  H   -0.001477
    81  N   -0.137456
    82  C    0.148232
    83  C    0.036096
    84  O   -0.300916
    85  C    0.138150
    86  C   -0.067047
    87  C    0.006546
    88  C    0.004131
    89  C   -0.038495
    90  C   -0.063090
    91  C    0.174381
    92  O   -0.201175
    93  H    0.110528
    94  H    0.035088
    95  H   -0.011293
    96  H   -0.030262
    97  H   -0.002996
    98  H   -0.039193
    99  H   -0.014091
   100  H   -0.037556
   101  H    0.170188
   102  N   -0.162049
   103  C    0.198981
   104  C    0.029732
   105  O   -0.269885
   106  C   -0.103378
   107  C   -0.126020
   108  C    0.080446
   109  C    0.059918
   110  H    0.140700
   111  H    0.011085
   112  H   -0.002294
   113  H    0.012722
   114  H    0.047019
   115  H   -0.005985
   116  H   -0.001135
   117  H    0.023982
   118  H    0.003622
   119  H    0.000529
   120  H    0.042431
   121  N   -0.146095
   122  C    0.154439
   123  C    0.067505
   124  O   -0.297037
   125  C    0.172239
   126  O   -0.281826
   127  H    0.145022
   128  H    0.029325
   129  H    0.006313
   130  H    0.009436
   131  H    0.180588
   132  N   -0.139462
   133  C    0.089456
   134  C    0.076660
   135  O   -0.248538
   136  C    0.058922
   137  H    0.138922
   138  H   -0.023200
   139  H    0.035720
   140  H    0.039335
   141  H   -0.005136
   142  N   -0.148121
   143  C    0.063129
   144  C    0.052150
   145  O   -0.260463
   146  C    0.095414
   147  H    0.123592
   148  H   -0.011311
   149  H   -0.004727
   150  H    0.052207
   151  H    0.028767
   152  N   -0.152581
   153  C    0.165211
   154  C    0.062963
   155  O   -0.308417
   156  C   -0.045584
   157  C    0.118183
   158  C    0.030420
   159  O   -0.389834
   160  O   -0.356426
   161  H    0.111155
   162  H    0.023164
   163  H    0.023990
   164  H   -0.036090
   165  H   -0.037768
   166  H   -0.011332
   167  N   -0.147863
   168  C    0.133104
   169  H    0.014585
   170  H    0.039068
   171  H    0.021265
   172  H    0.099606
   173  Ca   1.468526
   174  O   -0.373715
   175  H    0.181903
   176  H    0.196398
 Sum of Mulliken charges =  -0.00000

 Dipole moment (field-independent basis, Debye):
    X=             16.4711    Y=            -11.1930    Z=             -5.1171  Tot=             20.5613
 Quadrupole moment (field-independent basis, Debye-Ang):
   XX=           -408.1386   YY=           -346.9237   ZZ=           -579.2336
   XY=           -287.3884   XZ=           -251.4507   YZ=             59.3210

 ESP charges:
               1
     1  C   -0.441605
     2  C    0.741823
     3  O   -0.795201
     4  H    0.098014
     5  H    0.132016
     6  H    0.143116
     7  N   -0.406007
     8  C   -0.023093
     9  C    0.616178
    10  O   -0.551368
    11  C   -0.303358
    12  C    0.762140
    13  O   -0.718892
    14  O   -0.699488
    15  H    0.291543
    16  H    0.158375
    17  H    0.098945
    18  H    0.002254
    19  N   -0.389553
    20  C    0.182311
    21  C    0.572645
    22  O   -0.550246
    23  C   -0.100643
    24  C   -0.050630
    25  C    0.140126
    26  C   -0.072440
    27  N   -0.347578
    28  H    0.245771
    29  H    0.010535
    30  H    0.062226
    31  H    0.042852
    32  H   -0.028385
    33  H    0.044076
    34  H    0.028970
    35  H   -0.020570
    36  H    0.102472
    37  H    0.104300
    38  H    0.321159
    39  H    0.357107
    40  H    0.319112
    41  N   -0.523215
    42  C    0.138939
    43  C    0.630503
    44  O   -0.553196
    45  C   -0.268087
    46  C    0.906787
    47  O   -0.885545
    48  O   -0.733299
    49  H    0.230451
    50  H    0.057644
    51  H    0.068188
    52  H    0.090846
    53  N   -0.581357
    54  C    0.198849
    55  C    0.628270
    56  O   -0.608119
    57  H    0.263683
    58  H    0.069041
    59  H    0.049605
    60  N   -0.660806
    61  C    0.296466
    62  C    0.461198
    63  O   -0.534553
    64  C   -0.380076
    65  C    0.698387
    66  N   -0.809234
    67  O   -0.569864
    68  H    0.373632
    69  H   -0.009962
    70  H    0.119485
    71  H    0.118344
    72  H    0.383573
    73  H    0.368511
    74  N   -0.422739
    75  C   -0.049972
    76  C    0.747221
    77  O   -0.589994
    78  H    0.315146
    79  H    0.096888
    80  H    0.075680
    81  N   -0.802913
    82  C    0.456438
    83  C    0.514558
    84  O   -0.582439
    85  C   -0.216424
    86  C    0.124999
    87  C   -0.174784
    88  C   -0.216005
    89  C   -0.185012
    90  C   -0.255338
    91  C    0.281480
    92  O   -0.520316
    93  H    0.342414
    94  H    0.019726
    95  H    0.067424
    96  H    0.035533
    97  H    0.134208
    98  H    0.148403
    99  H    0.159362
   100  H    0.131927
   101  H    0.393366
   102  N   -0.331951
   103  C   -0.224951
   104  C    0.500562
   105  O   -0.547873
   106  C    0.232514
   107  C    0.163991
   108  C   -0.407361
   109  C   -0.497792
   110  H    0.172279
   111  H    0.167670
   112  H    0.013465
   113  H    0.076232
   114  H    0.052217
   115  H    0.086065
   116  H    0.100776
   117  H    0.101963
   118  H    0.095803
   119  H    0.104066
   120  H    0.163297
   121  N    0.003225
   122  C   -0.291178
   123  C    0.613179
   124  O   -0.577752
   125  C    0.150413
   126  O   -0.481638
   127  H    0.026892
   128  H    0.157203
   129  H    0.043855
   130  H    0.040826
   131  H    0.371187
   132  N   -0.273168
   133  C    0.144529
   134  C    0.606214
   135  O   -0.494087
   136  C   -0.293154
   137  H   -0.002412
   138  H    0.027609
   139  H    0.120493
   140  H    0.087487
   141  H    0.059135
   142  N   -0.655553
   143  C    0.523960
   144  C    0.220629
   145  O   -0.464285
   146  C   -0.463396
   147  H    0.311265
   148  H   -0.031313
   149  H    0.103717
   150  H    0.161277
   151  H    0.116244
   152  N   -0.250442
   153  C   -0.083295
   154  C    0.509227
   155  O   -0.562348
   156  C   -0.128047
   157  C    0.300355
   158  C    0.603915
   159  O   -0.642628
   160  O   -0.671811
   161  H    0.175783
   162  H    0.124866
   163  H    0.058162
   164  H   -0.004156
   165  H   -0.154196
   166  H   -0.068483
   167  N   -0.237974
   168  C   -0.171937
   169  H    0.087085
   170  H    0.109268
   171  H    0.073942
   172  H    0.210773
   173  Ca   1.742126
   174  O   -1.031714
   175  H    0.481888
   176  H    0.504332
 Sum of ESP charges =   0.00000

 Normal termination of Gaussian 16 at Wed Sep 18 14:41:55 2019.
