 Gaussian 16, Revision C.01,
 Gaussian 16:  ES64L-G16RevC.01  3-Jul-2019

 ----------------------------------------------------------------------
 #b3lyp/svp scf=(tight,noincore,xqc) Test #IOP(5/87=12) Density=Current
  Pop=(MK,readradii) iop(6/33=2) iop(6/42=6)
 ----------------------------------------------------------------------

 ----------------------------
 holoCaM.loop2.water1.frame19
 ----------------------------
 Symbolic Z-matrix:
 Charge = -2 Multiplicity = 1

                         Standard orientation:
 ---------------------------------------------------------------------
 Center     Atomic      Atomic             Coordinates (Angstroms)
 Number     Number       Type             X           Y           Z
 ---------------------------------------------------------------------
      1          6           0        0.270596    3.493542    5.797636
      2          6           0       -0.196056    3.397539    4.311561
      3          8           0        0.605003    3.589708    3.375091
      4          1           0        0.762516    2.564126    6.083638
      5          1           0        0.969221    4.323463    5.906924
      6          1           0       -0.594113    3.659610    6.440615
      7          7           0       -1.444328    3.012536    4.046816
      8          6           0       -2.079991    2.948341    2.751590
      9          6           0       -2.079155    4.337292    2.089084
     10          8           0       -2.549719    5.314861    2.694665
     11          6           0       -3.520436    2.369408    2.894964
     12          6           0       -4.212305    2.450930    1.596938
     13          8           0       -5.323471    3.011522    1.575814
     14          8           0       -3.630400    2.047072    0.541624
     15          1           0       -2.083719    2.892002    4.823186
     16          1           0       -1.520058    2.263805    2.101908
     17          1           0       -3.936744    2.930380    3.731204
     18          1           0       -3.533432    1.353236    3.272886
     19          7           0       -1.873617    4.338652    0.748206
     20          6           0       -2.134391    5.466530   -0.106656
     21          6           0       -3.325773    5.249583   -1.053251
     22          8           0       -3.670168    6.258430   -1.709772
     23          6           0       -0.904357    5.807017   -0.864010
     24          1           0       -1.575901    3.522818    0.243449
     25          1           0       -2.470052    6.267988    0.554478
     26          1           0       -0.625205    4.961341   -1.477693
     27          1           0       -1.078636    6.615387   -1.582734
     28          1           0       -0.019322    6.093311   -0.301917
     29          7           0       -3.944872    4.044519   -1.267579
     30          6           0       -4.809376    3.642721   -2.467117
     31          6           0       -5.981336    2.694089   -2.095623
     32          8           0       -6.920247    2.516733   -2.906974
     33          6           0       -3.970998    2.976280   -3.550205
     34          6           0       -3.132926    1.766553   -3.114662
     35          8           0       -3.632811    0.826343   -2.438630
     36          8           0       -1.943753    1.733050   -3.514718
     37          1           0       -3.636471    3.292177   -0.682540
     38          1           0       -5.308336    4.526746   -2.873979
     39          1           0       -3.379627    3.766721   -3.999744
     40          1           0       -4.678921    2.558998   -4.270011
     41          7           0       -6.081269    2.033097   -0.917021
     42          6           0       -7.298205    1.355205   -0.481670
     43          6           0       -7.361088   -0.135704   -0.951178
     44          8           0       -8.328119   -0.875056   -0.730700
     45          1           0       -5.404137    2.231567   -0.180678
     46          1           0       -8.170163    1.877252   -0.881863
     47          1           0       -7.361835    1.348901    0.610535
     48          7           0       -6.367026   -0.564491   -1.720126
     49          6           0       -6.202570   -1.954467   -2.214719
     50          6           0       -6.076727   -2.991388   -1.060658
     51          8           0       -5.814821   -4.170985   -1.420178
     52          6           0       -4.944570   -2.049019   -3.173466
     53          6           0       -3.589902   -2.164346   -2.582303
     54          7           0       -2.649233   -2.185007   -3.468652
     55          8           0       -3.348272   -2.087852   -1.380278
     56          1           0       -5.586658    0.017106   -1.974821
     57          1           0       -7.005505   -2.231938   -2.894208
     58          1           0       -4.942544   -1.224651   -3.884391
     59          1           0       -5.059672   -2.848661   -3.906080
     60          1           0       -2.867876   -1.965195   -4.426189
     61          1           0       -1.685114   -2.025149   -3.216817
     62          7           0       -6.279798   -2.667345    0.236554
     63          6           0       -6.346638   -3.741099    1.270132
     64          6           0       -5.029054   -4.278976    1.758455
     65          8           0       -4.947380   -5.082203    2.675164
     66          1           0       -6.481212   -1.729179    0.531643
     67          1           0       -6.876369   -4.653130    1.011705
     68          1           0       -6.826325   -3.323095    2.152670
     69          7           0       -3.889566   -3.785141    1.156296
     70          6           0       -2.601423   -4.439198    1.189388
     71          6           0       -1.463172   -3.449410    1.136437
     72          8           0       -1.529190   -2.364635    0.557642
     73          6           0       -2.387882   -5.473683    0.138274
     74          6           0       -3.208031   -6.761238    0.381083
     75          8           0       -2.746201   -5.061351   -1.210833
     76          1           0       -3.969755   -2.948599    0.586413
     77          1           0       -2.512617   -4.810755    2.213380
     78          1           0       -1.322890   -5.700333    0.107911
     79          1           0       -3.491983   -4.469937   -1.105292
     80          1           0       -2.690507   -7.583627   -0.091405
     81          1           0       -3.134112   -7.018637    1.430503
     82          1           0       -4.271891   -6.618102    0.185339
     83          7           0       -0.279522   -3.832384    1.731841
     84          6           0        0.893473   -2.884648    1.864428
     85          6           0        1.655060   -2.996885    0.521414
     86          8           0        2.192275   -4.084565    0.276155
     87          6           0        1.706608   -3.242575    3.129378
     88          6           0        0.881337   -3.353299    4.433245
     89          6           0        2.953931   -2.343246    3.322233
     90          6           0        1.651568   -3.410484    5.781939
     91          1           0       -0.356467   -4.784857    2.065570
     92          1           0        0.490507   -1.880139    2.015032
     93          1           0        2.157888   -4.209152    2.911491
     94          1           0        0.152969   -4.160932    4.309516
     95          1           0        0.299567   -2.445527    4.567380
     96          1           0        2.648766   -1.411233    3.808366
     97          1           0        3.691190   -2.816333    3.974336
     98          1           0        3.433415   -2.124458    2.369013
     99          1           0        2.255075   -4.317140    5.769567
    100          1           0        2.160001   -2.457097    5.834366
    101          1           0        0.919056   -3.580397    6.572101
    102          7           0        1.650937   -1.912397   -0.314809
    103          6           0        2.615210   -1.774789   -1.366970
    104          6           0        4.004784   -1.374894   -0.877922
    105          8           0        4.217708   -0.774210    0.179878
    106          6           0        1.998054   -0.818431   -2.494178
    107          6           0        0.524058   -1.088695   -2.828085
    108          8           0       -0.376116   -0.614526   -2.082062
    109          8           0        0.239096   -1.644702   -3.900537
    110          1           0        0.987320   -1.181907   -0.120910
    111          1           0        2.632472   -2.798233   -1.760625
    112          1           0        2.638579   -0.891352   -3.360959
    113          1           0        1.961124    0.233900   -2.202398
    114          7           0        4.995231   -1.707488   -1.711166
    115          6           0        6.440367   -1.368632   -1.442543
    116          6           0        6.729950    0.088008   -0.949955
    117          8           0        7.394500    0.168763    0.055804
    118          6           0        7.362313   -1.654852   -2.630269
    119          6           0        8.849987   -1.427281   -2.364114
    120          6           0        9.552382   -2.158875   -1.393799
    121          6           0        9.655719   -0.517524   -3.121569
    122          6           0       10.952743   -1.966192   -1.262028
    123          6           0       11.024635   -0.450713   -3.123467
    124          6           0       11.695430   -1.144194   -2.106797
    125          1           0        4.762914   -2.174506   -2.566341
    126          1           0        6.714049   -1.915622   -0.545215
    127          1           0        7.001183   -1.105228   -3.492300
    128          1           0        7.219871   -2.707192   -2.893312
    129          1           0        9.047789   -2.952426   -0.848031
    130          1           0        9.132709   -0.014064   -3.922249
    131          1           0       11.613500   -2.518079   -0.603758
    132          1           0       11.544734   -0.019296   -3.969267
    133          1           0       12.767367   -1.150105   -2.003272
    134          7           0        6.157311    1.147380   -1.538269
    135          6           0        6.273439    2.495826   -0.980051
    136          6           0        5.483622    2.820121    0.322532
    137          8           0        5.629955    3.881047    0.954371
    138          6           0        5.684376    3.387588   -2.032841
    139          6           0        4.599084    2.590317   -2.738462
    140          6           0        5.313943    1.198031   -2.758869
    141          1           0        7.304876    2.765930   -0.770810
    142          1           0        5.284784    4.346161   -1.697633
    143          1           0        6.374549    3.761516   -2.784464
    144          1           0        3.662940    2.574945   -2.175349
    145          1           0        4.448191    2.971109   -3.749812
    146          1           0        4.511227    0.455329   -2.796828
    147          1           0        5.907477    1.104656   -3.675384
    148          7           0        4.598348    1.932707    0.767939
    149          6           0        3.957019    1.932733    2.071624
    150          6           0        4.724360    1.091446    3.029708
    151          8           0        4.582851    1.359994    4.203104
    152          6           0        2.477354    1.390577    1.987602
    153          6           0        1.703162    2.116590    0.882327
    154          6           0        0.412985    1.366754    0.543818
    155          8           0        0.097631    0.314103    1.164122
    156          8           0       -0.459050    1.876752   -0.124805
    157          1           0        4.406934    1.155255    0.150582
    158          1           0        3.899426    2.950004    2.453647
    159          1           0        2.047214    1.538644    2.970534
    160          1           0        2.550684    0.368879    1.630733
    161          1           0        2.358847    2.254172    0.023229
    162          1           0        1.278872    3.077300    1.181683
    163          7           0        5.505985    0.109488    2.594484
    164          6           0        6.436266   -0.491437    3.504851
    165          1           0        6.418682   -1.573408    3.379116
    166          1           0        7.439555   -0.118017    3.298666
    167          1           0        6.157403   -0.241148    4.528005
    168          1           0        5.567327    0.009581    1.592359
    169         20           0       -2.271181    0.001902   -0.376081
    170          8           0       -3.991463   -0.986267    1.444647
    171          1           0       -4.801374   -0.871904    1.939687
    172          1           0       -3.337095   -1.227777    2.097927
 ---------------------------------------------------------------------

 SCF Done:  E(RB3LYP) =  -5389.28952284     A.U. after   18 cycles

 The electronic state is 1-A.
 Alpha  occ. eigenvalues -- -145.20105 -19.05489 -19.00253 -18.99444 -18.98489
 Alpha  occ. eigenvalues --  -18.98188 -18.97768 -18.97089 -18.96252 -18.95531
 Alpha  occ. eigenvalues --  -18.94968 -18.94492 -18.94475 -18.93145 -18.93124
 Alpha  occ. eigenvalues --  -18.92734 -18.91565 -18.91348 -18.90911 -18.90376
 Alpha  occ. eigenvalues --  -18.90223 -18.89307 -18.88947 -18.88414 -18.86126
 Alpha  occ. eigenvalues --  -15.25742 -14.26378 -14.25966 -14.24212 -14.23317
 Alpha  occ. eigenvalues --  -14.21968 -14.21210 -14.20275 -14.20087 -14.19894
 Alpha  occ. eigenvalues --  -14.19222 -14.17927 -14.17037 -14.16320 -14.16048
 Alpha  occ. eigenvalues --  -12.39363 -12.39335 -12.39323 -10.18215 -10.18192
 Alpha  occ. eigenvalues --  -10.16861 -10.16849 -10.16541 -10.14589 -10.14587
 Alpha  occ. eigenvalues --  -10.14347 -10.14241 -10.13704 -10.13228 -10.12506
 Alpha  occ. eigenvalues --  -10.12460 -10.12396 -10.12289 -10.11747 -10.11658
 Alpha  occ. eigenvalues --  -10.11508 -10.11363 -10.11288 -10.11085 -10.11066
 Alpha  occ. eigenvalues --  -10.11046 -10.11037 -10.10996 -10.10933 -10.10821
 Alpha  occ. eigenvalues --  -10.10807 -10.10628 -10.10332 -10.10050 -10.09318
 Alpha  occ. eigenvalues --  -10.08996 -10.08392 -10.07753 -10.07712 -10.07618
 Alpha  occ. eigenvalues --  -10.07283 -10.07247 -10.06954 -10.06808 -10.06644
 Alpha  occ. eigenvalues --  -10.06536 -10.06525 -10.06414 -10.06038 -10.05570
 Alpha  occ. eigenvalues --  -10.04849 -10.04554 -10.04525 -10.04341 -10.01638
 Alpha  occ. eigenvalues --  -10.01226 -10.00719 -10.00191  -1.62607  -0.93695
 Alpha  occ. eigenvalues --   -0.92541  -0.92206  -0.91296  -0.90745  -0.90371
 Alpha  occ. eigenvalues --   -0.89934  -0.89865  -0.88913  -0.88206  -0.88011
 Alpha  occ. eigenvalues --   -0.87895  -0.87279  -0.87165  -0.87147  -0.86870
 Alpha  occ. eigenvalues --   -0.86679  -0.85652  -0.84510  -0.83787  -0.83683
 Alpha  occ. eigenvalues --   -0.83385  -0.82465  -0.82088  -0.81894  -0.79515
 Alpha  occ. eigenvalues --   -0.78468  -0.77958  -0.77523  -0.77422  -0.77135
 Alpha  occ. eigenvalues --   -0.77061  -0.77017  -0.76391  -0.75812  -0.75357
 Alpha  occ. eigenvalues --   -0.74963  -0.74380  -0.73141  -0.72469  -0.71700
 Alpha  occ. eigenvalues --   -0.71061  -0.70966  -0.69176  -0.68371  -0.65791
 Alpha  occ. eigenvalues --   -0.65701  -0.65193  -0.64158  -0.63609  -0.63574
 Alpha  occ. eigenvalues --   -0.62579  -0.61836  -0.61760  -0.61022  -0.59975
 Alpha  occ. eigenvalues --   -0.58910  -0.58712  -0.58580  -0.57604  -0.57339
 Alpha  occ. eigenvalues --   -0.56223  -0.55553  -0.55008  -0.53687  -0.53266
 Alpha  occ. eigenvalues --   -0.52855  -0.52130  -0.51830  -0.51516  -0.50545
 Alpha  occ. eigenvalues --   -0.48896  -0.48741  -0.48637  -0.48612  -0.47666
 Alpha  occ. eigenvalues --   -0.47209  -0.46838  -0.46120  -0.45303  -0.45119
 Alpha  occ. eigenvalues --   -0.44980  -0.44824  -0.44749  -0.44286  -0.44168
 Alpha  occ. eigenvalues --   -0.43882  -0.43590  -0.43503  -0.42676  -0.42165
 Alpha  occ. eigenvalues --   -0.41804  -0.41558  -0.41380  -0.40577  -0.40436
 Alpha  occ. eigenvalues --   -0.39789  -0.39543  -0.39297  -0.38964  -0.38496
 Alpha  occ. eigenvalues --   -0.38293  -0.37919  -0.37443  -0.37286  -0.37084
 Alpha  occ. eigenvalues --   -0.36493  -0.36459  -0.36111  -0.35769  -0.35666
 Alpha  occ. eigenvalues --   -0.35240  -0.35211  -0.34962  -0.34766  -0.34603
 Alpha  occ. eigenvalues --   -0.34471  -0.34386  -0.34142  -0.34049  -0.33780
 Alpha  occ. eigenvalues --   -0.33543  -0.33497  -0.32782  -0.32647  -0.32370
 Alpha  occ. eigenvalues --   -0.32307  -0.32260  -0.32076  -0.32050  -0.31900
 Alpha  occ. eigenvalues --   -0.31737  -0.31514  -0.31402  -0.31388  -0.31203
 Alpha  occ. eigenvalues --   -0.30998  -0.30793  -0.30609  -0.30317  -0.30181
 Alpha  occ. eigenvalues --   -0.30133  -0.29880  -0.29761  -0.29542  -0.29527
 Alpha  occ. eigenvalues --   -0.29261  -0.29006  -0.28737  -0.28587  -0.28506
 Alpha  occ. eigenvalues --   -0.28440  -0.27942  -0.27846  -0.27722  -0.27584
 Alpha  occ. eigenvalues --   -0.27383  -0.27204  -0.27141  -0.26971  -0.26931
 Alpha  occ. eigenvalues --   -0.26879  -0.26766  -0.26566  -0.26505  -0.26393
 Alpha  occ. eigenvalues --   -0.26295  -0.26014  -0.25763  -0.25680  -0.25570
 Alpha  occ. eigenvalues --   -0.25512  -0.25355  -0.25224  -0.25111  -0.25019
 Alpha  occ. eigenvalues --   -0.24949  -0.24839  -0.24626  -0.24458  -0.24277
 Alpha  occ. eigenvalues --   -0.24187  -0.24052  -0.23983  -0.23888  -0.23724
 Alpha  occ. eigenvalues --   -0.23704  -0.23577  -0.23341  -0.23214  -0.23002
 Alpha  occ. eigenvalues --   -0.22961  -0.22796  -0.22718  -0.22494  -0.22300
 Alpha  occ. eigenvalues --   -0.22054  -0.21555  -0.21344  -0.21143  -0.20874
 Alpha  occ. eigenvalues --   -0.20595  -0.20537  -0.20505  -0.20431  -0.20363
 Alpha  occ. eigenvalues --   -0.20059  -0.19614  -0.19452  -0.18817  -0.18709
 Alpha  occ. eigenvalues --   -0.18676  -0.18404  -0.18163  -0.17838  -0.17789
 Alpha  occ. eigenvalues --   -0.17412  -0.17286  -0.17001  -0.16737  -0.16731
 Alpha  occ. eigenvalues --   -0.16111  -0.16096  -0.15695  -0.15131  -0.14487
 Alpha  occ. eigenvalues --   -0.14377  -0.14121  -0.13548  -0.12927  -0.12500
 Alpha  occ. eigenvalues --   -0.12440  -0.12009  -0.11849  -0.11773  -0.11654
 Alpha  occ. eigenvalues --   -0.11430  -0.11100  -0.11038  -0.10709  -0.10693
 Alpha  occ. eigenvalues --   -0.10437  -0.10297  -0.10082  -0.09495  -0.09076
 Alpha  occ. eigenvalues --   -0.08776  -0.08432  -0.08323  -0.08108  -0.07721
 Alpha  occ. eigenvalues --   -0.07113  -0.06709  -0.06547  -0.06145  -0.05885
 Alpha  occ. eigenvalues --   -0.05711  -0.05522  -0.05134  -0.04143  -0.01855
 Alpha virt. eigenvalues --    0.06329   0.07004   0.10959   0.11655   0.11805
 Alpha virt. eigenvalues --    0.12753   0.13385   0.13752   0.13812   0.14306
 Alpha virt. eigenvalues --    0.14443   0.14865   0.15607   0.15904   0.16107

 Mulliken charges:
               1
     1  C    0.052426
     2  C    0.052469
     3  O   -0.299682
     4  H    0.040421
     5  H    0.031396
     6  H   -0.016461
     7  N   -0.098820
     8  C    0.061412
     9  C    0.117012
    10  O   -0.319671
    11  C    0.161469
    12  C    0.139908
    13  O   -0.357529
    14  O   -0.507457
    15  H    0.097806
    16  H    0.021641
    17  H   -0.029716
    18  H   -0.047287
    19  N   -0.173094
    20  C    0.123347
    21  C    0.081270
    22  O   -0.348047
    23  C    0.062241
    24  H    0.154373
    25  H    0.009035
    26  H    0.017771
    27  H   -0.007434
    28  H    0.000334
    29  N   -0.188328
    30  C    0.157995
    31  C    0.078462
    32  O   -0.353111
    33  C    0.110907
    34  C    0.092847
    35  O   -0.484506
    36  O   -0.339921
    37  H    0.167206
    38  H    0.000556
    39  H   -0.012702
    40  H   -0.008144
    41  N   -0.169266
    42  C    0.255628
    43  C   -0.030486
    44  O   -0.335038
    45  H    0.128283
    46  H    0.015059
    47  H   -0.000948
    48  N   -0.140638
    49  C    0.194080
    50  C    0.104932
    51  O   -0.336093
    52  C   -0.013205
    53  C    0.090126
    54  N    0.052301
    55  O   -0.397992
    56  H    0.163901
    57  H    0.010376
    58  H    0.038222
    59  H    0.005695
    60  H    0.104697
    61  H    0.134733
    62  N   -0.142830
    63  C    0.234729
    64  C    0.012240
    65  O   -0.286307
    66  H    0.126190
    67  H    0.039109
    68  H    0.009839
    69  N   -0.233216
    70  C    0.129270
    71  C    0.097207
    72  O   -0.312262
    73  C    0.126017
    74  C    0.126544
    75  O   -0.329393
    76  H    0.200114
    77  H   -0.005832
    78  H   -0.016457
    79  H    0.183035
    80  H   -0.012022
    81  H   -0.042733
    82  H    0.025207
    83  N   -0.185706
    84  C    0.172887
    85  C    0.111879
    86  O   -0.314739
    87  C   -0.072999
    88  C   -0.000240
    89  C    0.018148
    90  C    0.038790
    91  H    0.115709
    92  H    0.032638
    93  H   -0.027191
    94  H   -0.032516
    95  H   -0.007870
    96  H    0.033336
    97  H   -0.008428
    98  H    0.036206
    99  H   -0.006347
   100  H    0.033477
   101  H   -0.008648
   102  N   -0.136017
   103  C    0.038370
   104  C    0.134568
   105  O   -0.298823
   106  C    0.101147
   107  C    0.157208
   108  O   -0.440076
   109  O   -0.389561
   110  H    0.163268
   111  H    0.010265
   112  H   -0.028943
   113  H    0.025001
   114  N   -0.129012
   115  C    0.125469
   116  C    0.089187
   117  O   -0.260579
   118  C    0.142965
   119  C   -0.048187
   120  C    0.029262
   121  C    0.014009
   122  C    0.024765
   123  C    0.021220
   124  C    0.004362
   125  H    0.120997
   126  H    0.016149
   127  H   -0.007616
   128  H    0.009136
   129  H   -0.020766
   130  H   -0.039604
   131  H   -0.028726
   132  H   -0.024457
   133  H   -0.033633
   134  N   -0.290361
   135  C    0.152735
   136  C    0.059548
   137  O   -0.298399
   138  C    0.025551
   139  C   -0.009877
   140  C    0.152483
   141  H    0.011320
   142  H    0.023186
   143  H   -0.025142
   144  H    0.061248
   145  H    0.010924
   146  H    0.018692
   147  H    0.002930
   148  N   -0.160383
   149  C    0.134011
   150  C    0.040946
   151  O   -0.297059
   152  C    0.045638
   153  C    0.065619
   154  C    0.139835
   155  O   -0.445170
   156  O   -0.373883
   157  H    0.139552
   158  H    0.014138
   159  H    0.011449
   160  H   -0.003623
   161  H   -0.027986
   162  H    0.028366
   163  N   -0.152374
   164  C    0.143206
   165  H   -0.008986
   166  H    0.003999
   167  H    0.021289
   168  H    0.136649
   169  Ca   1.245811
   170  O   -0.257819
   171  H    0.170063
   172  H    0.178930
 Sum of Mulliken charges =  -2.00000

 Dipole moment (field-independent basis, Debye):
    X=             17.9703    Y=            -15.6587    Z=              3.3755  Tot=             24.0732
 Quadrupole moment (field-independent basis, Debye-Ang):
   XX=           -789.7458   YY=           -752.0818   ZZ=           -622.3631
   XY=             14.7366   XZ=            -93.3081   YZ=            -15.9295

 ESP charges:
               1
     1  C   -0.458182
     2  C    0.749675
     3  O   -0.584887
     4  H    0.138844
     5  H    0.133196
     6  H    0.077528
     7  N   -0.723379
     8  C    0.467750
     9  C    0.442723
    10  O   -0.555818
    11  C   -0.665216
    12  C    1.028316
    13  O   -0.665855
    14  O   -0.995564
    15  H    0.345492
    16  H    0.025809
    17  H    0.128693
    18  H    0.134095
    19  N   -0.333431
    20  C    0.183030
    21  C    0.632469
    22  O   -0.617076
    23  C   -0.277658
    24  H    0.293753
    25  H    0.022391
    26  H    0.081730
    27  H    0.052996
    28  H    0.075667
    29  N   -0.696897
    30  C    0.450139
    31  C    0.204822
    32  O   -0.561972
    33  C   -0.515875
    34  C    0.885741
    35  O   -0.824455
    36  O   -0.682467
    37  H    0.381673
    38  H    0.034498
    39  H    0.119172
    40  H    0.102061
    41  N    0.084225
    42  C   -0.272997
    43  C    0.575571
    44  O   -0.631620
    45  H    0.089339
    46  H    0.130404
    47  H    0.084578
    48  N   -0.291991
    49  C   -0.054523
    50  C    0.466022
    51  O   -0.545883
    52  C   -0.219972
    53  C    0.702700
    54  N   -0.718789
    55  O   -0.687071
    56  H    0.244371
    57  H    0.120466
    58  H    0.120739
    59  H    0.065136
    60  H    0.347839
    61  H    0.368036
    62  N   -0.179458
    63  C   -0.351382
    64  C    0.564345
    65  O   -0.555687
    66  H    0.271575
    67  H    0.173872
    68  H    0.125498
    69  N    0.000584
    70  C   -0.797436
    71  C    0.980592
    72  O   -0.621318
    73  C    0.664197
    74  C   -0.521063
    75  O   -0.653605
    76  H    0.042959
    77  H    0.188512
    78  H    0.006835
    79  H    0.438913
    80  H    0.106007
    81  H    0.101571
    82  H    0.164767
    83  N   -0.773840
    84  C   -0.181850
    85  C    0.933932
    86  O   -0.617103
    87  C    0.173203
    88  C    0.231549
    89  C   -0.198051
    90  C   -0.378660
    91  H    0.365613
    92  H    0.148239
    93  H   -0.024118
    94  H   -0.060293
    95  H   -0.026935
    96  H    0.067156
    97  H    0.037728
    98  H    0.017502
    99  H    0.066522
   100  H    0.102270
   101  H    0.083500
   102  N   -0.756001
   103  C    0.170459
   104  C    0.464101
   105  O   -0.318167
   106  C   -0.454557
   107  C    0.921086
   108  O   -0.770634
   109  O   -0.708568
   110  H    0.395361
   111  H    0.057772
   112  H    0.080201
   113  H    0.166700
   114  N   -0.729361
   115  C    0.480045
   116  C    0.474719
   117  O   -0.517833
   118  C   -0.425218
   119  C    0.144779
   120  C   -0.213534
   121  C   -0.096602
   122  C   -0.059572
   123  C   -0.138804
   124  C   -0.125117
   125  H    0.360528
   126  H    0.016798
   127  H    0.111154
   128  H    0.122208
   129  H    0.127309
   130  H    0.077387
   131  H    0.088446
   132  H    0.112952
   133  H    0.104922
   134  N   -0.183308
   135  C   -0.317271
   136  C    0.429070
   137  O   -0.545439
   138  C    0.118883
   139  C   -0.092668
   140  C    0.105733
   141  H    0.157208
   142  H    0.034127
   143  H   -0.006836
   144  H    0.049146
   145  H    0.044911
   146  H   -0.013392
   147  H    0.018127
   148  N   -0.057070
   149  C   -0.288269
   150  C    0.558626
   151  O   -0.589962
   152  C    0.121570
   153  C    0.131909
   154  C    0.783032
   155  O   -0.829028
   156  O   -0.851456
   157  H    0.223378
   158  H    0.143545
   159  H    0.054005
   160  H   -0.172377
   161  H   -0.085804
   162  H   -0.028632
   163  N   -0.045745
   164  C   -0.209823
   165  H    0.060340
   166  H    0.068197
   167  H    0.085702
   168  H    0.047867
   169  Ca   1.862429
   170  O   -0.944575
   171  H    0.469650
   172  H    0.404491
 Sum of ESP charges =  -2.00000

 Normal termination of Gaussian 16 at Mon Nov 23 01:00:18 2020.
