 Gaussian 09, Revision D.01,
 Gaussian 09:  ES64L-G09RevD.01 24-Apr-2013

 ----------------------------------------------------------------------
 #maxdisk=50GB #B3LYP/SVP Density=Current scf=(tight) #IOP(5/87=12)Pop=
 (MK,readradii) iop(6/33=2) iop(6/42=6)
 ----------------------------------------------------------------------

 ------------
 SOL molecule
 ------------
 Symbolic Z-matrix:
 Charge =  0 Multiplicity = 1

                         Standard orientation:
 ---------------------------------------------------------------------
 Center     Atomic      Atomic             Coordinates (Angstroms)
 Number     Number       Type             X           Y           Z
 ---------------------------------------------------------------------
      1          6           0        2.502665    1.502418    5.438132
      2          6           0        1.808568    1.408639    4.089045
      3          8           0        2.455372    1.012170    3.125013
      4          1           0        3.471205    1.004680    5.383426
      5          1           0        2.647772    2.550610    5.701371
      6          1           0        1.888668    1.018924    6.197375
      7          7           0        0.568996    1.846885    3.875037
      8          6           0       -0.223151    1.793473    2.662539
      9          6           0       -0.420138    3.221574    2.173024
     10          8           0       -1.349530    3.913776    2.579576
     11          6           0       -1.596997    1.168665    2.940857
     12          6           0       -2.451910    1.094332    1.673380
     13          8           0       -1.918394    1.114296    0.551077
     14          8           0       -3.686998    1.201306    1.820396
     15          1           0       -0.015548    1.992871    4.683242
     16          1           0        0.229531    1.243865    1.840158
     17          1           0       -2.049865    1.574546    3.836330
     18          1           0       -1.572330    0.109045    3.183132
     19          7           0        0.592237    3.640256    1.398167
     20          6           0        0.861943    4.983191    0.939381
     21          6           0       -0.299551    5.571232    0.149990
     22          8           0       -0.635011    6.747268    0.316439
     23          6           0        2.202035    4.975184    0.207404
     24          6           0        2.617671    6.384631   -0.194103
     25          6           0        4.124333    6.621090   -0.272559
     26          6           0        4.415676    8.090787   -0.591477
     27          7           0        4.278764    8.979369    0.572644
     28          1           0        1.332291    2.958650    1.280126
     29          1           0        0.928623    5.667792    1.785003
     30          1           0        2.148594    4.283320   -0.625103
     31          1           0        3.058025    4.624117    0.780668
     32          1           0        2.169236    7.128156    0.456877
     33          1           0        2.333593    6.475442   -1.244843
     34          1           0        4.440966    6.079792   -1.166506
     35          1           0        4.677280    6.315565    0.616600
     36          1           0        3.688677    8.306820   -1.369745
     37          1           0        5.416106    8.131855   -1.014389
     38          1           0        4.937133    8.623752    1.251383
     39          1           0        4.514934    9.911959    0.286463
     40          1           0        3.368000    8.977581    1.018297
     41          7           0       -0.993053    4.727899   -0.623537
     42          6           0       -1.969575    5.224948   -1.558549
     43          6           0       -3.387709    5.145466   -1.009751
     44          8           0       -4.257625    5.767139   -1.617344
     45          6           0       -1.675023    4.775133   -2.989564
     46          6           0       -1.941451    3.293540   -3.205659
     47          8           0       -1.692840    2.789270   -4.330694
     48          8           0       -2.247163    2.511076   -2.293359
     49          1           0       -0.658585    3.785000   -0.766618
     50          1           0       -1.744818    6.280290   -1.734721
     51          1           0       -0.709130    5.103796   -3.386088
     52          1           0       -2.357833    5.335308   -3.621841
     53          7           0       -3.607769    4.329923    0.026523
     54          6           0       -4.951347    4.087462    0.501296
     55          6           0       -5.922160    3.114584   -0.155539
     56          8           0       -7.114858    3.264827    0.079404
     57          1           0       -2.836086    3.786834    0.410788
     58          1           0       -5.539654    4.976411    0.718240
     59          1           0       -4.781902    3.611107    1.469477
     60          7           0       -5.478740    2.085764   -0.883211
     61          6           0       -6.293809    0.996969   -1.395452
     62          6           0       -6.763384   -0.002360   -0.346338
     63          8           0       -7.671370   -0.762813   -0.659183
     64          6           0       -5.663661    0.382145   -2.646614
     65          6           0       -4.642327   -0.722137   -2.382913
     66          7           0       -4.692357   -1.866856   -3.057906
     67          8           0       -3.719970   -0.566736   -1.596143
     68          1           0       -4.496645    1.990608   -1.073299
     69          1           0       -7.258861    1.380824   -1.718455
     70          1           0       -5.127449    1.126913   -3.232956
     71          1           0       -6.524260   -0.031016   -3.165717
     72          1           0       -5.261020   -2.056402   -3.869875
     73          1           0       -3.811049   -2.360152   -3.015990
     74          7           0       -6.087263    0.028979    0.803305
     75          6           0       -6.424076   -0.871729    1.879773
     76          6           0       -5.394617   -1.991830    1.989253
     77          8           0       -5.530030   -2.820987    2.886784
     78          1           0       -5.252926    0.596954    0.855137
     79          1           0       -7.431084   -1.195461    1.664753
     80          1           0       -6.411125   -0.315197    2.815457
     81          7           0       -4.353429   -2.045912    1.152233
     82          6           0       -3.276556   -3.004107    1.120511
     83          6           0       -1.857384   -2.451000    1.015987
     84          8           0       -1.592754   -1.584863    0.191501
     85          6           0       -3.482606   -3.950354   -0.064840
     86          6           0       -4.812808   -4.646912   -0.160082
     87          6           0       -4.926530   -6.034660    0.024914
     88          6           0       -5.926846   -3.984877   -0.697138
     89          6           0       -6.071924   -6.802720   -0.204988
     90          6           0       -7.133250   -4.683218   -0.842088
     91          6           0       -7.197398   -6.064950   -0.612301
     92          8           0       -8.401245   -6.700912   -0.694782
     93          1           0       -4.158214   -1.193626    0.634160
     94          1           0       -3.316393   -3.581289    2.045862
     95          1           0       -2.647043   -4.637234   -0.053460
     96          1           0       -3.272259   -3.461524   -1.012996
     97          1           0       -3.966568   -6.496255    0.203243
     98          1           0       -5.801355   -2.944245   -0.949007
     99          1           0       -6.109553   -7.872545   -0.073236
    100          1           0       -8.011924   -4.153152   -1.186562
    101          1           0       -9.052746   -6.129896   -1.108651
    102          7           0       -0.891653   -3.047742    1.708420
    103          6           0        0.535271   -2.797909    1.595861
    104          6           0        1.131761   -3.593357    0.446398
    105          8           0        0.856121   -4.781656    0.402041
    106          6           0        1.186747   -2.985158    2.969585
    107          6           0        0.523946   -2.156074    4.067362
    108          6           0        2.694069   -2.826656    2.847287
    109          6           0        0.703646   -2.800700    5.435267
    110          1           0       -1.241702   -3.759240    2.338766
    111          1           0        0.740971   -1.759935    1.322553
    112          1           0        1.027853   -4.037837    3.233250
    113          1           0       -0.548681   -2.031038    3.938371
    114          1           0        0.950710   -1.150715    4.056097
    115          1           0        3.114125   -3.761737    2.454378
    116          1           0        2.881214   -2.031174    2.138143
    117          1           0        3.171349   -2.622544    3.805327
    118          1           0        1.779181   -2.855320    5.585070
    119          1           0        0.198149   -2.172344    6.171570
    120          1           0        0.153577   -3.746543    5.420963
    121          7           0        2.001113   -3.054569   -0.407320
    122          6           0        2.901174   -3.875286   -1.206204
    123          6           0        4.333281   -3.890195   -0.692836
    124          8           0        4.682199   -3.211219    0.276519
    125          6           0        2.733171   -3.486422   -2.666567
    126          8           0        3.117610   -2.150883   -2.909756
    127          1           0        1.988674   -2.048493   -0.508586
    128          1           0        2.607337   -4.917712   -1.136150
    129          1           0        1.654775   -3.524387   -2.834257
    130          1           0        3.373753   -4.191537   -3.200484
    131          1           0        2.481328   -1.622621   -2.417126
    132          7           0        5.245122   -4.611954   -1.357299
    133          6           0        6.642848   -4.804832   -1.029795
    134          6           0        7.517290   -3.575574   -1.231729
    135          8           0        8.409129   -3.292620   -0.435010
    136          6           0        7.107493   -6.022631   -1.822557
    137          1           0        4.897510   -5.047788   -2.193310
    138          1           0        6.777383   -5.048644    0.026167
    139          1           0        6.461176   -6.859634   -1.557415
    140          1           0        7.176754   -5.857801   -2.899234
    141          1           0        8.081225   -6.289270   -1.397646
    142          7           0        7.207657   -2.817345   -2.283545
    143          6           0        7.594935   -1.436237   -2.489111
    144          6           0        7.052079   -0.468383   -1.435562
    145          8           0        7.776361    0.481717   -1.152498
    146          6           0        7.106053   -1.014577   -3.866644
    147          1           0        6.464236   -3.112457   -2.901310
    148          1           0        8.671384   -1.284040   -2.515449
    149          1           0        7.136779    0.075690   -3.980107
    150          1           0        7.678024   -1.579858   -4.604618
    151          1           0        6.047894   -1.240784   -3.991263
    152          7           0        5.893347   -0.637860   -0.786705
    153          6           0        5.441497    0.376575    0.139770
    154          6           0        6.003426    0.036526    1.519263
    155          8           0        6.350464    0.970783    2.235383
    156          6           0        3.918564    0.422886    0.070997
    157          6           0        3.384135    1.124562   -1.166475
    158          6           0        1.870875    0.938750   -1.114312
    159          8           0        1.423997   -0.224288   -1.032816
    160          8           0        1.040265    1.835622   -1.380406
    161          1           0        5.297880   -1.420649   -1.000389
    162          1           0        5.762799    1.403739   -0.012216
    163          1           0        3.475531    0.809556    0.991653
    164          1           0        3.625715   -0.620276    0.032891
    165          1           0        3.803904    0.853039   -2.137130
    166          1           0        3.680034    2.171634   -1.098783
    167          7           0        6.205272   -1.253447    1.790611
    168          6           0        6.919736   -1.744288    2.947856
    169          1           0        7.979939   -1.511028    2.845558
    170          1           0        6.528268   -1.266994    3.846824
    171          1           0        6.791646   -2.823945    3.023652
    172          1           0        5.957260   -1.945950    1.093166
    173         20           0       -1.084357    0.177769   -1.739861
    174          8           0        0.541920    0.195212   -3.890447
    175          1           0        0.217287   -0.222759   -4.694011
    176          1           0        1.092376    0.913252   -4.200959
 ---------------------------------------------------------------------

 SCF Done:  E(RB3LYP) =  -5333.54713248     A.U. after   18 cycles

 The electronic state is 1-A.
 Alpha  occ. eigenvalues -- -145.38893 -19.18110 -19.15754 -19.14126 -19.13264
 Alpha  occ. eigenvalues --  -19.12096 -19.11027 -19.10862 -19.09762 -19.09430
 Alpha  occ. eigenvalues --  -19.08346 -19.08280 -19.08070 -19.07990 -19.07983
 Alpha  occ. eigenvalues --  -19.06089 -19.05725 -19.05230 -19.03860 -19.03714
 Alpha  occ. eigenvalues --  -19.03568 -19.02941 -19.02091 -19.00001 -15.44593
 Alpha  occ. eigenvalues --  -14.59571 -14.39294 -14.37389 -14.37071 -14.36344
 Alpha  occ. eigenvalues --  -14.35684 -14.34812 -14.34526 -14.34520 -14.32379
 Alpha  occ. eigenvalues --  -14.32019 -14.31550 -14.30414 -14.30071 -14.29952
 Alpha  occ. eigenvalues --  -12.58224 -12.58174 -12.58149 -10.35438 -10.31807
 Alpha  occ. eigenvalues --  -10.30611 -10.29554 -10.29199 -10.28298 -10.27944
 Alpha  occ. eigenvalues --  -10.27789 -10.27688 -10.27045 -10.27015 -10.26451
 Alpha  occ. eigenvalues --  -10.26446 -10.25933 -10.25419 -10.24616 -10.24496
 Alpha  occ. eigenvalues --  -10.24300 -10.24177 -10.23884 -10.23621 -10.23082
 Alpha  occ. eigenvalues --  -10.23009 -10.22760 -10.22680 -10.22643 -10.22509
 Alpha  occ. eigenvalues --  -10.21980 -10.21961 -10.21117 -10.21009 -10.20628
 Alpha  occ. eigenvalues --  -10.20312 -10.20034 -10.19473 -10.19392 -10.19228
 Alpha  occ. eigenvalues --  -10.18897 -10.18613 -10.18591 -10.18351 -10.18163
 Alpha  occ. eigenvalues --  -10.17302 -10.17282 -10.17265 -10.17102 -10.16921
 Alpha  occ. eigenvalues --  -10.16919 -10.16743 -10.16736 -10.16620 -10.16327
 Alpha  occ. eigenvalues --  -10.15340 -10.15054  -1.81276  -1.14760  -1.08912
 Alpha  occ. eigenvalues --   -1.08514  -1.08466  -1.06461  -1.05615  -1.04513
 Alpha  occ. eigenvalues --   -1.04236  -1.04011  -1.03759  -1.03676  -1.03155
 Alpha  occ. eigenvalues --   -1.02908  -1.02160  -1.01666  -1.01185  -1.00190
 Alpha  occ. eigenvalues --   -0.99216  -0.98543  -0.98398  -0.97688  -0.97208
 Alpha  occ. eigenvalues --   -0.96974  -0.96394  -0.96111  -0.93752  -0.93062
 Alpha  occ. eigenvalues --   -0.92768  -0.92381  -0.92134  -0.92121  -0.91200
 Alpha  occ. eigenvalues --   -0.91064  -0.89806  -0.89520  -0.89319  -0.88371
 Alpha  occ. eigenvalues --   -0.87920  -0.87585  -0.86777  -0.85817  -0.85299
 Alpha  occ. eigenvalues --   -0.82794  -0.82659  -0.82154  -0.81298  -0.78993
 Alpha  occ. eigenvalues --   -0.78164  -0.77622  -0.77468  -0.77240  -0.76504
 Alpha  occ. eigenvalues --   -0.75789  -0.74467  -0.74379  -0.73667  -0.72699
 Alpha  occ. eigenvalues --   -0.72303  -0.71888  -0.71736  -0.71715  -0.70150
 Alpha  occ. eigenvalues --   -0.69361  -0.69129  -0.69014  -0.67969  -0.67456
 Alpha  occ. eigenvalues --   -0.67099  -0.65363  -0.65173  -0.64858  -0.64136
 Alpha  occ. eigenvalues --   -0.63964  -0.63441  -0.62814  -0.62110  -0.61501
 Alpha  occ. eigenvalues --   -0.61453  -0.60611  -0.60541  -0.60136  -0.60091
 Alpha  occ. eigenvalues --   -0.59252  -0.58921  -0.58640  -0.57458  -0.57436
 Alpha  occ. eigenvalues --   -0.57275  -0.57201  -0.56808  -0.56620  -0.56035
 Alpha  occ. eigenvalues --   -0.55507  -0.55406  -0.55288  -0.55118  -0.54958
 Alpha  occ. eigenvalues --   -0.54811  -0.54056  -0.53744  -0.53511  -0.53192
 Alpha  occ. eigenvalues --   -0.52664  -0.52582  -0.52374  -0.52275  -0.51619
 Alpha  occ. eigenvalues --   -0.51000  -0.50590  -0.50526  -0.50101  -0.49817
 Alpha  occ. eigenvalues --   -0.49687  -0.49582  -0.49225  -0.48899  -0.48715
 Alpha  occ. eigenvalues --   -0.48494  -0.47891  -0.47631  -0.47442  -0.47396
 Alpha  occ. eigenvalues --   -0.47307  -0.47164  -0.46736  -0.46480  -0.46256
 Alpha  occ. eigenvalues --   -0.46043  -0.45771  -0.45643  -0.45548  -0.45362
 Alpha  occ. eigenvalues --   -0.45140  -0.45018  -0.44874  -0.44731  -0.44454
 Alpha  occ. eigenvalues --   -0.44343  -0.44273  -0.43825  -0.43742  -0.43536
 Alpha  occ. eigenvalues --   -0.43411  -0.43345  -0.43049  -0.42633  -0.42453
 Alpha  occ. eigenvalues --   -0.42398  -0.42196  -0.41993  -0.41860  -0.41798
 Alpha  occ. eigenvalues --   -0.41680  -0.41431  -0.41246  -0.41145  -0.41083
 Alpha  occ. eigenvalues --   -0.40921  -0.40801  -0.40790  -0.40589  -0.40269
 Alpha  occ. eigenvalues --   -0.40203  -0.40115  -0.40014  -0.39881  -0.39676
 Alpha  occ. eigenvalues --   -0.39457  -0.39433  -0.39415  -0.39283  -0.38972
 Alpha  occ. eigenvalues --   -0.38877  -0.38820  -0.38748  -0.38657  -0.38469
 Alpha  occ. eigenvalues --   -0.38316  -0.38239  -0.38028  -0.37900  -0.37753
 Alpha  occ. eigenvalues --   -0.37734  -0.37609  -0.37411  -0.37130  -0.37043
 Alpha  occ. eigenvalues --   -0.36994  -0.36917  -0.36651  -0.36435  -0.36332
 Alpha  occ. eigenvalues --   -0.36168  -0.36028  -0.35795  -0.35653  -0.35523
 Alpha  occ. eigenvalues --   -0.35397  -0.35361  -0.34907  -0.34695  -0.34341
 Alpha  occ. eigenvalues --   -0.34200  -0.34098  -0.33827  -0.33697  -0.33572
 Alpha  occ. eigenvalues --   -0.33464  -0.33167  -0.32983  -0.32582  -0.32424
 Alpha  occ. eigenvalues --   -0.32019  -0.31984  -0.31565  -0.31162  -0.31116
 Alpha  occ. eigenvalues --   -0.31028  -0.30794  -0.30686  -0.30212  -0.30015
 Alpha  occ. eigenvalues --   -0.29807  -0.28798  -0.28370  -0.27983  -0.27812
 Alpha  occ. eigenvalues --   -0.27477  -0.26878  -0.26708  -0.26649  -0.26424
 Alpha  occ. eigenvalues --   -0.26211  -0.26065  -0.25688  -0.25103  -0.24827
 Alpha  occ. eigenvalues --   -0.24252  -0.24207  -0.23879  -0.23637  -0.23569
 Alpha  occ. eigenvalues --   -0.23543  -0.23268  -0.22833  -0.22691  -0.22205
 Alpha  occ. eigenvalues --   -0.22159  -0.20987  -0.20869  -0.20666  -0.20386
 Alpha  occ. eigenvalues --   -0.20244  -0.20090  -0.19916  -0.19327  -0.19044
 Alpha  occ. eigenvalues --   -0.18707  -0.18107  -0.15794
 Alpha virt. eigenvalues --   -0.10955  -0.05164  -0.04747  -0.03997  -0.01906
 Alpha virt. eigenvalues --   -0.01696  -0.00344  -0.00087  -0.00042   0.00436
 Alpha virt. eigenvalues --    0.00750   0.00984   0.01211   0.01825   0.02129

 Mulliken charges:
               1
     1  C    0.068426
     2  C    0.010030
     3  O   -0.291772
     4  H    0.045158
     5  H    0.030447
     6  H    0.016380
     7  N   -0.098883
     8  C    0.051071
     9  C    0.078955
    10  O   -0.268058
    11  C    0.106891
    12  C    0.129163
    13  O   -0.441627
    14  O   -0.382869
    15  H    0.112504
    16  H    0.026804
    17  H   -0.009682
    18  H   -0.014837
    19  N   -0.119567
    20  C    0.145082
    21  C    0.049011
    22  O   -0.288236
    23  C    0.025901
    24  C   -0.016220
    25  C   -0.043338
    26  C    0.011457
    27  N    0.084601
    28  H    0.137617
    29  H   -0.013754
    30  H    0.041916
    31  H    0.007405
    32  H   -0.010673
    33  H    0.028962
    34  H    0.055258
    35  H    0.029707
    36  H    0.075250
    37  H    0.078480
    38  H    0.193655
    39  H    0.199229
    40  H    0.199782
    41  N   -0.143865
    42  C    0.128837
    43  C    0.090835
    44  O   -0.290595
    45  C    0.053161
    46  C    0.104055
    47  O   -0.408347
    48  O   -0.440087
    49  H    0.148990
    50  H   -0.007052
    51  H   -0.015107
    52  H    0.014740
    53  N   -0.142383
    54  C    0.212671
    55  C    0.035809
    56  O   -0.290070
    57  H    0.162472
    58  H    0.013129
    59  H    0.030950
    60  N   -0.151437
    61  C    0.131557
    62  C    0.042671
    63  O   -0.297641
    64  C    0.111837
    65  C    0.016284
    66  N   -0.022225
    67  O   -0.324806
    68  H    0.140543
    69  H    0.022758
    70  H    0.068807
    71  H    0.003573
    72  H    0.130315
    73  H    0.116876
    74  N   -0.191689
    75  C    0.257908
    76  C    0.026575
    77  O   -0.298059
    78  H    0.149658
    79  H    0.036683
    80  H    0.034095
    81  N   -0.160430
    82  C    0.143605
    83  C    0.110221
    84  O   -0.353614
    85  C    0.136019
    86  C    0.010477
    87  C   -0.009209
    88  C   -0.008542
    89  C   -0.001416
    90  C   -0.021324
    91  C    0.158693
    92  O   -0.204302
    93  H    0.164317
    94  H   -0.015749
    95  H   -0.025889
    96  H   -0.053379
    97  H   -0.042438
    98  H   -0.029163
    99  H   -0.032624
   100  H   -0.034666
   101  H    0.170137
   102  N   -0.095885
   103  C    0.159420
   104  C    0.043873
   105  O   -0.284075
   106  C   -0.131493
   107  C   -0.006139
   108  C    0.099538
   109  C    0.038653
   110  H    0.133962
   111  H    0.014026
   112  H   -0.021129
   113  H    0.003835
   114  H    0.008224
   115  H    0.012081
   116  H    0.027088
   117  H    0.001709
   118  H    0.011453
   119  H    0.005359
   120  H    0.008384
   121  N   -0.158181
   122  C    0.065333
   123  C    0.104734
   124  O   -0.279080
   125  C    0.254137
   126  O   -0.325900
   127  H    0.153067
   128  H    0.029286
   129  H    0.008463
   130  H   -0.014947
   131  H    0.158120
   132  N   -0.127117
   133  C    0.065751
   134  C    0.070281
   135  O   -0.246080
   136  C    0.032529
   137  H    0.111056
   138  H    0.027661
   139  H    0.030721
   140  H    0.020329
   141  H    0.040183
   142  N   -0.124584
   143  C    0.122111
   144  C    0.052181
   145  O   -0.279708
   146  C    0.010377
   147  H    0.099784
   148  H    0.021122
   149  H    0.033244
   150  H    0.026215
   151  H    0.006680
   152  N   -0.153430
   153  C    0.148696
   154  C    0.067819
   155  O   -0.290354
   156  C   -0.038389
   157  C    0.104420
   158  C    0.154344
   159  O   -0.462308
   160  O   -0.385747
   161  H    0.114655
   162  H   -0.012132
   163  H    0.037359
   164  H   -0.016758
   165  H    0.002904
   166  H   -0.041114
   167  N   -0.166241
   168  C    0.147177
   169  H    0.023589
   170  H    0.017272
   171  H    0.007353
   172  H    0.131286
   173  Ca   1.298221
   174  O   -0.282619
   175  H    0.176521
   176  H    0.198048
 Sum of Mulliken charges =   0.00000

 Dipole moment (field-independent basis, Debye):
    X=             29.4065    Y=             12.7448    Z=             -7.6932  Tot=             32.9600
 Quadrupole moment (field-independent basis, Debye-Ang):
   XX=           -676.4903   YY=           -321.3137   ZZ=           -521.4349
   XY=            175.5938   XZ=              0.7386   YZ=             69.3266

 ESP charges:
               1
     1  C   -0.422656
     2  C    0.948229
     3  O   -0.700209
     4  H    0.139869
     5  H    0.104512
     6  H    0.086374
     7  N   -0.917375
     8  C    0.267862
     9  C    0.745753
    10  O   -0.547227
    11  C   -0.421633
    12  C    0.856186
    13  O   -0.898428
    14  O   -0.658809
    15  H    0.393127
    16  H    0.067230
    17  H    0.105644
    18  H    0.107949
    19  N   -0.548777
    20  C   -0.045352
    21  C    0.435919
    22  O   -0.546711
    23  C    0.000399
    24  C    0.069631
    25  C   -0.132579
    26  C    0.177673
    27  N   -0.526668
    28  H    0.311303
    29  H    0.096337
    30  H    0.030254
    31  H    0.038084
    32  H   -0.050505
    33  H    0.047833
    34  H    0.081703
    35  H    0.041514
    36  H    0.042302
    37  H    0.046569
    38  H    0.370152
    39  H    0.365579
    40  H    0.397660
    41  N   -0.309375
    42  C    0.060736
    43  C    0.481802
    44  O   -0.546119
    45  C   -0.253035
    46  C    0.868113
    47  O   -0.771948
    48  O   -0.872270
    49  H    0.242555
    50  H    0.067515
    51  H    0.072425
    52  H    0.081405
    53  N   -0.219281
    54  C   -0.235456
    55  C    0.644251
    56  O   -0.582428
    57  H    0.244458
    58  H    0.119614
    59  H    0.111904
    60  N   -0.564626
    61  C    0.265709
    62  C    0.377098
    63  O   -0.551155
    64  C   -0.445174
    65  C    0.754488
    66  N   -0.876246
    67  O   -0.665103
    68  H    0.397607
    69  H    0.068674
    70  H    0.172433
    71  H    0.121686
    72  H    0.398986
    73  H    0.388701
    74  N   -0.027991
    75  C   -0.434892
    76  C    0.752590
    77  O   -0.590670
    78  H    0.171632
    79  H    0.186771
    80  H    0.157571
    81  N   -0.434971
    82  C    0.295196
    83  C    0.715558
    84  O   -0.620008
    85  C   -0.256392
    86  C    0.239947
    87  C   -0.170320
    88  C   -0.387602
    89  C   -0.230316
    90  C   -0.187920
    91  C    0.303605
    92  O   -0.517421
    93  H    0.059661
    94  H   -0.013970
    95  H    0.069838
    96  H    0.032105
    97  H    0.085336
    98  H    0.314372
    99  H    0.163144
   100  H    0.121086
   101  H    0.388166
   102  N   -0.776493
   103  C    0.090194
   104  C    0.584333
   105  O   -0.555357
   106  C    0.285805
   107  C    0.348192
   108  C   -0.359556
   109  C   -0.397868
   110  H    0.352358
   111  H    0.081702
   112  H   -0.063196
   113  H   -0.062250
   114  H   -0.082520
   115  H    0.084056
   116  H    0.007173
   117  H    0.103879
   118  H    0.069015
   119  H    0.092028
   120  H    0.081339
   121  N   -0.249503
   122  C   -0.080764
   123  C    0.654202
   124  O   -0.491370
   125  C    0.107583
   126  O   -0.567459
   127  H    0.084417
   128  H    0.061480
   129  H    0.048503
   130  H    0.037251
   131  H    0.380642
   132  N   -0.562152
   133  C    0.210732
   134  C    0.519440
   135  O   -0.529237
   136  C   -0.318133
   137  H    0.305835
   138  H    0.066016
   139  H    0.098240
   140  H    0.078758
   141  H    0.106726
   142  N   -0.553106
   143  C    0.338322
   144  C    0.264867
   145  O   -0.529504
   146  C   -0.456173
   147  H    0.330098
   148  H    0.064689
   149  H    0.141693
   150  H    0.112350
   151  H    0.104023
   152  N    0.062275
   153  C    0.009424
   154  C    0.433923
   155  O   -0.552234
   156  C   -0.252317
   157  C   -0.040989
   158  C    0.632288
   159  O   -0.655732
   160  O   -0.693790
   161  H   -0.024333
   162  H    0.067349
   163  H    0.160652
   164  H    0.107481
   165  H    0.038181
   166  H    0.015280
   167  N   -0.078562
   168  C   -0.277285
   169  H    0.113209
   170  H    0.098021
   171  H    0.096995
   172  H    0.157275
   173  Ca   1.700722
   174  O   -0.803864
   175  H    0.401622
   176  H    0.432345
 Sum of ESP charges =   0.00000

 Normal termination of Gaussian 09 at Mon Sep 16 14:53:05 2019.
