 Gaussian 16, Revision A.03,
 Gaussian 16:  ES64L-G16RevA.03 25-Dec-2016

 ----------------------------------------------------------------------
 #b3lyp/svp scf=(tight,noincore) Test #IOP(5/87=12) Density=Current Pop
 =(MK,readradii) iop(6/33=2) iop(6/42=6)
 ----------------------------------------------------------------------

 -----------------
 CaMKII_loop3_65.0
 -----------------
 Symbolic Z-matrix:
 Charge =  0 Multiplicity = 1

                         Standard orientation:
 ---------------------------------------------------------------------
 Center     Atomic      Atomic             Coordinates (Angstroms)
 Number     Number       Type             X           Y           Z
 ---------------------------------------------------------------------
      1          6           0        2.227745    1.536793    5.937442
      2          6           0        1.674411    1.687353    4.518375
      3          8           0        2.484921    1.629764    3.598507
      4          1           0        3.219097    1.085872    5.894055
      5          1           0        2.295131    2.517892    6.407897
      6          1           0        1.563856    0.898519    6.521448
      7          7           0        0.382771    1.941409    4.269732
      8          6           0       -0.189581    2.049415    2.941370
      9          6           0        0.112291    3.390214    2.275464
     10          8           0       -0.320933    4.436577    2.768153
     11          6           0       -1.660733    1.703552    3.136544
     12          6           0       -2.456161    1.586190    1.847506
     13          8           0       -1.869091    1.820392    0.772938
     14          8           0       -3.621486    1.133542    1.972915
     15          1           0       -0.227844    1.794674    5.058477
     16          1           0        0.202601    1.266272    2.290154
     17          1           0       -2.175667    2.431237    3.760257
     18          1           0       -1.719091    0.728522    3.610581
     19          7           0        0.768053    3.317776    1.119943
     20          6           0        1.289243    4.513100    0.495714
     21          6           0        0.196763    5.284525   -0.237970
     22          8           0        0.222865    6.511262   -0.261115
     23          6           0        2.549339    4.191886   -0.310250
     24          6           0        3.561839    5.329844   -0.240993
     25          6           0        4.716193    5.090883   -1.213548
     26          6           0        5.754545    6.193543   -0.981240
     27          7           0        6.817637    6.187314   -2.004858
     28          1           0        0.942692    2.413726    0.723593
     29          1           0        1.614165    5.165717    1.311015
     30          1           0        2.273561    4.076227   -1.355032
     31          1           0        3.078362    3.309456    0.056973
     32          1           0        3.907439    5.402009    0.798022
     33          1           0        3.046544    6.284162   -0.359935
     34          1           0        4.237095    5.100394   -2.195931
     35          1           0        5.185906    4.118616   -1.094945
     36          1           0        6.115831    6.036946    0.030911
     37          1           0        5.195390    7.123591   -0.997287
     38          1           0        6.391856    6.327406   -2.910389
     39          1           0        7.426694    6.941520   -1.706323
     40          1           0        7.400506    5.364927   -2.028142
     41          7           0       -0.839015    4.626089   -0.737596
     42          6           0       -1.903367    5.193557   -1.534612
     43          6           0       -3.240706    5.188537   -0.798677
     44          8           0       -4.031393    6.097854   -1.033958
     45          6           0       -1.982517    4.753385   -2.988085
     46          6           0       -2.137763    3.244144   -3.091483
     47          8           0       -2.478869    2.510100   -2.135907
     48          8           0       -1.820664    2.715626   -4.179194
     49          1           0       -0.806221    3.625824   -0.564980
     50          1           0       -1.561580    6.222051   -1.650724
     51          1           0       -1.094857    5.039165   -3.552079
     52          1           0       -2.922068    5.174023   -3.351550
     53          7           0       -3.484639    4.220252    0.082811
     54          6           0       -4.700430    4.184374    0.858417
     55          6           0       -5.849143    3.311124    0.368831
     56          8           0       -7.029940    3.564324    0.601659
     57          1           0       -2.850604    3.435241    0.050307
     58          1           0       -5.056731    5.210918    0.905920
     59          1           0       -4.472678    3.965090    1.905767
     60          7           0       -5.516675    2.246820   -0.376100
     61          6           0       -6.418104    1.316668   -1.014726
     62          6           0       -6.757654    0.090649   -0.179392
     63          8           0       -7.506169   -0.785866   -0.619674
     64          6           0       -5.963416    0.979915   -2.437841
     65          6           0       -4.781901    0.020355   -2.536670
     66          7           0       -4.716037   -0.750403   -3.625336
     67          8           0       -3.926729   -0.039910   -1.646980
     68          1           0       -4.535033    2.040372   -0.494248
     69          1           0       -7.373967    1.839679   -1.064578
     70          1           0       -5.767524    1.842651   -3.070228
     71          1           0       -6.781247    0.458681   -2.928828
     72          1           0       -5.599585   -0.893570   -4.087229
     73          1           0       -4.049917   -1.516692   -3.653355
     74          7           0       -6.303771    0.128926    1.073694
     75          6           0       -6.485949   -0.898083    2.070671
     76          6           0       -5.604914   -2.116717    1.813752
     77          8           0       -5.892672   -3.178970    2.353116
     78          1           0       -5.541743    0.775273    1.263296
     79          1           0       -7.525052   -1.224685    2.149384
     80          1           0       -6.132987   -0.508753    3.026307
     81          7           0       -4.505868   -1.940878    1.066102
     82          6           0       -3.510905   -2.946378    0.754464
     83          6           0       -2.067473   -2.456731    0.803948
     84          8           0       -1.792161   -1.342820    0.383229
     85          6           0       -3.736605   -3.685465   -0.565692
     86          6           0       -5.118750   -4.226230   -0.840189
     87          6           0       -5.627735   -5.102418    0.125952
     88          6           0       -5.871994   -4.107506   -2.011824
     89          6           0       -6.861096   -5.755855   -0.029093
     90          6           0       -7.090648   -4.751865   -2.265364
     91          6           0       -7.597482   -5.534850   -1.213151
     92          8           0       -8.784981   -6.182708   -1.340529
     93          1           0       -4.248821   -0.965964    1.021743
     94          1           0       -3.519818   -3.663649    1.582500
     95          1           0       -3.055540   -4.522944   -0.604132
     96          1           0       -3.427455   -3.017943   -1.371757
     97          1           0       -5.026904   -5.352085    0.994727
     98          1           0       -5.480021   -3.483411   -2.805463
     99          1           0       -7.220208   -6.374438    0.774022
    100          1           0       -7.549745   -4.548548   -3.218775
    101          1           0       -9.301652   -6.014419   -2.137228
    102          7           0       -1.113422   -3.207781    1.372639
    103          6           0        0.299549   -2.863639    1.422439
    104          6           0        1.159605   -3.863209    0.646510
    105          8           0        1.048262   -5.066220    0.845926
    106          6           0        0.780699   -2.686349    2.858914
    107          6           0        0.058792   -1.694784    3.772505
    108          6           0        2.277077   -2.502173    3.113541
    109          6           0       -0.097758   -2.226600    5.194604
    110          1           0       -1.432088   -4.034176    1.839782
    111          1           0        0.420200   -1.880275    0.980807
    112          1           0        0.516486   -3.661039    3.265694
    113          1           0       -0.932348   -1.487513    3.353243
    114          1           0        0.654912   -0.789515    3.711440
    115          1           0        2.543060   -1.542372    2.667072
    116          1           0        2.588681   -2.622201    4.150072
    117          1           0        2.771334   -3.289991    2.554298
    118          1           0        0.841012   -2.557564    5.635257
    119          1           0       -0.501066   -1.414416    5.804192
    120          1           0       -0.802318   -3.056947    5.250443
    121          7           0        2.054077   -3.388454   -0.219877
    122          6           0        3.033534   -4.122994   -0.994161
    123          6           0        4.453425   -3.972404   -0.475864
    124          8           0        4.711794   -2.981075    0.204365
    125          6           0        2.929597   -3.775266   -2.482275
    126          8           0        3.533342   -2.549869   -2.819310
    127          1           0        2.195008   -2.398684   -0.186801
    128          1           0        2.854116   -5.205601   -0.966410
    129          1           0        1.856176   -3.709004   -2.660816
    130          1           0        3.459366   -4.541673   -3.050486
    131          1           0        3.422785   -2.462818   -3.774035
    132          7           0        5.446527   -4.770851   -0.880378
    133          6           0        6.820946   -4.670677   -0.428343
    134          6           0        7.554797   -3.385283   -0.787124
    135          8           0        8.142955   -2.801306    0.126135
    136          6           0        7.564224   -5.926144   -0.861518
    137          1           0        5.239250   -5.547974   -1.482471
    138          1           0        6.832911   -4.621334    0.662310
    139          1           0        6.908615   -6.788418   -0.977970
    140          1           0        7.959030   -5.884539   -1.874927
    141          1           0        8.394887   -6.065526   -0.157408
    142          7           0        7.132541   -2.870545   -1.943906
    143          6           0        7.541424   -1.549585   -2.378392
    144          6           0        7.002167   -0.430698   -1.496862
    145          8           0        7.782099    0.445281   -1.123008
    146          6           0        6.960422   -1.340271   -3.777900
    147          1           0        6.447082   -3.347511   -2.518667
    148          1           0        8.619671   -1.423513   -2.412886
    149          1           0        7.415434   -2.048020   -4.479793
    150          1           0        5.873520   -1.288569   -3.732374
    151          1           0        7.306682   -0.395798   -4.177245
    152          7           0        5.733579   -0.514764   -1.101112
    153          6           0        5.191978    0.407590   -0.118243
    154          6           0        5.898494    0.237166    1.224400
    155          8           0        6.332836    1.217606    1.828373
    156          6           0        3.676701    0.285988    0.036187
    157          6           0        3.089586    0.721442   -1.304811
    158          6           0        1.586975    0.948803   -1.270649
    159          8           0        0.880502    1.401186   -2.207584
    160          8           0        0.994922    0.738330   -0.192607
    161          1           0        5.204045   -1.362888   -1.219770
    162          1           0        5.393788    1.406413   -0.491506
    163          1           0        3.290020    0.952762    0.799332
    164          1           0        3.426703   -0.755249    0.284634
    165          1           0        3.445239    0.010366   -2.040122
    166          1           0        3.617034    1.627492   -1.613634
    167          7           0        5.889244   -0.985855    1.735707
    168          6           0        6.472903   -1.255734    3.034594
    169          1           0        7.463389   -1.692781    2.903824
    170          1           0        6.558542   -0.324925    3.595530
    171          1           0        5.837714   -1.952812    3.580713
    172          1           0        5.480312   -1.696694    1.140071
    173         20           0       -1.340059    0.416446   -1.342544
    174          8           0        0.269293   -1.582041   -2.194092
    175          1           0        1.216786   -1.550557   -2.057833
    176          1           0        0.163536   -1.774979   -3.129233
 ---------------------------------------------------------------------

 SCF Done:  E(RB3LYP) =  -5333.57066944     A.U. after   19 cycles

 The electronic state is 1-A.
 Alpha  occ. eigenvalues -- -145.35742 -19.21742 -19.20400 -19.16201 -19.14299
 Alpha  occ. eigenvalues --  -19.12942 -19.12917 -19.12515 -19.11561 -19.10224
 Alpha  occ. eigenvalues --  -19.07519 -19.06789 -19.06458 -19.06436 -19.06067
 Alpha  occ. eigenvalues --  -19.05658 -19.05218 -19.04845 -19.04610 -19.03848
 Alpha  occ. eigenvalues --  -19.03459 -19.02526 -19.01846 -18.99002 -15.41511
 Alpha  occ. eigenvalues --  -14.58325 -14.42222 -14.39616 -14.39227 -14.38358
 Alpha  occ. eigenvalues --  -14.36511 -14.35999 -14.32837 -14.32666 -14.31939
 Alpha  occ. eigenvalues --  -14.30723 -14.30671 -14.29941 -14.29761 -14.28138
 Alpha  occ. eigenvalues --  -12.55133 -12.55078 -12.55064 -10.34923 -10.33901
 Alpha  occ. eigenvalues --  -10.31382 -10.31372 -10.31371 -10.30938 -10.29818
 Alpha  occ. eigenvalues --  -10.29724 -10.28849 -10.27208 -10.26783 -10.25934
 Alpha  occ. eigenvalues --  -10.25658 -10.25531 -10.25178 -10.25118 -10.24834
 Alpha  occ. eigenvalues --  -10.24126 -10.23949 -10.23793 -10.23671 -10.23522
 Alpha  occ. eigenvalues --  -10.23420 -10.23418 -10.22817 -10.22462 -10.22183
 Alpha  occ. eigenvalues --  -10.21542 -10.21282 -10.20364 -10.20021 -10.19791
 Alpha  occ. eigenvalues --  -10.19563 -10.19547 -10.19526 -10.19427 -10.19337
 Alpha  occ. eigenvalues --  -10.19170 -10.18875 -10.18813 -10.18535 -10.18007
 Alpha  occ. eigenvalues --  -10.17917 -10.17855 -10.17831 -10.17657 -10.17503
 Alpha  occ. eigenvalues --  -10.17434 -10.17089 -10.16669 -10.16666 -10.16520
 Alpha  occ. eigenvalues --  -10.14816 -10.13027  -1.78506  -1.13331  -1.10325
 Alpha  occ. eigenvalues --   -1.09368  -1.06897  -1.06804  -1.06329  -1.05935
 Alpha  occ. eigenvalues --   -1.05569  -1.05398  -1.05262  -1.03597  -1.03117
 Alpha  occ. eigenvalues --   -1.02877  -1.02580  -0.99855  -0.99680  -0.99135
 Alpha  occ. eigenvalues --   -0.98660  -0.98630  -0.98320  -0.98190  -0.97346
 Alpha  occ. eigenvalues --   -0.96776  -0.96359  -0.95964  -0.95750  -0.95321
 Alpha  occ. eigenvalues --   -0.94713  -0.92955  -0.91593  -0.91303  -0.90253
 Alpha  occ. eigenvalues --   -0.89239  -0.89156  -0.88737  -0.88518  -0.88299
 Alpha  occ. eigenvalues --   -0.87582  -0.86809  -0.86513  -0.84767  -0.84533
 Alpha  occ. eigenvalues --   -0.84524  -0.83321  -0.82603  -0.81552  -0.80279
 Alpha  occ. eigenvalues --   -0.80050  -0.79021  -0.78462  -0.75703  -0.75434
 Alpha  occ. eigenvalues --   -0.75403  -0.74349  -0.73184  -0.72636  -0.72528
 Alpha  occ. eigenvalues --   -0.72432  -0.72322  -0.71814  -0.71052  -0.70754
 Alpha  occ. eigenvalues --   -0.70268  -0.70197  -0.69716  -0.68096  -0.67679
 Alpha  occ. eigenvalues --   -0.67108  -0.66485  -0.66220  -0.65266  -0.64338
 Alpha  occ. eigenvalues --   -0.63988  -0.63588  -0.63318  -0.63163  -0.62308
 Alpha  occ. eigenvalues --   -0.61929  -0.61539  -0.60905  -0.60765  -0.60589
 Alpha  occ. eigenvalues --   -0.60400  -0.59722  -0.59376  -0.58949  -0.58584
 Alpha  occ. eigenvalues --   -0.58215  -0.58019  -0.56987  -0.56953  -0.56394
 Alpha  occ. eigenvalues --   -0.56009  -0.55514  -0.55482  -0.55170  -0.54885
 Alpha  occ. eigenvalues --   -0.54867  -0.54687  -0.54026  -0.53887  -0.53447
 Alpha  occ. eigenvalues --   -0.53379  -0.52972  -0.52872  -0.52496  -0.51959
 Alpha  occ. eigenvalues --   -0.51539  -0.51508  -0.50953  -0.50668  -0.50250
 Alpha  occ. eigenvalues --   -0.49902  -0.49472  -0.49261  -0.48946  -0.48882
 Alpha  occ. eigenvalues --   -0.48629  -0.48215  -0.47908  -0.47540  -0.47529
 Alpha  occ. eigenvalues --   -0.47320  -0.47226  -0.47130  -0.46879  -0.46640
 Alpha  occ. eigenvalues --   -0.46580  -0.46140  -0.46123  -0.45918  -0.45757
 Alpha  occ. eigenvalues --   -0.45399  -0.45341  -0.44907  -0.44689  -0.44645
 Alpha  occ. eigenvalues --   -0.44344  -0.44331  -0.44022  -0.43937  -0.43873
 Alpha  occ. eigenvalues --   -0.43770  -0.43418  -0.43298  -0.42998  -0.42950
 Alpha  occ. eigenvalues --   -0.42807  -0.42737  -0.42627  -0.42566  -0.42314
 Alpha  occ. eigenvalues --   -0.42196  -0.41914  -0.41789  -0.41691  -0.41461
 Alpha  occ. eigenvalues --   -0.41435  -0.41077  -0.41064  -0.41038  -0.40866
 Alpha  occ. eigenvalues --   -0.40679  -0.40631  -0.40358  -0.40045  -0.39898
 Alpha  occ. eigenvalues --   -0.39661  -0.39398  -0.39347  -0.39276  -0.39164
 Alpha  occ. eigenvalues --   -0.39004  -0.38710  -0.38688  -0.38604  -0.38512
 Alpha  occ. eigenvalues --   -0.38371  -0.38269  -0.38104  -0.38076  -0.37725
 Alpha  occ. eigenvalues --   -0.37606  -0.37433  -0.37396  -0.37344  -0.37068
 Alpha  occ. eigenvalues --   -0.36944  -0.36845  -0.36730  -0.36655  -0.36425
 Alpha  occ. eigenvalues --   -0.36224  -0.36020  -0.35417  -0.35402  -0.35247
 Alpha  occ. eigenvalues --   -0.35207  -0.35144  -0.35141  -0.34781  -0.34647
 Alpha  occ. eigenvalues --   -0.34485  -0.34187  -0.33865  -0.33606  -0.33567
 Alpha  occ. eigenvalues --   -0.33327  -0.33224  -0.33047  -0.32788  -0.32522
 Alpha  occ. eigenvalues --   -0.32338  -0.32288  -0.32173  -0.31924  -0.31853
 Alpha  occ. eigenvalues --   -0.31327  -0.31229  -0.31025  -0.30548  -0.30487
 Alpha  occ. eigenvalues --   -0.30440  -0.30410  -0.29551  -0.29492  -0.28971
 Alpha  occ. eigenvalues --   -0.28638  -0.27911  -0.27653  -0.27574  -0.26852
 Alpha  occ. eigenvalues --   -0.26667  -0.25497  -0.25245  -0.24920  -0.24440
 Alpha  occ. eigenvalues --   -0.24132  -0.23416  -0.23248  -0.23161  -0.22582
 Alpha  occ. eigenvalues --   -0.22462  -0.22306  -0.22247  -0.21988  -0.21860
 Alpha  occ. eigenvalues --   -0.21617  -0.21247  -0.20690  -0.20427  -0.20387
 Alpha  occ. eigenvalues --   -0.19967  -0.19800  -0.19448  -0.19261  -0.18224
 Alpha  occ. eigenvalues --   -0.18154  -0.17527  -0.14863
 Alpha virt. eigenvalues --   -0.10141  -0.05329  -0.04509  -0.03942  -0.03661
 Alpha virt. eigenvalues --   -0.02778  -0.02235  -0.01577  -0.00529  -0.00175
 Alpha virt. eigenvalues --   -0.00101   0.00473   0.00557   0.00824   0.01811

 Mulliken charges:
               1
     1  C    0.066287
     2  C    0.010305
     3  O   -0.296782
     4  H    0.028651
     5  H    0.039871
     6  H   -0.000116
     7  N   -0.114208
     8  C    0.112660
     9  C    0.095029
    10  O   -0.282240
    11  C    0.030599
    12  C    0.172751
    13  O   -0.459925
    14  O   -0.394889
    15  H    0.109053
    16  H    0.001214
    17  H    0.018280
    18  H   -0.004269
    19  N   -0.148814
    20  C    0.131726
    21  C    0.040792
    22  O   -0.295362
    23  C    0.062210
    24  C   -0.059737
    25  C   -0.033553
    26  C   -0.000935
    27  N    0.093395
    28  H    0.153990
    29  H    0.002461
    30  H    0.018178
    31  H    0.023325
    32  H    0.014381
    33  H    0.028432
    34  H    0.029023
    35  H    0.041894
    36  H    0.090742
    37  H    0.078173
    38  H    0.200120
    39  H    0.196871
    40  H    0.198509
    41  N   -0.128522
    42  C    0.118437
    43  C    0.069261
    44  O   -0.296446
    45  C    0.113019
    46  C    0.084742
    47  O   -0.484154
    48  O   -0.381699
    49  H    0.133581
    50  H   -0.000250
    51  H   -0.005693
    52  H    0.020074
    53  N   -0.169451
    54  C    0.220211
    55  C    0.043503
    56  O   -0.287138
    57  H    0.162740
    58  H    0.018622
    59  H    0.027985
    60  N   -0.183060
    61  C    0.148453
    62  C    0.041932
    63  O   -0.293398
    64  C    0.072786
    65  C    0.093488
    66  N   -0.036209
    67  O   -0.350281
    68  H    0.143184
    69  H    0.030660
    70  H    0.066024
    71  H    0.003071
    72  H    0.133993
    73  H    0.125488
    74  N   -0.167511
    75  C    0.243571
    76  C    0.011545
    77  O   -0.290738
    78  H    0.160787
    79  H    0.036116
    80  H    0.033882
    81  N   -0.136214
    82  C    0.137234
    83  C    0.101429
    84  O   -0.359069
    85  C    0.190820
    86  C    0.030727
    87  C    0.005216
    88  C   -0.012330
    89  C   -0.005145
    90  C   -0.024960
    91  C    0.190798
    92  O   -0.214295
    93  H    0.139736
    94  H   -0.011657
    95  H   -0.007261
    96  H   -0.058711
    97  H   -0.032151
    98  H   -0.102653
    99  H   -0.027484
   100  H   -0.051324
   101  H    0.175609
   102  N   -0.119765
   103  C    0.179070
   104  C    0.056880
   105  O   -0.269053
   106  C   -0.137474
   107  C   -0.001539
   108  C    0.053324
   109  C    0.028456
   110  H    0.129869
   111  H    0.012376
   112  H   -0.028420
   113  H    0.016440
   114  H    0.034579
   115  H    0.048355
   116  H    0.018849
   117  H   -0.003891
   118  H    0.004726
   119  H    0.007515
   120  H    0.008719
   121  N   -0.122583
   122  C    0.096632
   123  C    0.115710
   124  O   -0.287166
   125  C    0.190248
   126  O   -0.301984
   127  H    0.141890
   128  H    0.034776
   129  H    0.016055
   130  H   -0.001986
   131  H    0.192259
   132  N   -0.121742
   133  C    0.044238
   134  C    0.106272
   135  O   -0.239684
   136  C    0.043934
   137  H    0.116506
   138  H    0.037843
   139  H    0.011679
   140  H    0.006739
   141  H    0.059938
   142  N   -0.142261
   143  C    0.105897
   144  C    0.060401
   145  O   -0.265759
   146  C    0.025311
   147  H    0.109036
   148  H    0.011049
   149  H    0.019198
   150  H    0.007583
   151  H    0.012280
   152  N   -0.168659
   153  C    0.092189
   154  C    0.076200
   155  O   -0.287177
   156  C    0.018065
   157  C    0.037385
   158  C    0.103106
   159  O   -0.387928
   160  O   -0.420327
   161  H    0.129452
   162  H   -0.037933
   163  H    0.061343
   164  H   -0.010789
   165  H   -0.031888
   166  H   -0.019438
   167  N   -0.158571
   168  C    0.140993
   169  H    0.021511
   170  H    0.038361
   171  H    0.001811
   172  H    0.120318
   173  Ca   1.271699
   174  O   -0.289035
   175  H    0.183958
   176  H    0.185022
 Sum of Mulliken charges =  -0.00000

 Dipole moment (field-independent basis, Debye):
    X=             37.0993    Y=             -8.8483    Z=            -16.8088  Tot=             41.6796
 Quadrupole moment (field-independent basis, Debye-Ang):
   XX=           -526.7420   YY=           -493.8044   ZZ=           -508.8376
   XY=            148.2082   XZ=            -68.8705   YZ=              6.1012

 ESP charges:
               1
     1  C   -0.421085
     2  C    0.886811
     3  O   -0.662365
     4  H    0.120736
     5  H    0.117981
     6  H    0.071552
     7  N   -0.907407
     8  C    0.669650
     9  C    0.447819
    10  O   -0.552129
    11  C   -0.653442
    12  C    1.057107
    13  O   -0.804557
    14  O   -0.705365
    15  H    0.382334
    16  H   -0.066765
    17  H    0.141696
    18  H    0.119245
    19  N   -0.005680
    20  C   -0.508759
    21  C    0.707139
    22  O   -0.585034
    23  C    0.284645
    24  C   -0.229025
    25  C    0.075611
    26  C    0.142600
    27  N   -0.497361
    28  H   -0.067144
    29  H    0.178801
    30  H    0.026062
    31  H    0.042429
    32  H    0.064027
    33  H    0.062456
    34  H    0.004712
    35  H   -0.018854
    36  H    0.065881
    37  H    0.054730
    38  H    0.359049
    39  H    0.348443
    40  H    0.375884
    41  N   -0.544627
    42  C    0.224841
    43  C    0.468645
    44  O   -0.568333
    45  C   -0.443424
    46  C    0.911841
    47  O   -0.828856
    48  O   -0.748836
    49  H    0.407305
    50  H    0.053025
    51  H    0.119785
    52  H    0.115311
    53  N   -0.114723
    54  C   -0.124260
    55  C    0.517243
    56  O   -0.577043
    57  H   -0.034741
    58  H    0.106922
    59  H    0.075609
    60  N   -0.136388
    61  C   -0.214997
    62  C    0.403390
    63  O   -0.484998
    64  C   -0.126952
    65  C    0.661826
    66  N   -0.825369
    67  O   -0.505927
    68  H    0.136319
    69  H    0.178109
    70  H    0.119759
    71  H    0.037374
    72  H    0.387258
    73  H    0.375212
    74  N   -0.133103
    75  C   -0.349677
    76  C    0.637625
    77  O   -0.556807
    78  H    0.205088
    79  H    0.162793
    80  H    0.145208
    81  N   -0.312138
    82  C    0.227559
    83  C    0.607379
    84  O   -0.585657
    85  C   -0.082095
    86  C   -0.041491
    87  C   -0.046395
    88  C   -0.036898
    89  C   -0.364477
    90  C   -0.480203
    91  C    0.561023
    92  O   -0.613856
    93  H    0.125037
    94  H   -0.027058
    95  H    0.030265
    96  H   -0.010493
    97  H    0.113981
    98  H    0.083297
    99  H    0.191763
   100  H    0.187244
   101  H    0.427722
   102  N   -0.643033
   103  C   -0.043187
   104  C    0.654262
   105  O   -0.555015
   106  C    0.245650
   107  C    0.111973
   108  C   -0.340603
   109  C   -0.322661
   110  H    0.360555
   111  H    0.096187
   112  H   -0.033136
   113  H    0.014582
   114  H    0.007150
   115  H    0.051447
   116  H    0.121903
   117  H    0.049100
   118  H    0.073681
   119  H    0.074889
   120  H    0.079302
   121  N   -0.569435
   122  C    0.333988
   123  C    0.338243
   124  O   -0.324194
   125  C   -0.020539
   126  O   -0.389278
   127  H    0.438690
   128  H    0.015010
   129  H    0.029654
   130  H    0.029918
   131  H    0.374123
   132  N   -0.458261
   133  C    0.199816
   134  C    0.520413
   135  O   -0.494231
   136  C   -0.339760
   137  H    0.309833
   138  H    0.064504
   139  H    0.091303
   140  H    0.090977
   141  H    0.113969
   142  N   -0.567643
   143  C    0.322057
   144  C    0.229552
   145  O   -0.498439
   146  C   -0.395103
   147  H    0.291069
   148  H    0.057923
   149  H    0.104708
   150  H    0.075583
   151  H    0.115415
   152  N    0.299326
   153  C   -0.734751
   154  C    0.734322
   155  O   -0.588304
   156  C    0.009714
   157  C    0.043186
   158  C    0.473884
   159  O   -0.689614
   160  O   -0.586821
   161  H   -0.145370
   162  H    0.233660
   163  H    0.204576
   164  H   -0.151743
   165  H   -0.010140
   166  H   -0.005582
   167  N   -0.148815
   168  C   -0.249704
   169  H    0.091968
   170  H    0.114571
   171  H    0.079289
   172  H    0.197051
   173  Ca   1.555627
   174  O   -0.717587
   175  H    0.267648
   176  H    0.422327
 Sum of ESP charges =   0.00000

 Normal termination of Gaussian 16 at Sat Sep 14 23:50:08 2019.
