 Gaussian 16, Revision A.03,
 Gaussian 16:  ES64L-G16RevA.03 25-Dec-2016

 ----------------------------------------------------------------------
 #b3lyp/svp scf=(tight,noincore) Test #IOP(5/87=12) Density=Current Pop
 =(MK,readradii) iop(6/33=2) iop(6/42=6)
 ----------------------------------------------------------------------

 -----------------
 CaMKII_loop3_36.0
 -----------------
 Symbolic Z-matrix:
 Charge =  0 Multiplicity = 1

                         Standard orientation:
 ---------------------------------------------------------------------
 Center     Atomic      Atomic             Coordinates (Angstroms)
 Number     Number       Type             X           Y           Z
 ---------------------------------------------------------------------
      1          6           0        2.248168    1.570600    5.758790
      2          6           0        1.711765    1.627596    4.334423
      3          8           0        2.456776    1.592342    3.360351
      4          1           0        3.233719    1.104678    5.757478
      5          1           0        2.325205    2.581422    6.159221
      6          1           0        1.570853    0.983620    6.379120
      7          7           0        0.386310    1.677681    4.152049
      8          6           0       -0.294812    1.866383    2.894446
      9          6           0       -0.017244    3.267569    2.372302
     10          8           0       -0.486064    4.263935    2.902548
     11          6           0       -1.734141    1.457996    3.209804
     12          6           0       -2.487950    1.325285    1.903105
     13          8           0       -1.932245    1.617633    0.824438
     14          8           0       -3.657639    0.904156    1.998391
     15          1           0       -0.184516    1.611183    4.986457
     16          1           0        0.051458    1.201350    2.101712
     17          1           0       -2.078022    2.307773    3.795743
     18          1           0       -1.757587    0.594317    3.879960
     19          7           0        0.711887    3.380713    1.258854
     20          6           0        1.326225    4.584452    0.736359
     21          6           0        0.373595    5.512484    0.008449
     22          8           0        0.100297    6.679654    0.314425
     23          6           0        2.596263    4.192302   -0.004534
     24          6           0        3.518786    5.390436   -0.258159
     25          6           0        4.667517    5.155431   -1.229030
     26          6           0        5.604339    6.361418   -1.296554
     27          7           0        6.780516    6.209515   -2.167721
     28          1           0        0.890830    2.529064    0.739938
     29          1           0        1.594878    5.226544    1.579534
     30          1           0        2.311357    3.902636   -1.016622
     31          1           0        3.130389    3.398666    0.505909
     32          1           0        4.075144    5.592251    0.648117
     33          1           0        2.951682    6.272316   -0.568289
     34          1           0        4.332303    4.797124   -2.210176
     35          1           0        5.206317    4.352566   -0.728229
     36          1           0        5.896491    6.644197   -0.284732
     37          1           0        5.049245    7.120390   -1.856582
     38          1           0        7.403958    5.474390   -1.867038
     39          1           0        6.618053    5.945271   -3.134407
     40          1           0        7.293679    7.059706   -2.307506
     41          7           0       -0.402110    4.890952   -0.892818
     42          6           0       -1.588431    5.452607   -1.507786
     43          6           0       -2.903905    5.303339   -0.768498
     44          8           0       -3.856180    5.999345   -1.118567
     45          6           0       -1.771600    4.981692   -2.950453
     46          6           0       -1.955764    3.471529   -3.077308
     47          8           0       -2.058021    2.772628   -2.053403
     48          8           0       -2.160303    2.965616   -4.196064
     49          1           0       -0.309629    3.885899   -0.923071
     50          1           0       -1.330919    6.509816   -1.565196
     51          1           0       -0.962527    5.292176   -3.612496
     52          1           0       -2.652793    5.477897   -3.334092
     53          7           0       -2.944897    4.409181    0.212726
     54          6           0       -4.046097    4.231014    1.145795
     55          6           0       -5.087933    3.210474    0.694491
     56          8           0       -6.188656    3.206995    1.253148
     57          1           0       -2.062625    3.964777    0.412476
     58          1           0       -4.607464    5.143059    1.338514
     59          1           0       -3.620337    3.988135    2.113647
     60          7           0       -4.849086    2.502556   -0.410047
     61          6           0       -5.955809    1.827492   -1.047190
     62          6           0       -6.602295    0.654660   -0.320952
     63          8           0       -7.455249   -0.001933   -0.914967
     64          6           0       -5.610196    1.448132   -2.487064
     65          6           0       -4.853230    0.130182   -2.632011
     66          7           0       -5.136283   -0.604927   -3.714644
     67          8           0       -3.875225   -0.174080   -1.949565
     68          1           0       -3.949426    2.623764   -0.846993
     69          1           0       -6.780709    2.531643   -1.146242
     70          1           0       -5.058702    2.236725   -2.995273
     71          1           0       -6.521311    1.310182   -3.056045
     72          1           0       -5.838398   -0.330519   -4.379952
     73          1           0       -4.650683   -1.484308   -3.809423
     74          7           0       -6.179309    0.254700    0.878888
     75          6           0       -6.663281   -0.879038    1.636126
     76          6           0       -5.617138   -1.963659    1.822894
     77          8           0       -5.876176   -3.027404    2.383648
     78          1           0       -5.420896    0.790931    1.262250
     79          1           0       -7.590124   -1.270945    1.198897
     80          1           0       -6.921610   -0.579976    2.645496
     81          7           0       -4.399945   -1.882105    1.287458
     82          6           0       -3.489082   -2.975862    1.033639
     83          6           0       -2.090131   -2.363540    1.105038
     84          8           0       -1.898974   -1.325318    0.483947
     85          6           0       -3.796733   -3.462639   -0.381599
     86          6           0       -5.143438   -4.101044   -0.610128
     87          6           0       -5.311270   -5.464545   -0.330137
     88          6           0       -6.219116   -3.369098   -1.116658
     89          6           0       -6.437837   -6.152481   -0.798636
     90          6           0       -7.447733   -3.998502   -1.369149
     91          6           0       -7.498219   -5.402458   -1.356539
     92          8           0       -8.524244   -6.127464   -1.886009
     93          1           0       -4.200090   -0.987406    0.859823
     94          1           0       -3.607908   -3.754197    1.783289
     95          1           0       -3.026862   -4.196193   -0.644081
     96          1           0       -3.604398   -2.596593   -1.023995
     97          1           0       -4.481785   -6.071134   -0.000736
     98          1           0       -6.180573   -2.317347   -1.357978
     99          1           0       -6.411280   -7.218603   -0.667568
    100          1           0       -8.245710   -3.371519   -1.744281
    101          1           0       -9.022082   -5.695009   -2.582816
    102          7           0       -1.099468   -2.959197    1.782149
    103          6           0        0.323366   -2.749442    1.648927
    104          6           0        0.915377   -3.834891    0.765851
    105          8           0        0.612278   -5.015572    0.898604
    106          6           0        1.149976   -2.800441    2.928229
    107          6           0        0.377293   -2.589106    4.228536
    108          6           0        2.332212   -1.856443    2.794871
    109          6           0        1.156619   -3.193590    5.392430
    110          1           0       -1.440985   -3.662346    2.414088
    111          1           0        0.511576   -1.818677    1.098151
    112          1           0        1.501477   -3.829951    3.067712
    113          1           0       -0.622847   -3.015580    4.193342
    114          1           0        0.296047   -1.503267    4.352850
    115          1           0        1.942022   -0.842452    2.755199
    116          1           0        3.007837   -1.817804    3.655881
    117          1           0        2.905424   -1.914344    1.862897
    118          1           0        0.725109   -2.915329    6.358490
    119          1           0        1.121496   -4.272338    5.298252
    120          1           0        2.181112   -2.831035    5.490244
    121          7           0        1.758712   -3.390521   -0.173682
    122          6           0        2.573884   -4.228100   -1.019882
    123          6           0        4.055991   -3.924908   -0.830062
    124          8           0        4.325185   -3.094549    0.040592
    125          6           0        2.122837   -3.964721   -2.455217
    126          8           0        2.202304   -2.603904   -2.816967
    127          1           0        1.898903   -2.397637   -0.257514
    128          1           0        2.355848   -5.265936   -0.764820
    129          1           0        1.185079   -4.447473   -2.717438
    130          1           0        2.825360   -4.418345   -3.153134
    131          1           0        2.195625   -2.544711   -3.779179
    132          7           0        5.001146   -4.664824   -1.416327
    133          6           0        6.355968   -4.754529   -0.912134
    134          6           0        7.119135   -3.450479   -1.105862
    135          8           0        7.911297   -3.026636   -0.277045
    136          6           0        7.169967   -5.861852   -1.573301
    137          1           0        4.749236   -5.292697   -2.171652
    138          1           0        6.329082   -4.868145    0.168869
    139          1           0        8.192874   -5.961331   -1.210306
    140          1           0        6.697669   -6.842884   -1.444032
    141          1           0        7.320569   -5.677048   -2.631350
    142          7           0        6.849874   -2.761111   -2.228167
    143          6           0        7.406990   -1.452821   -2.505112
    144          6           0        7.045803   -0.376017   -1.501849
    145          8           0        7.854389    0.381247   -0.963481
    146          6           0        6.915162   -1.017024   -3.876347
    147          1           0        6.260406   -3.179801   -2.932530
    148          1           0        8.490780   -1.426343   -2.616909
    149          1           0        5.859506   -0.748159   -3.878045
    150          1           0        7.489556   -0.140124   -4.167583
    151          1           0        7.139528   -1.828354   -4.577777
    152          7           0        5.790151   -0.407540   -1.053692
    153          6           0        5.329207    0.385455    0.069157
    154          6           0        5.912227   -0.068954    1.398706
    155          8           0        6.148148    0.770521    2.254874
    156          6           0        3.800089    0.330972    0.054076
    157          6           0        3.072860    0.560666   -1.265120
    158          6           0        1.563182    0.518720   -1.075348
    159          8           0        1.052432   -0.529467   -0.630782
    160          8           0        0.875685    1.557575   -1.210365
    161          1           0        5.125866   -1.031291   -1.494328
    162          1           0        5.668945    1.414849   -0.035848
    163          1           0        3.484897    1.089662    0.772228
    164          1           0        3.462960   -0.593312    0.516075
    165          1           0        3.320279   -0.271160   -1.935753
    166          1           0        3.416530    1.531376   -1.623187
    167          7           0        6.142957   -1.371337    1.554146
    168          6           0        6.688816   -1.819138    2.828239
    169          1           0        7.690924   -2.219573    2.672705
    170          1           0        6.737177   -0.977469    3.518771
    171          1           0        6.048739   -2.595780    3.245760
    172          1           0        5.884697   -2.051672    0.856331
    173         20           0       -1.416444    0.399382   -1.327123
    174          8           0       -0.549168   -2.021560   -2.240016
    175          1           0        0.403808   -2.019817   -2.267102
    176          1           0       -0.790605   -2.939652   -2.339092
 ---------------------------------------------------------------------

 SCF Done:  E(RB3LYP) =  -5333.58559438     A.U. after   20 cycles

 The electronic state is 1-A.
 Alpha  occ. eigenvalues -- -145.35499 -19.20314 -19.15457 -19.15218 -19.13632
 Alpha  occ. eigenvalues --  -19.12797 -19.10932 -19.10436 -19.10258 -19.09993
 Alpha  occ. eigenvalues --  -19.08906 -19.08630 -19.06978 -19.06778 -19.06388
 Alpha  occ. eigenvalues --  -19.06180 -19.04684 -19.04073 -19.03488 -19.03476
 Alpha  occ. eigenvalues --  -19.03351 -19.03002 -19.02027 -19.00228 -15.41254
 Alpha  occ. eigenvalues --  -14.59136 -14.41630 -14.39210 -14.35933 -14.35889
 Alpha  occ. eigenvalues --  -14.35639 -14.35507 -14.33079 -14.32438 -14.32066
 Alpha  occ. eigenvalues --  -14.30851 -14.29810 -14.29539 -14.29391 -14.29300
 Alpha  occ. eigenvalues --  -12.54870 -12.54836 -12.54807 -10.35422 -10.33645
 Alpha  occ. eigenvalues --  -10.31333 -10.29331 -10.29297 -10.29088 -10.28581
 Alpha  occ. eigenvalues --  -10.28271 -10.27928 -10.27804 -10.27533 -10.26981
 Alpha  occ. eigenvalues --  -10.26103 -10.26050 -10.25525 -10.24822 -10.24712
 Alpha  occ. eigenvalues --  -10.23769 -10.23539 -10.23067 -10.23045 -10.22830
 Alpha  occ. eigenvalues --  -10.22813 -10.22640 -10.22416 -10.22178 -10.22160
 Alpha  occ. eigenvalues --  -10.22127 -10.21692 -10.21527 -10.21004 -10.20192
 Alpha  occ. eigenvalues --  -10.19906 -10.19590 -10.19316 -10.19068 -10.18434
 Alpha  occ. eigenvalues --  -10.18343 -10.18258 -10.17900 -10.17790 -10.17723
 Alpha  occ. eigenvalues --  -10.17477 -10.17331 -10.17034 -10.16935 -10.16596
 Alpha  occ. eigenvalues --  -10.16529 -10.16253 -10.16252 -10.16159 -10.15706
 Alpha  occ. eigenvalues --  -10.15030 -10.13589  -1.78158  -1.14443  -1.08830
 Alpha  occ. eigenvalues --   -1.08047  -1.06170  -1.06052  -1.05824  -1.05448
 Alpha  occ. eigenvalues --   -1.03676  -1.03530  -1.03429  -1.03099  -1.02813
 Alpha  occ. eigenvalues --   -1.02186  -1.01763  -1.00517  -1.00086  -0.99566
 Alpha  occ. eigenvalues --   -0.98706  -0.98320  -0.98131  -0.97790  -0.97442
 Alpha  occ. eigenvalues --   -0.97129  -0.96607  -0.95976  -0.95683  -0.93689
 Alpha  occ. eigenvalues --   -0.93310  -0.92591  -0.92298  -0.90173  -0.89822
 Alpha  occ. eigenvalues --   -0.89690  -0.89023  -0.88710  -0.88268  -0.87704
 Alpha  occ. eigenvalues --   -0.87459  -0.87014  -0.86110  -0.86020  -0.85389
 Alpha  occ. eigenvalues --   -0.83652  -0.82229  -0.81623  -0.81537  -0.80798
 Alpha  occ. eigenvalues --   -0.79388  -0.78750  -0.76556  -0.76026  -0.75409
 Alpha  occ. eigenvalues --   -0.75044  -0.74034  -0.73766  -0.72934  -0.72744
 Alpha  occ. eigenvalues --   -0.71839  -0.71391  -0.71247  -0.71179  -0.70461
 Alpha  occ. eigenvalues --   -0.69766  -0.69206  -0.68541  -0.67923  -0.67639
 Alpha  occ. eigenvalues --   -0.67574  -0.66950  -0.65579  -0.64383  -0.63442
 Alpha  occ. eigenvalues --   -0.63286  -0.63172  -0.62914  -0.62752  -0.61661
 Alpha  occ. eigenvalues --   -0.61598  -0.61266  -0.60369  -0.60005  -0.59346
 Alpha  occ. eigenvalues --   -0.59011  -0.58584  -0.58057  -0.57826  -0.57192
 Alpha  occ. eigenvalues --   -0.57050  -0.57041  -0.56810  -0.56670  -0.56587
 Alpha  occ. eigenvalues --   -0.55602  -0.55431  -0.55099  -0.54661  -0.54404
 Alpha  occ. eigenvalues --   -0.53980  -0.53929  -0.53716  -0.53076  -0.52768
 Alpha  occ. eigenvalues --   -0.52718  -0.52320  -0.52039  -0.51843  -0.51675
 Alpha  occ. eigenvalues --   -0.51237  -0.50672  -0.50564  -0.50180  -0.50043
 Alpha  occ. eigenvalues --   -0.49679  -0.49230  -0.48734  -0.48705  -0.48558
 Alpha  occ. eigenvalues --   -0.48414  -0.48156  -0.47902  -0.47399  -0.47191
 Alpha  occ. eigenvalues --   -0.47144  -0.46782  -0.46686  -0.46560  -0.46379
 Alpha  occ. eigenvalues --   -0.45968  -0.45691  -0.45443  -0.45352  -0.45278
 Alpha  occ. eigenvalues --   -0.45025  -0.44906  -0.44627  -0.44474  -0.44312
 Alpha  occ. eigenvalues --   -0.44170  -0.44038  -0.43905  -0.43754  -0.43637
 Alpha  occ. eigenvalues --   -0.43337  -0.43062  -0.42885  -0.42772  -0.42753
 Alpha  occ. eigenvalues --   -0.42573  -0.42176  -0.42164  -0.42054  -0.42010
 Alpha  occ. eigenvalues --   -0.41852  -0.41812  -0.41634  -0.41391  -0.41190
 Alpha  occ. eigenvalues --   -0.40963  -0.40711  -0.40653  -0.40519  -0.40319
 Alpha  occ. eigenvalues --   -0.40160  -0.39963  -0.39918  -0.39776  -0.39533
 Alpha  occ. eigenvalues --   -0.39382  -0.39267  -0.39106  -0.38995  -0.38985
 Alpha  occ. eigenvalues --   -0.38754  -0.38662  -0.38585  -0.38531  -0.38372
 Alpha  occ. eigenvalues --   -0.37999  -0.37932  -0.37859  -0.37607  -0.37472
 Alpha  occ. eigenvalues --   -0.37254  -0.37226  -0.36976  -0.36793  -0.36784
 Alpha  occ. eigenvalues --   -0.36707  -0.36559  -0.36435  -0.36238  -0.35833
 Alpha  occ. eigenvalues --   -0.35458  -0.35145  -0.34943  -0.34881  -0.34727
 Alpha  occ. eigenvalues --   -0.34572  -0.34522  -0.34449  -0.34283  -0.34016
 Alpha  occ. eigenvalues --   -0.33801  -0.33629  -0.33535  -0.33479  -0.33277
 Alpha  occ. eigenvalues --   -0.33134  -0.33035  -0.32987  -0.32818  -0.32620
 Alpha  occ. eigenvalues --   -0.32424  -0.32279  -0.31939  -0.31081  -0.30841
 Alpha  occ. eigenvalues --   -0.30721  -0.30632  -0.30546  -0.30495  -0.30323
 Alpha  occ. eigenvalues --   -0.30103  -0.29642  -0.28155  -0.28029  -0.27666
 Alpha  occ. eigenvalues --   -0.27516  -0.27081  -0.26855  -0.26713  -0.26525
 Alpha  occ. eigenvalues --   -0.26172  -0.26028  -0.25346  -0.24704  -0.24563
 Alpha  occ. eigenvalues --   -0.24383  -0.23341  -0.23272  -0.23126  -0.22983
 Alpha  occ. eigenvalues --   -0.22801  -0.22615  -0.22365  -0.21969  -0.21591
 Alpha  occ. eigenvalues --   -0.21467  -0.21212  -0.20857  -0.20573  -0.20503
 Alpha  occ. eigenvalues --   -0.19627  -0.19431  -0.19189  -0.18863  -0.18752
 Alpha  occ. eigenvalues --   -0.18166  -0.18063  -0.16244
 Alpha virt. eigenvalues --   -0.11156  -0.05157  -0.04200  -0.04183  -0.03282
 Alpha virt. eigenvalues --   -0.01899  -0.01453  -0.00522   0.00045   0.00493
 Alpha virt. eigenvalues --    0.00898   0.01158   0.01463   0.01537   0.02195

 Mulliken charges:
               1
     1  C    0.061613
     2  C    0.027194
     3  O   -0.293858
     4  H    0.033686
     5  H    0.041484
     6  H    0.006588
     7  N   -0.122790
     8  C    0.089879
     9  C    0.076190
    10  O   -0.271950
    11  C    0.041781
    12  C    0.192802
    13  O   -0.474561
    14  O   -0.382973
    15  H    0.112455
    16  H   -0.002160
    17  H    0.014973
    18  H    0.008767
    19  N   -0.141337
    20  C    0.144401
    21  C    0.026748
    22  O   -0.269455
    23  C    0.068529
    24  C   -0.036243
    25  C   -0.036344
    26  C    0.042085
    27  N    0.084284
    28  H    0.151902
    29  H   -0.002017
    30  H    0.014966
    31  H    0.037922
    32  H    0.002036
    33  H    0.033068
    34  H    0.027704
    35  H    0.036480
    36  H    0.089042
    37  H    0.063666
    38  H    0.190073
    39  H    0.179300
    40  H    0.184342
    41  N   -0.172299
    42  C    0.142403
    43  C    0.055146
    44  O   -0.289581
    45  C    0.064820
    46  C    0.093588
    47  O   -0.469316
    48  O   -0.371545
    49  H    0.140126
    50  H   -0.001284
    51  H   -0.021066
    52  H    0.022018
    53  N   -0.156683
    54  C    0.248092
    55  C    0.032654
    56  O   -0.316566
    57  H    0.150804
    58  H    0.024779
    59  H    0.023608
    60  N   -0.145457
    61  C    0.178325
    62  C    0.028403
    63  O   -0.325664
    64  C    0.063763
    65  C    0.099557
    66  N   -0.040164
    67  O   -0.361141
    68  H    0.163547
    69  H    0.022688
    70  H    0.071603
    71  H   -0.008109
    72  H    0.129099
    73  H    0.126736
    74  N   -0.139142
    75  C    0.258302
    76  C    0.001391
    77  O   -0.317247
    78  H    0.152841
    79  H    0.044306
    80  H    0.020786
    81  N   -0.140331
    82  C    0.151196
    83  C    0.118401
    84  O   -0.359496
    85  C    0.121182
    86  C    0.019661
    87  C    0.013528
    88  C   -0.028099
    89  C   -0.020471
    90  C   -0.039181
    91  C    0.182637
    92  O   -0.226721
    93  H    0.140616
    94  H   -0.009123
    95  H   -0.033826
    96  H   -0.012708
    97  H   -0.040959
    98  H   -0.021569
    99  H   -0.035100
   100  H   -0.032289
   101  H    0.174041
   102  N   -0.087920
   103  C    0.129920
   104  C    0.027319
   105  O   -0.285968
   106  C   -0.079151
   107  C    0.046144
   108  C    0.028619
   109  C    0.017363
   110  H    0.126296
   111  H    0.042091
   112  H   -0.015928
   113  H   -0.016427
   114  H   -0.007274
   115  H    0.025183
   116  H    0.003471
   117  H    0.028458
   118  H    0.001409
   119  H    0.010235
   120  H    0.006079
   121  N   -0.137064
   122  C    0.129646
   123  C    0.091954
   124  O   -0.257620
   125  C    0.195298
   126  O   -0.298171
   127  H    0.149368
   128  H    0.038635
   129  H    0.012179
   130  H   -0.041164
   131  H    0.188082
   132  N   -0.128702
   133  C    0.092685
   134  C    0.045215
   135  O   -0.236212
   136  C    0.046308
   137  H    0.121630
   138  H    0.029398
   139  H    0.048518
   140  H    0.035615
   141  H    0.000330
   142  N   -0.124906
   143  C    0.104247
   144  C    0.052557
   145  O   -0.262404
   146  C    0.015163
   147  H    0.096176
   148  H    0.011429
   149  H    0.011859
   150  H    0.020545
   151  H    0.018429
   152  N   -0.157752
   153  C    0.167873
   154  C    0.067363
   155  O   -0.272688
   156  C   -0.062747
   157  C    0.157158
   158  C    0.091066
   159  O   -0.396990
   160  O   -0.412571
   161  H    0.116970
   162  H   -0.031837
   163  H    0.043983
   164  H    0.000539
   165  H   -0.034094
   166  H   -0.035138
   167  N   -0.171709
   168  C    0.122559
   169  H    0.020164
   170  H    0.041320
   171  H    0.006532
   172  H    0.136516
   173  Ca   1.316179
   174  O   -0.311433
   175  H    0.165681
   176  H    0.168330
 Sum of Mulliken charges =  -0.00000

 Dipole moment (field-independent basis, Debye):
    X=             38.9602    Y=             -1.8863    Z=            -20.7070  Tot=             44.1614
 Quadrupole moment (field-independent basis, Debye-Ang):
   XX=           -518.2265   YY=           -481.1423   ZZ=           -503.2221
   XY=            144.5890   XZ=            -74.0666   YZ=             -4.2877

 ESP charges:
               1
     1  C   -0.448943
     2  C    0.878036
     3  O   -0.684307
     4  H    0.131387
     5  H    0.117940
     6  H    0.096390
     7  N   -0.784947
     8  C    0.344186
     9  C    0.328837
    10  O   -0.505916
    11  C   -0.215618
    12  C    0.903627
    13  O   -1.087825
    14  O   -0.746843
    15  H    0.353315
    16  H    0.016393
    17  H    0.057601
    18  H    0.058034
    19  N    0.360610
    20  C   -0.906029
    21  C    0.772818
    22  O   -0.563201
    23  C    0.437216
    24  C   -0.215374
    25  C    0.145035
    26  C   -0.120413
    27  N   -0.217214
    28  H    0.032098
    29  H    0.216731
    30  H   -0.003837
    31  H   -0.000285
    32  H    0.061825
    33  H    0.050142
    34  H   -0.005704
    35  H    0.002064
    36  H    0.128696
    37  H    0.108155
    38  H    0.294018
    39  H    0.291155
    40  H    0.296598
    41  N   -0.541119
    42  C    0.140553
    43  C    0.377777
    44  O   -0.550392
    45  C   -0.292046
    46  C    0.774571
    47  O   -0.834479
    48  O   -0.708791
    49  H    0.332896
    50  H    0.072038
    51  H    0.061408
    52  H    0.105688
    53  N    0.031521
    54  C   -0.371493
    55  C    0.720988
    56  O   -0.614022
    57  H    0.114792
    58  H    0.149325
    59  H    0.148360
    60  N   -0.577594
    61  C    0.042926
    62  C    0.366486
    63  O   -0.533842
    64  C   -0.374968
    65  C    0.723005
    66  N   -0.797397
    67  O   -0.640065
    68  H    0.449197
    69  H    0.138224
    70  H    0.198614
    71  H    0.096332
    72  H    0.387765
    73  H    0.371423
    74  N   -0.093903
    75  C   -0.274983
    76  C    0.704821
    77  O   -0.602261
    78  H    0.281771
    79  H    0.160569
    80  H    0.094955
    81  N   -0.586750
    82  C    0.364951
    83  C    0.463308
    84  O   -0.398158
    85  C   -0.205072
    86  C   -0.059534
    87  C    0.080024
    88  C   -0.224574
    89  C   -0.368896
    90  C   -0.194840
    91  C    0.382271
    92  O   -0.534006
    93  H    0.269115
    94  H    0.022973
    95  H    0.018004
    96  H    0.104712
    97  H    0.058553
    98  H    0.172509
    99  H    0.173908
   100  H    0.119157
   101  H    0.378846
   102  N   -0.703993
   103  C    0.335271
   104  C    0.375542
   105  O   -0.544102
   106  C    0.120771
   107  C    0.130201
   108  C   -0.193945
   109  C   -0.292784
   110  H    0.329733
   111  H   -0.021194
   112  H   -0.016501
   113  H    0.001247
   114  H   -0.035948
   115  H    0.083506
   116  H    0.073358
   117  H   -0.138682
   118  H    0.064890
   119  H    0.067958
   120  H    0.073101
   121  N   -0.066235
   122  C   -0.130137
   123  C    0.518357
   124  O   -0.402827
   125  C    0.074576
   126  O   -0.573865
   127  H    0.166718
   128  H    0.111577
   129  H    0.058204
   130  H    0.014588
   131  H    0.421555
   132  N   -0.440437
   133  C    0.143398
   134  C    0.545423
   135  O   -0.525366
   136  C   -0.323803
   137  H    0.275094
   138  H    0.071451
   139  H    0.127514
   140  H    0.099165
   141  H    0.083701
   142  N   -0.553870
   143  C    0.399291
   144  C    0.232205
   145  O   -0.502750
   146  C   -0.332979
   147  H    0.272252
   148  H    0.018419
   149  H    0.066981
   150  H    0.097982
   151  H    0.077641
   152  N   -0.115552
   153  C   -0.106644
   154  C    0.518961
   155  O   -0.559170
   156  C   -0.308484
   157  C   -0.276980
   158  C    0.762744
   159  O   -0.615170
   160  O   -0.741985
   161  H    0.182809
   162  H    0.093278
   163  H    0.166766
   164  H    0.231676
   165  H    0.055406
   166  H    0.033294
   167  N   -0.020017
   168  C   -0.240777
   169  H    0.079487
   170  H    0.115140
   171  H    0.067046
   172  H    0.124415
   173  Ca   1.646356
   174  O   -0.900289
   175  H    0.388755
   176  H    0.435085
 Sum of ESP charges =   0.00000

 Normal termination of Gaussian 16 at Wed Sep 18 16:11:41 2019.
