 Gaussian 16, Revision A.03,
 Gaussian 16:  ES64L-G16RevA.03 25-Dec-2016

 ----------------------------------------------------------------------
 #b3lyp/svp scf=(tight,noincore) Test #IOP(5/87=12) Density=Current Pop
 =(MK,readradii) iop(6/33=2) iop(6/42=6)
 ----------------------------------------------------------------------

 -----------------
 CaMKII_loop3_98.0
 -----------------
 Symbolic Z-matrix:
 Charge =  0 Multiplicity = 1

                         Standard orientation:
 ---------------------------------------------------------------------
 Center     Atomic      Atomic             Coordinates (Angstroms)
 Number     Number       Type             X           Y           Z
 ---------------------------------------------------------------------
      1          6           0       -1.897808   -1.687649    6.039878
      2          6           0       -1.314741   -1.707961    4.633066
      3          8           0       -2.082289   -1.622621    3.679658
      4          1           0       -2.952190   -1.417188    5.991358
      5          1           0       -1.796585   -2.675117    6.490185
      6          1           0       -1.363456   -0.955203    6.644903
      7          7           0       -0.015184   -1.901507    4.431590
      8          6           0        0.588427   -1.909224    3.107960
      9          6           0        0.543505   -3.317223    2.553235
     10          8           0        1.127233   -4.250287    3.104555
     11          6           0        2.002063   -1.375576    3.305575
     12          6           0        2.720841   -1.228965    1.971010
     13          8           0        2.252982   -1.600481    0.872109
     14          8           0        3.780798   -0.557039    1.968151
     15          1           0        0.547510   -2.037022    5.262860
     16          1           0        0.033080   -1.165266    2.527772
     17          1           0        2.640493   -1.972481    3.946365
     18          1           0        1.969585   -0.392146    3.783811
     19          7           0       -0.147351   -3.482387    1.414447
     20          6           0       -0.569522   -4.752615    0.861100
     21          6           0        0.501095   -5.522462    0.101353
     22          8           0        0.322493   -6.683642   -0.261775
     23          6           0       -1.695554   -4.409747   -0.105281
     24          6           0       -2.709833   -5.512061   -0.373124
     25          6           0       -3.973189   -4.958971   -1.026058
     26          6           0       -3.910682   -4.543063   -2.490576
     27          7           0       -3.999615   -5.667672   -3.441600
     28          1           0       -0.575283   -2.687775    0.970640
     29          1           0       -0.928955   -5.338095    1.706926
     30          1           0       -1.225275   -4.078806   -1.034913
     31          1           0       -2.192263   -3.547272    0.324390
     32          1           0       -2.973830   -5.991829    0.573781
     33          1           0       -2.142113   -6.183725   -1.019932
     34          1           0       -4.364822   -4.160642   -0.395030
     35          1           0       -4.733696   -5.741796   -1.062329
     36          1           0       -2.935985   -4.069213   -2.620309
     37          1           0       -4.751361   -3.882280   -2.695574
     38          1           0       -3.205443   -6.283080   -3.378652
     39          1           0       -4.898885   -6.134711   -3.372400
     40          1           0       -4.001268   -5.336676   -4.402557
     41          7           0        1.593719   -4.863219   -0.285136
     42          6           0        2.797429   -5.414099   -0.869269
     43          6           0        4.085141   -4.758658   -0.370475
     44          8           0        5.109792   -5.030170   -0.982742
     45          6           0        2.739057   -5.177808   -2.374115
     46          6           0        2.578585   -3.711182   -2.734472
     47          8           0        2.503972   -3.451788   -3.956294
     48          8           0        2.448296   -2.751913   -1.944708
     49          1           0        1.608868   -3.867628   -0.103014
     50          1           0        2.692030   -6.474171   -0.662293
     51          1           0        1.827530   -5.634611   -2.765072
     52          1           0        3.612095   -5.594738   -2.886046
     53          7           0        4.134424   -3.928603    0.669803
     54          6           0        5.360476   -3.565885    1.362791
     55          6           0        6.267715   -2.537451    0.686079
     56          8           0        7.484295   -2.604053    0.780406
     57          1           0        3.204871   -3.761446    1.030344
     58          1           0        5.915043   -4.416844    1.759812
     59          1           0        4.925320   -3.034778    2.208524
     60          7           0        5.664609   -1.609031   -0.061718
     61          6           0        6.298453   -0.722572   -1.012471
     62          6           0        6.473730    0.636870   -0.337124
     63          8           0        7.121531    1.434740   -1.019442
     64          6           0        5.562152   -0.732943   -2.347406
     65          6           0        4.489904    0.343106   -2.386181
     66          7           0        4.415973    1.138567   -3.460925
     67          8           0        3.755954    0.608748   -1.428866
     68          1           0        4.780810   -1.291446    0.324855
     69          1           0        7.304568   -1.129905   -1.103097
     70          1           0        5.163772   -1.736699   -2.492553
     71          1           0        6.276729   -0.463965   -3.133237
     72          1           0        4.899134    1.014264   -4.333224
     73          1           0        3.718063    1.869236   -3.425646
     74          7           0        6.071650    0.845156    0.909972
     75          6           0        6.209221    2.024998    1.744447
     76          6           0        5.000587    2.937321    1.854309
     77          8           0        5.098326    3.952885    2.547977
     78          1           0        5.446036    0.149342    1.309285
     79          1           0        7.059381    2.635025    1.438514
     80          1           0        6.366009    1.768116    2.788109
     81          7           0        3.933349    2.706093    1.086562
     82          6           0        2.768571    3.556441    0.966563
     83          6           0        1.457565    2.786978    0.990890
     84          8           0        1.403748    1.635061    0.554668
     85          6           0        2.734728    4.379590   -0.319431
     86          6           0        4.016071    4.962775   -0.870845
     87          6           0        4.339144    6.279285   -0.506807
     88          6           0        4.912255    4.249161   -1.668158
     89          6           0        5.382166    6.906570   -1.189975
     90          6           0        6.038625    4.816546   -2.282295
     91          6           0        6.224142    6.195542   -2.064455
     92          8           0        7.261407    6.894990   -2.612866
     93          1           0        3.925591    1.846028    0.553900
     94          1           0        2.779780    4.303649    1.753490
     95          1           0        1.978398    5.141775   -0.125427
     96          1           0        2.282045    3.759620   -1.088726
     97          1           0        3.704952    6.847839    0.161211
     98          1           0        4.719996    3.202062   -1.863659
     99          1           0        5.638184    7.928262   -0.955882
    100          1           0        6.648236    4.204415   -2.928026
    101          1           0        7.770742    6.275620   -3.136563
    102          7           0        0.417821    3.441935    1.515165
    103          6           0       -0.950146    2.971592    1.612858
    104          6           0       -1.828997    3.766928    0.655173
    105          8           0       -1.795244    4.987760    0.755317
    106          6           0       -1.482470    3.056605    3.040620
    107          6           0       -0.536564    2.556087    4.128252
    108          6           0       -2.768211    2.257161    3.182263
    109          6           0       -1.001855    2.960710    5.523524
    110          1           0        0.615345    4.289791    2.026853
    111          1           0       -0.940215    1.912498    1.365634
    112          1           0       -1.649723    4.108792    3.289274
    113          1           0        0.475997    2.940257    3.954660
    114          1           0       -0.482477    1.460509    4.087229
    115          1           0       -3.340010    2.549466    4.065441
    116          1           0       -3.446337    2.445300    2.353499
    117          1           0       -2.540620    1.197270    3.240855
    118          1           0       -2.023767    2.678453    5.720060
    119          1           0       -0.369810    2.505512    6.286292
    120          1           0       -0.881834    4.047224    5.514505
    121          7           0       -2.624104    3.113699   -0.184409
    122          6           0       -3.559122    3.751099   -1.091086
    123          6           0       -4.969631    3.363428   -0.658795
    124          8           0       -5.179436    2.460039    0.147722
    125          6           0       -3.333677    3.245217   -2.509169
    126          8           0       -3.551221    1.854931   -2.528648
    127          1           0       -2.680866    2.108860   -0.093982
    128          1           0       -3.496032    4.829913   -0.967066
    129          1           0       -2.274763    3.407467   -2.711099
    130          1           0       -4.006495    3.746287   -3.200288
    131          1           0       -3.236916    1.447013   -3.347559
    132          7           0       -5.962615    4.022715   -1.263544
    133          6           0       -7.372353    3.812408   -1.008571
    134          6           0       -7.809243    2.383043   -1.292549
    135          8           0       -8.769368    1.869288   -0.731197
    136          6           0       -8.097194    4.858483   -1.853516
    137          1           0       -5.747835    4.794806   -1.877095
    138          1           0       -7.603651    3.998226    0.037456
    139          1           0       -7.661520    5.838085   -1.638184
    140          1           0       -7.938147    4.666510   -2.906013
    141          1           0       -9.173055    4.817688   -1.670599
    142          7           0       -7.071101    1.715304   -2.192421
    143          6           0       -7.300450    0.325623   -2.528856
    144          6           0       -6.853108   -0.559500   -1.365652
    145          8           0       -7.529294   -1.543728   -1.070070
    146          6           0       -6.453664   -0.177057   -3.686122
    147          1           0       -6.331209    2.232313   -2.631353
    148          1           0       -8.361619    0.141160   -2.682456
    149          1           0       -6.803505    0.474872   -4.479848
    150          1           0       -5.389425   -0.054267   -3.492686
    151          1           0       -6.663593   -1.213718   -3.956981
    152          7           0       -5.763497   -0.192694   -0.698494
    153          6           0       -5.136624   -0.993647    0.342710
    154          6           0       -5.779783   -0.772325    1.703872
    155          8           0       -6.014529   -1.692902    2.480682
    156          6           0       -3.633209   -0.759057    0.301359
    157          6           0       -3.126227   -1.183241   -1.077204
    158          6           0       -1.614812   -1.255835   -1.162979
    159          8           0       -0.957515   -1.013159   -0.125015
    160          8           0       -1.011878   -1.260355   -2.265725
    161          1           0       -5.404900    0.713132   -0.927815
    162          1           0       -5.248663   -2.034955    0.049582
    163          1           0       -3.225285   -1.440904    1.046801
    164          1           0       -3.311012    0.269892    0.438665
    165          1           0       -3.474555   -0.431523   -1.781824
    166          1           0       -3.597938   -2.113977   -1.384804
    167          7           0       -6.102971    0.499004    1.939822
    168          6           0       -6.893953    1.022211    3.041730
    169          1           0       -7.313761    0.194111    3.611731
    170          1           0       -6.259313    1.625324    3.691581
    171          1           0       -7.702104    1.638650    2.648595
    172          1           0       -5.937537    1.150415    1.188427
    173         20           0        1.363733   -0.416989   -1.173247
    174          8           0        1.460748   -0.830303   -3.826294
    175          1           0        0.992803   -0.679317   -4.648444
    176          1           0        1.905900   -1.673591   -3.961222
 ---------------------------------------------------------------------

 SCF Done:  E(RB3LYP) =  -5333.61044789     A.U. after   17 cycles

 The electronic state is 1-A.
 Alpha  occ. eigenvalues -- -145.37911 -19.20614 -19.16719 -19.15359 -19.13659
 Alpha  occ. eigenvalues --  -19.12641 -19.12463 -19.12458 -19.11349 -19.09648
 Alpha  occ. eigenvalues --  -19.08624 -19.07818 -19.07658 -19.07465 -19.07138
 Alpha  occ. eigenvalues --  -19.06953 -19.06470 -19.05846 -19.05733 -19.04806
 Alpha  occ. eigenvalues --  -19.04427 -19.04312 -19.03231 -19.01456 -15.43632
 Alpha  occ. eigenvalues --  -14.57672 -14.42142 -14.39435 -14.38862 -14.38520
 Alpha  occ. eigenvalues --  -14.37170 -14.35421 -14.34046 -14.33239 -14.32556
 Alpha  occ. eigenvalues --  -14.32539 -14.31962 -14.31664 -14.30543 -14.29008
 Alpha  occ. eigenvalues --  -12.57256 -12.57211 -12.57191 -10.34827 -10.33427
 Alpha  occ. eigenvalues --  -10.31596 -10.31474 -10.31118 -10.30968 -10.30450
 Alpha  occ. eigenvalues --  -10.29098 -10.28273 -10.27998 -10.27518 -10.26616
 Alpha  occ. eigenvalues --  -10.26076 -10.25895 -10.25832 -10.25728 -10.25708
 Alpha  occ. eigenvalues --  -10.25680 -10.25053 -10.24902 -10.24814 -10.24102
 Alpha  occ. eigenvalues --  -10.23909 -10.23610 -10.23476 -10.23257 -10.23017
 Alpha  occ. eigenvalues --  -10.22763 -10.22364 -10.22269 -10.21966 -10.21245
 Alpha  occ. eigenvalues --  -10.20610 -10.20398 -10.20297 -10.20250 -10.20226
 Alpha  occ. eigenvalues --  -10.19654 -10.19544 -10.19346 -10.19074 -10.18821
 Alpha  occ. eigenvalues --  -10.18806 -10.18638 -10.18336 -10.18291 -10.18220
 Alpha  occ. eigenvalues --  -10.18152 -10.18096 -10.18029 -10.17737 -10.17420
 Alpha  occ. eigenvalues --  -10.17023 -10.14294  -1.80403  -1.12683  -1.10132
 Alpha  occ. eigenvalues --   -1.08409  -1.08037  -1.07939  -1.07626  -1.06211
 Alpha  occ. eigenvalues --   -1.05801  -1.05433  -1.04981  -1.04168  -1.03233
 Alpha  occ. eigenvalues --   -1.02794  -1.01347  -1.00549  -1.00179  -0.99744
 Alpha  occ. eigenvalues --   -0.99713  -0.99685  -0.99252  -0.98844  -0.98298
 Alpha  occ. eigenvalues --   -0.97968  -0.97457  -0.96983  -0.96328  -0.95591
 Alpha  occ. eigenvalues --   -0.95320  -0.92792  -0.92399  -0.91572  -0.90826
 Alpha  occ. eigenvalues --   -0.90507  -0.90357  -0.89557  -0.89123  -0.88940
 Alpha  occ. eigenvalues --   -0.88828  -0.87511  -0.87368  -0.86457  -0.86351
 Alpha  occ. eigenvalues --   -0.84786  -0.84005  -0.83093  -0.81628  -0.80726
 Alpha  occ. eigenvalues --   -0.80506  -0.79540  -0.78934  -0.76991  -0.76322
 Alpha  occ. eigenvalues --   -0.75761  -0.75079  -0.73508  -0.73399  -0.73240
 Alpha  occ. eigenvalues --   -0.72991  -0.72946  -0.71927  -0.71436  -0.71412
 Alpha  occ. eigenvalues --   -0.70838  -0.70346  -0.69978  -0.69322  -0.68703
 Alpha  occ. eigenvalues --   -0.67760  -0.67506  -0.66501  -0.65539  -0.64749
 Alpha  occ. eigenvalues --   -0.64333  -0.64161  -0.63541  -0.63415  -0.62761
 Alpha  occ. eigenvalues --   -0.62079  -0.61751  -0.61562  -0.61312  -0.60421
 Alpha  occ. eigenvalues --   -0.60194  -0.60046  -0.59521  -0.58500  -0.58303
 Alpha  occ. eigenvalues --   -0.58116  -0.57964  -0.57006  -0.56797  -0.56700
 Alpha  occ. eigenvalues --   -0.56238  -0.56189  -0.55508  -0.55502  -0.55341
 Alpha  occ. eigenvalues --   -0.54782  -0.54556  -0.54411  -0.54103  -0.53743
 Alpha  occ. eigenvalues --   -0.53670  -0.53287  -0.53190  -0.52856  -0.52333
 Alpha  occ. eigenvalues --   -0.52064  -0.51824  -0.51633  -0.51515  -0.51220
 Alpha  occ. eigenvalues --   -0.50895  -0.50173  -0.49990  -0.49621  -0.49570
 Alpha  occ. eigenvalues --   -0.49484  -0.49000  -0.48730  -0.48090  -0.48011
 Alpha  occ. eigenvalues --   -0.47816  -0.47670  -0.47397  -0.47364  -0.47234
 Alpha  occ. eigenvalues --   -0.47198  -0.46732  -0.46372  -0.46209  -0.45974
 Alpha  occ. eigenvalues --   -0.45932  -0.45835  -0.45647  -0.45128  -0.44862
 Alpha  occ. eigenvalues --   -0.44765  -0.44753  -0.44682  -0.44596  -0.44241
 Alpha  occ. eigenvalues --   -0.44196  -0.44099  -0.44036  -0.43875  -0.43607
 Alpha  occ. eigenvalues --   -0.43482  -0.43318  -0.43243  -0.42870  -0.42800
 Alpha  occ. eigenvalues --   -0.42713  -0.42581  -0.42480  -0.42315  -0.42252
 Alpha  occ. eigenvalues --   -0.41926  -0.41733  -0.41532  -0.41519  -0.41316
 Alpha  occ. eigenvalues --   -0.41230  -0.40959  -0.40878  -0.40858  -0.40560
 Alpha  occ. eigenvalues --   -0.40306  -0.40111  -0.39995  -0.39917  -0.39781
 Alpha  occ. eigenvalues --   -0.39710  -0.39556  -0.39459  -0.39411  -0.39100
 Alpha  occ. eigenvalues --   -0.38977  -0.38849  -0.38712  -0.38618  -0.38446
 Alpha  occ. eigenvalues --   -0.38416  -0.38393  -0.38304  -0.38000  -0.37801
 Alpha  occ. eigenvalues --   -0.37619  -0.37341  -0.37301  -0.37192  -0.36740
 Alpha  occ. eigenvalues --   -0.36488  -0.36425  -0.36387  -0.36235  -0.35828
 Alpha  occ. eigenvalues --   -0.35807  -0.35714  -0.35605  -0.35395  -0.35267
 Alpha  occ. eigenvalues --   -0.35248  -0.35124  -0.35083  -0.34828  -0.34716
 Alpha  occ. eigenvalues --   -0.34331  -0.34141  -0.33756  -0.33710  -0.33645
 Alpha  occ. eigenvalues --   -0.33439  -0.33342  -0.33104  -0.33056  -0.32865
 Alpha  occ. eigenvalues --   -0.32391  -0.32269  -0.31982  -0.31444  -0.30814
 Alpha  occ. eigenvalues --   -0.30558  -0.30272  -0.30064  -0.29569  -0.29300
 Alpha  occ. eigenvalues --   -0.29186  -0.28172  -0.28107  -0.27745  -0.27680
 Alpha  occ. eigenvalues --   -0.26893  -0.26383  -0.25700  -0.25378  -0.25036
 Alpha  occ. eigenvalues --   -0.24890  -0.24760  -0.24108  -0.23857  -0.23849
 Alpha  occ. eigenvalues --   -0.23730  -0.23475  -0.23281  -0.23256  -0.23149
 Alpha  occ. eigenvalues --   -0.22927  -0.22371  -0.22188  -0.21935  -0.21379
 Alpha  occ. eigenvalues --   -0.21243  -0.20988  -0.20370  -0.19982  -0.19835
 Alpha  occ. eigenvalues --   -0.19669  -0.19264  -0.17384
 Alpha virt. eigenvalues --   -0.09705  -0.04859  -0.03883  -0.03279  -0.03109
 Alpha virt. eigenvalues --   -0.02074  -0.01762  -0.01216  -0.00535  -0.00384
 Alpha virt. eigenvalues --   -0.00324  -0.00035   0.00473   0.01323   0.01901

 Mulliken charges:
               1
     1  C    0.058620
     2  C    0.007318
     3  O   -0.291400
     4  H    0.036816
     5  H    0.036930
     6  H    0.011964
     7  N   -0.127356
     8  C    0.118076
     9  C    0.104236
    10  O   -0.287884
    11  C    0.070944
    12  C    0.144134
    13  O   -0.465438
    14  O   -0.403384
    15  H    0.115046
    16  H    0.020052
    17  H    0.013382
    18  H    0.013558
    19  N   -0.146080
    20  C    0.115522
    21  C    0.073455
    22  O   -0.309817
    23  C   -0.071069
    24  C    0.069403
    25  C   -0.019614
    26  C   -0.007533
    27  N    0.081050
    28  H    0.150508
    29  H    0.012908
    30  H    0.027901
    31  H    0.024501
    32  H    0.032373
    33  H   -0.005812
    34  H    0.079294
    35  H   -0.008513
    36  H    0.096231
    37  H    0.081790
    38  H    0.198723
    39  H    0.188686
    40  H    0.188805
    41  N   -0.165782
    42  C    0.138262
    43  C    0.044507
    44  O   -0.292377
    45  C    0.113076
    46  C    0.106693
    47  O   -0.418268
    48  O   -0.457728
    49  H    0.150917
    50  H    0.014156
    51  H   -0.015608
    52  H    0.035599
    53  N   -0.119944
    54  C    0.240547
    55  C    0.028635
    56  O   -0.266842
    57  H    0.129657
    58  H    0.018692
    59  H    0.000805
    60  N   -0.197978
    61  C    0.106737
    62  C    0.032928
    63  O   -0.319063
    64  C    0.178613
    65  C    0.077899
    66  N   -0.031341
    67  O   -0.392324
    68  H    0.140612
    69  H    0.032866
    70  H    0.084834
    71  H   -0.001981
    72  H    0.129468
    73  H    0.121767
    74  N   -0.137247
    75  C    0.232606
    76  C    0.020808
    77  O   -0.307483
    78  H    0.146084
    79  H    0.047584
    80  H    0.027758
    81  N   -0.120480
    82  C    0.113329
    83  C    0.123918
    84  O   -0.351204
    85  C    0.144738
    86  C    0.015556
    87  C    0.009516
    88  C   -0.011827
    89  C   -0.010349
    90  C   -0.024248
    91  C    0.154386
    92  O   -0.192456
    93  H    0.151228
    94  H   -0.007381
    95  H   -0.016201
    96  H   -0.047381
    97  H   -0.031578
    98  H   -0.057758
    99  H   -0.024946
   100  H   -0.036238
   101  H    0.169144
   102  N   -0.115296
   103  C    0.149484
   104  C    0.075415
   105  O   -0.279996
   106  C   -0.110408
   107  C    0.001265
   108  C    0.033545
   109  C    0.039415
   110  H    0.139876
   111  H    0.005137
   112  H   -0.012631
   113  H   -0.011085
   114  H    0.012996
   115  H    0.011549
   116  H   -0.009893
   117  H    0.044751
   118  H    0.009884
   119  H    0.015095
   120  H    0.004873
   121  N   -0.114784
   122  C    0.086197
   123  C    0.085625
   124  O   -0.279785
   125  C    0.245595
   126  O   -0.315286
   127  H    0.147681
   128  H    0.044860
   129  H    0.026733
   130  H   -0.006776
   131  H    0.204650
   132  N   -0.135833
   133  C    0.080884
   134  C    0.064687
   135  O   -0.239411
   136  C    0.038385
   137  H    0.123316
   138  H    0.035682
   139  H    0.032856
   140  H    0.003778
   141  H    0.056176
   142  N   -0.148528
   143  C    0.108766
   144  C    0.019084
   145  O   -0.274135
   146  C    0.062018
   147  H    0.101208
   148  H    0.019148
   149  H    0.010366
   150  H   -0.004366
   151  H    0.019561
   152  N   -0.170802
   153  C    0.107374
   154  C    0.104990
   155  O   -0.264897
   156  C    0.053388
   157  C    0.053580
   158  C    0.114131
   159  O   -0.435210
   160  O   -0.401350
   161  H    0.130451
   162  H   -0.028345
   163  H    0.055464
   164  H   -0.023816
   165  H   -0.019047
   166  H   -0.065778
   167  N   -0.172724
   168  C    0.130441
   169  H    0.037295
   170  H    0.012046
   171  H    0.018244
   172  H    0.121523
   173  Ca   1.305262
   174  O   -0.329777
   175  H    0.157919
   176  H    0.151075
 Sum of Mulliken charges =  -0.00000

 Dipole moment (field-independent basis, Debye):
    X=            -27.5358    Y=              4.9700    Z=            -19.3160  Tot=             34.0004
 Quadrupole moment (field-independent basis, Debye-Ang):
   XX=           -663.4922   YY=           -527.3952   ZZ=           -473.2287
   XY=             48.1688   XZ=             76.6873   YZ=             28.7899

 ESP charges:
               1
     1  C   -0.441330
     2  C    0.886868
     3  O   -0.661251
     4  H    0.133328
     5  H    0.112224
     6  H    0.088279
     7  N   -0.767495
     8  C    0.153123
     9  C    0.511625
    10  O   -0.548578
    11  C   -0.153082
    12  C    0.873732
    13  O   -0.844443
    14  O   -0.771836
    15  H    0.354751
    16  H    0.081759
    17  H    0.067150
    18  H    0.039910
    19  N    0.154947
    20  C   -0.919318
    21  C    0.890785
    22  O   -0.613072
    23  C    0.587212
    24  C   -0.294969
    25  C    0.060260
    26  C    0.092574
    27  N   -0.489407
    28  H   -0.013254
    29  H    0.249070
    30  H   -0.015629
    31  H   -0.002864
    32  H    0.104225
    33  H    0.035286
    34  H    0.030103
    35  H    0.000569
    36  H    0.061949
    37  H    0.089863
    38  H    0.378032
    39  H    0.359196
    40  H    0.346163
    41  N   -0.607096
    42  C    0.098961
    43  C    0.367849
    44  O   -0.500743
    45  C   -0.340969
    46  C    0.873225
    47  O   -0.743542
    48  O   -0.771693
    49  H    0.309814
    50  H    0.111251
    51  H    0.085639
    52  H    0.111044
    53  N   -0.164750
    54  C   -0.097513
    55  C    0.492382
    56  O   -0.559723
    57  H    0.143473
    58  H    0.098640
    59  H    0.060090
    60  N   -0.147857
    61  C    0.011809
    62  C    0.392284
    63  O   -0.511945
    64  C   -0.261037
    65  C    0.656518
    66  N   -0.752594
    67  O   -0.681453
    68  H    0.120401
    69  H    0.125873
    70  H    0.152157
    71  H    0.085979
    72  H    0.383889
    73  H    0.330711
    74  N   -0.309409
    75  C   -0.080537
    76  C    0.685393
    77  O   -0.605038
    78  H    0.280101
    79  H    0.113002
    80  H    0.063339
    81  N   -0.671700
    82  C    0.306327
    83  C    0.571755
    84  O   -0.665836
    85  C    0.061096
    86  C   -0.298403
    87  C    0.173833
    88  C    0.083150
    89  C   -0.478469
    90  C   -0.495787
    91  C    0.556330
    92  O   -0.568516
    93  H    0.444654
    94  H    0.026393
    95  H   -0.006660
    96  H   -0.019688
    97  H    0.060248
    98  H    0.132188
    99  H    0.196233
   100  H    0.181903
   101  H    0.405263
   102  N   -0.609494
   103  C    0.061721
   104  C    0.630007
   105  O   -0.560327
   106  C    0.213277
   107  C    0.368048
   108  C   -0.342427
   109  C   -0.386520
   110  H    0.316910
   111  H    0.091748
   112  H   -0.044304
   113  H   -0.089571
   114  H   -0.074027
   115  H    0.102939
   116  H    0.033929
   117  H    0.062634
   118  H    0.087711
   119  H    0.093522
   120  H    0.066474
   121  N   -0.527262
   122  C    0.293899
   123  C    0.354009
   124  O   -0.287420
   125  C   -0.209277
   126  O   -0.294371
   127  H    0.295665
   128  H    0.044699
   129  H    0.110233
   130  H    0.076707
   131  H    0.371520
   132  N   -0.380503
   133  C    0.099215
   134  C    0.548929
   135  O   -0.507305
   136  C   -0.308671
   137  H    0.278287
   138  H    0.086600
   139  H    0.098994
   140  H    0.078128
   141  H    0.121426
   142  N   -0.519619
   143  C    0.372391
   144  C    0.254589
   145  O   -0.546289
   146  C   -0.472973
   147  H    0.292498
   148  H    0.049651
   149  H    0.098947
   150  H    0.117480
   151  H    0.139368
   152  N    0.506255
   153  C   -0.238403
   154  C    0.450846
   155  O   -0.524307
   156  C    0.133414
   157  C    0.098171
   158  C    0.562843
   159  O   -0.721252
   160  O   -0.719709
   161  H   -0.552379
   162  H    0.066810
   163  H    0.104080
   164  H   -0.089929
   165  H   -0.045443
   166  H   -0.156344
   167  N   -0.121485
   168  C   -0.124561
   169  H    0.091382
   170  H    0.048234
   171  H    0.057166
   172  H    0.135906
   173  Ca   1.726243
   174  O   -0.876058
   175  H    0.415030
   176  H    0.403004
 Sum of ESP charges =  -0.00000

 Normal termination of Gaussian 16 at Sun Sep 15 01:18:41 2019.
