 Gaussian 16, Revision A.03,
 Gaussian 16:  ES64L-G16RevA.03 25-Dec-2016

 ----------------------------------------------------------------------
 #b3lyp/svp scf=(tight,noincore) Test #IOP(5/87=12) Density=Current Pop
 =(MK,readradii) iop(6/33=2) iop(6/42=6)
 ----------------------------------------------------------------------

 ------------------
 CaMKII_loop3_110.0
 ------------------
 Symbolic Z-matrix:
 Charge =  0 Multiplicity = 1

                         Standard orientation:
 ---------------------------------------------------------------------
 Center     Atomic      Atomic             Coordinates (Angstroms)
 Number     Number       Type             X           Y           Z
 ---------------------------------------------------------------------
      1          6           0        1.179891    4.918287    5.369351
      2          6           0        0.908446    4.429880    3.958722
      3          8           0        1.856753    4.360404    3.167529
      4          1           0        2.256463    4.961154    5.537102
      5          1           0        0.752380    5.912662    5.498312
      6          1           0        0.728001    4.231628    6.084962
      7          7           0       -0.342288    4.021534    3.741190
      8          6           0       -0.674006    3.475043    2.434932
      9          6           0       -0.694748    4.564379    1.373556
     10          8           0       -1.113756    5.713976    1.509783
     11          6           0       -1.970621    2.688184    2.564708
     12          6           0       -2.123622    1.679100    1.436684
     13          8           0       -1.902185    0.463951    1.676846
     14          8           0       -2.304333    2.005542    0.251197
     15          1           0       -1.057763    4.135442    4.443415
     16          1           0        0.057170    2.685431    2.243371
     17          1           0       -2.817678    3.363991    2.551282
     18          1           0       -1.942231    2.107209    3.497587
     19          7           0       -0.272280    4.190228    0.158965
     20          6           0       -0.204931    4.995468   -1.037427
     21          6           0       -1.487418    5.034396   -1.853154
     22          8           0       -1.559307    5.922259   -2.708392
     23          6           0        0.955161    4.543206   -1.924133
     24          6           0        2.378512    4.598708   -1.369252
     25          6           0        2.757919    6.062713   -1.160351
     26          6           0        4.060292    6.187288   -0.370537
     27          7           0        4.393924    7.578621   -0.037849
     28          1           0       -0.097895    3.205107    0.019952
     29          1           0        0.020978    6.043090   -0.841336
     30          1           0        0.907079    5.137877   -2.832018
     31          1           0        0.694027    3.503315   -2.160216
     32          1           0        2.929213    4.075410   -2.153017
     33          1           0        2.537017    4.117685   -0.396630
     34          1           0        1.999565    6.587434   -0.580983
     35          1           0        2.971783    6.491420   -2.131007
     36          1           0        4.845602    5.690867   -0.928170
     37          1           0        3.961804    5.548054    0.510303
     38          1           0        4.427814    8.212779   -0.822765
     39          1           0        3.847844    7.995599    0.703789
     40          1           0        5.338178    7.639792    0.312499
     41          7           0       -2.414834    4.087563   -1.696924
     42          6           0       -3.727943    4.129769   -2.322515
     43          6           0       -4.907460    3.644362   -1.497458
     44          8           0       -6.083877    3.790554   -1.848273
     45          6           0       -3.814046    3.179516   -3.518093
     46          6           0       -3.231694    1.791135   -3.306756
     47          8           0       -2.436968    1.321951   -4.159972
     48          8           0       -3.272403    1.130185   -2.248461
     49          1           0       -2.212537    3.358310   -1.025905
     50          1           0       -4.015075    5.122132   -2.660404
     51          1           0       -3.151939    3.705146   -4.204699
     52          1           0       -4.831972    3.141404   -3.899111
     53          7           0       -4.632611    3.190484   -0.271998
     54          6           0       -5.585163    2.759944    0.733825
     55          6           0       -6.372236    1.533920    0.297385
     56          8           0       -7.545141    1.385166    0.639099
     57          1           0       -3.635052    3.214433   -0.123326
     58          1           0       -6.289069    3.573835    0.933566
     59          1           0       -5.018201    2.647867    1.658050
     60          7           0       -5.794981    0.635237   -0.499826
     61          6           0       -6.395477   -0.581658   -0.986317
     62          6           0       -6.589996   -1.654969    0.072723
     63          8           0       -6.943672   -2.752073   -0.332957
     64          6           0       -5.820340   -1.020995   -2.332980
     65          6           0       -4.500071   -1.780512   -2.364971
     66          7           0       -4.067635   -2.454697   -3.431307
     67          8           0       -3.856792   -1.767333   -1.321218
     68          1           0       -4.945071    0.831396   -1.017970
     69          1           0       -7.436715   -0.314659   -1.192796
     70          1           0       -5.713192   -0.175366   -3.024016
     71          1           0       -6.580979   -1.641712   -2.808205
     72          1           0       -4.633672   -2.515942   -4.259831
     73          1           0       -3.223226   -3.015696   -3.370848
     74          7           0       -6.288041   -1.363712    1.343350
     75          6           0       -6.401727   -2.187578    2.529445
     76          6           0       -5.292471   -3.191341    2.801127
     77          8           0       -5.433263   -4.112022    3.594804
     78          1           0       -6.121156   -0.390258    1.589593
     79          1           0       -7.314458   -2.747864    2.357397
     80          1           0       -6.552117   -1.552489    3.407309
     81          7           0       -4.154859   -3.120046    2.097952
     82          6           0       -2.843780   -3.631023    2.434666
     83          6           0       -1.639628   -2.806084    2.011120
     84          8           0       -1.696129   -2.092741    1.023572
     85          6           0       -2.730536   -5.030441    1.834328
     86          6           0       -2.563034   -5.133218    0.334168
     87          6           0       -3.622283   -5.356159   -0.546280
     88          6           0       -1.299465   -4.942312   -0.239284
     89          6           0       -3.345919   -5.325183   -1.913929
     90          6           0       -0.968251   -4.866798   -1.604127
     91          6           0       -2.053353   -5.163453   -2.448549
     92          8           0       -1.936575   -5.277851   -3.806258
     93          1           0       -4.103842   -2.401450    1.384288
     94          1           0       -2.899656   -3.729706    3.525005
     95          1           0       -3.642738   -5.592197    2.031600
     96          1           0       -1.899373   -5.553748    2.303815
     97          1           0       -4.589933   -5.592708   -0.114774
     98          1           0       -0.449924   -4.709761    0.382649
     99          1           0       -4.160890   -5.656003   -2.542801
    100          1           0        0.034380   -4.699925   -1.969893
    101          1           0       -1.020206   -5.110846   -4.056012
    102          7           0       -0.556275   -2.929645    2.788346
    103          6           0        0.749483   -2.388041    2.488079
    104          6           0        1.657902   -3.402777    1.799322
    105          8           0        1.842535   -4.488223    2.339522
    106          6           0        1.415381   -1.655337    3.643512
    107          6           0        0.353349   -0.987732    4.505482
    108          6           0        2.546304   -0.680165    3.336016
    109          6           0        0.865147   -0.189697    5.711758
    110          1           0       -0.628929   -3.281332    3.732029
    111          1           0        0.547759   -1.551576    1.814779
    112          1           0        1.820071   -2.472096    4.241869
    113          1           0       -0.166555   -1.826782    4.963733
    114          1           0       -0.252694   -0.326038    3.889467
    115          1           0        3.317428   -1.166019    2.745412
    116          1           0        2.155930    0.257222    2.930905
    117          1           0        3.044387   -0.484470    4.285392
    118          1           0        1.651716   -0.735796    6.238621
    119          1           0        1.277287    0.733311    5.314647
    120          1           0        0.052935    0.051201    6.396215
    121          7           0        2.153796   -3.062456    0.603174
    122          6           0        3.179669   -3.822234   -0.084737
    123          6           0        4.578712   -3.261522    0.054124
    124          8           0        4.789153   -2.134672    0.506699
    125          6           0        2.730583   -4.104008   -1.516493
    126          8           0        2.427680   -2.906325   -2.203374
    127          1           0        1.931822   -2.119063    0.303445
    128          1           0        3.233986   -4.809739    0.379141
    129          1           0        1.840654   -4.728303   -1.403440
    130          1           0        3.430142   -4.690243   -2.108477
    131          1           0        1.787264   -2.427140   -1.674178
    132          7           0        5.590620   -4.120150   -0.110496
    133          6           0        6.988287   -3.786517    0.095697
    134          6           0        7.459855   -2.536810   -0.625661
    135          8           0        8.165789   -1.780147    0.044052
    136          6           0        7.705448   -5.013191   -0.475575
    137          1           0        5.470613   -5.066346   -0.422765
    138          1           0        7.241721   -3.636894    1.141634
    139          1           0        7.573332   -5.829342    0.235650
    140          1           0        7.360266   -5.373386   -1.446404
    141          1           0        8.746441   -4.693814   -0.590600
    142          7           0        7.128183   -2.135958   -1.858833
    143          6           0        7.534529   -0.883285   -2.457157
    144          6           0        6.717823    0.355413   -2.090936
    145          8           0        7.214579    1.466224   -2.276222
    146          6           0        7.605169   -1.102235   -3.961973
    147          1           0        6.855073   -2.870914   -2.495504
    148          1           0        8.523980   -0.593530   -2.092426
    149          1           0        8.393167   -1.838821   -4.145823
    150          1           0        6.716928   -1.654628   -4.239083
    151          1           0        7.794304   -0.167828   -4.493020
    152          7           0        5.562772    0.203702   -1.445459
    153          6           0        4.983738    1.271094   -0.654072
    154          6           0        5.858499    1.463330    0.577974
    155          8           0        6.161993    2.557446    1.049781
    156          6           0        3.530959    1.084000   -0.255791
    157          6           0        2.580853    0.741057   -1.400601
    158          6           0        1.185805    0.384378   -0.935927
    159          8           0        0.332598    1.285189   -0.765410
    160          8           0        0.890275   -0.814531   -0.719871
    161          1           0        5.077465   -0.674225   -1.402770
    162          1           0        4.987461    2.196962   -1.238500
    163          1           0        3.203990    2.005666    0.237893
    164          1           0        3.475737    0.237194    0.436790
    165          1           0        3.048324   -0.078871   -1.943361
    166          1           0        2.571281    1.517559   -2.169726
    167          7           0        6.306162    0.380340    1.212034
    168          6           0        7.109982    0.464152    2.415591
    169          1           0        8.163600    0.523444    2.144146
    170          1           0        6.829900    1.354414    2.979429
    171          1           0        6.941859   -0.422000    3.027976
    172          1           0        5.965074   -0.542681    0.968949
    173         20           0       -1.733001   -0.293617   -0.831554
    174          8           0       -1.442298   -0.960469   -3.341932
    175          1           0       -1.818252   -0.284119   -3.912729
    176          1           0       -1.281876   -1.698433   -3.923459
 ---------------------------------------------------------------------

 SCF Done:  E(RB3LYP) =  -5333.61695531     A.U. after   15 cycles

 The electronic state is 1-A.
 Alpha  occ. eigenvalues -- -145.33954 -19.17109 -19.13945 -19.13904 -19.11647
 Alpha  occ. eigenvalues --  -19.11311 -19.10959 -19.10093 -19.09865 -19.09759
 Alpha  occ. eigenvalues --  -19.09567 -19.09467 -19.08528 -19.08199 -19.07485
 Alpha  occ. eigenvalues --  -19.07457 -19.07321 -19.07267 -19.06525 -19.06405
 Alpha  occ. eigenvalues --  -19.06175 -19.05072 -19.04413 -19.02556 -15.39722
 Alpha  occ. eigenvalues --  -14.57212 -14.39359 -14.37845 -14.36430 -14.36013
 Alpha  occ. eigenvalues --  -14.35869 -14.35298 -14.35292 -14.33842 -14.33053
 Alpha  occ. eigenvalues --  -14.33035 -14.32548 -14.32388 -14.31661 -14.30353
 Alpha  occ. eigenvalues --  -12.53328 -12.53309 -12.53277 -10.32053 -10.31928
 Alpha  occ. eigenvalues --  -10.30127 -10.29957 -10.28878 -10.28581 -10.28487
 Alpha  occ. eigenvalues --  -10.28252 -10.27994 -10.27043 -10.26711 -10.26666
 Alpha  occ. eigenvalues --  -10.26286 -10.26221 -10.26027 -10.25785 -10.25512
 Alpha  occ. eigenvalues --  -10.25434 -10.25316 -10.24978 -10.24943 -10.24289
 Alpha  occ. eigenvalues --  -10.23842 -10.23405 -10.23403 -10.23124 -10.22815
 Alpha  occ. eigenvalues --  -10.22732 -10.22436 -10.21805 -10.21763 -10.21747
 Alpha  occ. eigenvalues --  -10.21291 -10.20591 -10.20560 -10.20022 -10.19830
 Alpha  occ. eigenvalues --  -10.19418 -10.19323 -10.19091 -10.19088 -10.19047
 Alpha  occ. eigenvalues --  -10.18989 -10.18882 -10.18322 -10.18260 -10.18191
 Alpha  occ. eigenvalues --  -10.18073 -10.18025 -10.17827 -10.17791 -10.17702
 Alpha  occ. eigenvalues --  -10.17634 -10.14864  -1.76712  -1.12238  -1.06891
 Alpha  occ. eigenvalues --   -1.05536  -1.05217  -1.04907  -1.04732  -1.04603
 Alpha  occ. eigenvalues --   -1.03855  -1.03279  -1.03061  -1.02577  -1.02533
 Alpha  occ. eigenvalues --   -1.02446  -1.02175  -1.02048  -1.01093  -1.00963
 Alpha  occ. eigenvalues --   -1.00503  -1.00490  -0.99672  -0.99430  -0.99209
 Alpha  occ. eigenvalues --   -0.97905  -0.97549  -0.96319  -0.94083  -0.93485
 Alpha  occ. eigenvalues --   -0.93475  -0.92771  -0.92666  -0.92254  -0.91455
 Alpha  occ. eigenvalues --   -0.90998  -0.90451  -0.90004  -0.89941  -0.89286
 Alpha  occ. eigenvalues --   -0.88874  -0.88428  -0.87161  -0.86996  -0.86825
 Alpha  occ. eigenvalues --   -0.84317  -0.82288  -0.81700  -0.80188  -0.79878
 Alpha  occ. eigenvalues --   -0.78630  -0.78393  -0.78126  -0.77539  -0.76404
 Alpha  occ. eigenvalues --   -0.75476  -0.74369  -0.73767  -0.73702  -0.73165
 Alpha  occ. eigenvalues --   -0.72861  -0.72677  -0.71565  -0.71397  -0.70552
 Alpha  occ. eigenvalues --   -0.70474  -0.69748  -0.69306  -0.68139  -0.67414
 Alpha  occ. eigenvalues --   -0.67206  -0.66283  -0.66101  -0.65329  -0.65152
 Alpha  occ. eigenvalues --   -0.64872  -0.62993  -0.62684  -0.61812  -0.61785
 Alpha  occ. eigenvalues --   -0.61427  -0.60998  -0.60721  -0.60615  -0.60027
 Alpha  occ. eigenvalues --   -0.59228  -0.59135  -0.59058  -0.58683  -0.57925
 Alpha  occ. eigenvalues --   -0.57843  -0.57566  -0.57262  -0.56736  -0.56704
 Alpha  occ. eigenvalues --   -0.56178  -0.55579  -0.55368  -0.54857  -0.54695
 Alpha  occ. eigenvalues --   -0.54605  -0.54399  -0.54216  -0.53716  -0.53457
 Alpha  occ. eigenvalues --   -0.53020  -0.52551  -0.52198  -0.51867  -0.51509
 Alpha  occ. eigenvalues --   -0.51267  -0.50942  -0.50851  -0.50762  -0.49922
 Alpha  occ. eigenvalues --   -0.49565  -0.49246  -0.49111  -0.48716  -0.48669
 Alpha  occ. eigenvalues --   -0.48448  -0.48343  -0.48131  -0.48092  -0.47763
 Alpha  occ. eigenvalues --   -0.47637  -0.47556  -0.47060  -0.46929  -0.46339
 Alpha  occ. eigenvalues --   -0.46239  -0.46016  -0.45990  -0.45809  -0.45680
 Alpha  occ. eigenvalues --   -0.45297  -0.45195  -0.44969  -0.44806  -0.44647
 Alpha  occ. eigenvalues --   -0.44567  -0.44461  -0.44021  -0.43920  -0.43840
 Alpha  occ. eigenvalues --   -0.43732  -0.43606  -0.43578  -0.43406  -0.43354
 Alpha  occ. eigenvalues --   -0.43186  -0.43047  -0.42957  -0.42795  -0.42670
 Alpha  occ. eigenvalues --   -0.42364  -0.42240  -0.41927  -0.41857  -0.41818
 Alpha  occ. eigenvalues --   -0.41649  -0.41583  -0.41411  -0.41369  -0.41170
 Alpha  occ. eigenvalues --   -0.40999  -0.40781  -0.40701  -0.40644  -0.40544
 Alpha  occ. eigenvalues --   -0.40323  -0.40245  -0.40142  -0.39968  -0.39794
 Alpha  occ. eigenvalues --   -0.39713  -0.39596  -0.39444  -0.39421  -0.39126
 Alpha  occ. eigenvalues --   -0.38975  -0.38900  -0.38842  -0.38783  -0.38685
 Alpha  occ. eigenvalues --   -0.38628  -0.38362  -0.38068  -0.37975  -0.37670
 Alpha  occ. eigenvalues --   -0.37422  -0.37281  -0.37228  -0.36858  -0.36792
 Alpha  occ. eigenvalues --   -0.36719  -0.36513  -0.36433  -0.36211  -0.36124
 Alpha  occ. eigenvalues --   -0.35994  -0.35873  -0.35860  -0.35803  -0.35114
 Alpha  occ. eigenvalues --   -0.35000  -0.34938  -0.34702  -0.34553  -0.34503
 Alpha  occ. eigenvalues --   -0.33839  -0.33765  -0.33674  -0.33561  -0.33140
 Alpha  occ. eigenvalues --   -0.32855  -0.32635  -0.32439  -0.32164  -0.31968
 Alpha  occ. eigenvalues --   -0.31399  -0.30792  -0.30425  -0.30295  -0.29743
 Alpha  occ. eigenvalues --   -0.29112  -0.29048  -0.28305  -0.27991  -0.27578
 Alpha  occ. eigenvalues --   -0.27392  -0.27225  -0.26987  -0.26806  -0.26757
 Alpha  occ. eigenvalues --   -0.26491  -0.26471  -0.26295  -0.25953  -0.25497
 Alpha  occ. eigenvalues --   -0.25266  -0.25100  -0.25022  -0.24977  -0.24818
 Alpha  occ. eigenvalues --   -0.24633  -0.24588  -0.24280  -0.24113  -0.24005
 Alpha  occ. eigenvalues --   -0.23422  -0.23387  -0.22809  -0.22728  -0.22682
 Alpha  occ. eigenvalues --   -0.22247  -0.21781  -0.21771  -0.21363  -0.21245
 Alpha  occ. eigenvalues --   -0.20816  -0.20338  -0.17968
 Alpha virt. eigenvalues --   -0.09027  -0.02867  -0.02703  -0.02490  -0.01168
 Alpha virt. eigenvalues --   -0.00835   0.00065   0.00144   0.00821   0.00876
 Alpha virt. eigenvalues --    0.01094   0.01296   0.01600   0.01934   0.02355

 Mulliken charges:
               1
     1  C    0.039518
     2  C    0.044852
     3  O   -0.312202
     4  H    0.023078
     5  H    0.032103
     6  H    0.020041
     7  N   -0.121927
     8  C    0.043871
     9  C    0.089345
    10  O   -0.288273
    11  C    0.146323
    12  C    0.093465
    13  O   -0.400407
    14  O   -0.431510
    15  H    0.124196
    16  H    0.025068
    17  H   -0.002334
    18  H    0.008773
    19  N   -0.150216
    20  C    0.130215
    21  C    0.074708
    22  O   -0.310695
    23  C    0.000828
    24  C    0.035177
    25  C   -0.045929
    26  C    0.011729
    27  N    0.094815
    28  H    0.154703
    29  H   -0.009105
    30  H    0.004842
    31  H    0.032825
    32  H    0.031971
    33  H    0.037059
    34  H    0.035763
    35  H    0.012821
    36  H    0.076793
    37  H    0.099275
    38  H    0.182233
    39  H    0.195787
    40  H    0.182588
    41  N   -0.140562
    42  C    0.123158
    43  C    0.008772
    44  O   -0.292950
    45  C    0.085610
    46  C    0.126288
    47  O   -0.395299
    48  O   -0.467433
    49  H    0.167738
    50  H    0.024174
    51  H    0.008692
    52  H    0.030363
    53  N   -0.145994
    54  C    0.273840
    55  C   -0.004338
    56  O   -0.290274
    57  H    0.111241
    58  H    0.018420
    59  H    0.003341
    60  N   -0.167021
    61  C    0.146484
    62  C    0.059597
    63  O   -0.274060
    64  C    0.047981
    65  C    0.098697
    66  N   -0.026140
    67  O   -0.361002
    68  H    0.146899
    69  H    0.026776
    70  H    0.050830
    71  H    0.017090
    72  H    0.120627
    73  H    0.128252
    74  N   -0.152030
    75  C    0.200514
    76  C    0.030334
    77  O   -0.285101
    78  H    0.136395
    79  H    0.034176
    80  H    0.039973
    81  N   -0.128934
    82  C    0.116191
    83  C    0.150458
    84  O   -0.316331
    85  C    0.180256
    86  C   -0.071176
    87  C    0.005063
    88  C    0.008687
    89  C   -0.003899
    90  C   -0.028372
    91  C    0.106723
    92  O   -0.214830
    93  H    0.140462
    94  H   -0.004073
    95  H    0.009254
    96  H   -0.003257
    97  H   -0.009045
    98  H   -0.026460
    99  H   -0.019305
   100  H   -0.060810
   101  H    0.174928
   102  N   -0.122009
   103  C    0.125438
   104  C    0.106513
   105  O   -0.287850
   106  C   -0.132001
   107  C    0.003139
   108  C    0.061409
   109  C    0.029216
   110  H    0.129395
   111  H    0.016051
   112  H   -0.027554
   113  H   -0.029170
   114  H    0.029896
   115  H    0.019781
   116  H    0.034706
   117  H    0.002629
   118  H    0.005992
   119  H    0.008358
   120  H    0.007195
   121  N   -0.154745
   122  C    0.049644
   123  C    0.138027
   124  O   -0.283019
   125  C    0.258910
   126  O   -0.332569
   127  H    0.149606
   128  H    0.018376
   129  H    0.001690
   130  H   -0.019980
   131  H    0.175811
   132  N   -0.109529
   133  C    0.118892
   134  C    0.032288
   135  O   -0.269210
   136  C   -0.014577
   137  H    0.115594
   138  H    0.026918
   139  H    0.039929
   140  H    0.018848
   141  H    0.045919
   142  N   -0.123219
   143  C    0.081671
   144  C    0.084192
   145  O   -0.285834
   146  C    0.038916
   147  H    0.104933
   148  H    0.038875
   149  H    0.009426
   150  H    0.001186
   151  H    0.049925
   152  N   -0.139717
   153  C    0.147685
   154  C    0.060834
   155  O   -0.304699
   156  C   -0.027180
   157  C    0.111526
   158  C    0.186407
   159  O   -0.403154
   160  O   -0.442901
   161  H    0.129538
   162  H   -0.024903
   163  H    0.024318
   164  H    0.009780
   165  H   -0.033598
   166  H   -0.008368
   167  N   -0.170865
   168  C    0.146427
   169  H    0.024375
   170  H    0.020098
   171  H    0.002295
   172  H    0.134421
   173  Ca   1.286146
   174  O   -0.312881
   175  H    0.164473
   176  H    0.150158
 Sum of Mulliken charges =  -0.00000

 Dipole moment (field-independent basis, Debye):
    X=             26.0821    Y=              7.6853    Z=              0.6199  Tot=             27.1979
 Quadrupole moment (field-independent basis, Debye-Ang):
   XX=           -619.3900   YY=           -410.5741   ZZ=           -542.9057
   XY=             69.8134   XZ=            -24.4120   YZ=             63.1420

 ESP charges:
               1
     1  C   -0.391527
     2  C    0.753062
     3  O   -0.595915
     4  H    0.105326
     5  H    0.099072
     6  H    0.092508
     7  N   -0.722229
     8  C    0.395395
     9  C    0.445398
    10  O   -0.552770
    11  C   -0.290458
    12  C    0.650714
    13  O   -0.684473
    14  O   -0.581142
    15  H    0.353566
    16  H    0.062281
    17  H    0.088364
    18  H    0.081826
    19  N   -0.346058
    20  C    0.233832
    21  C    0.422714
    22  O   -0.561573
    23  C   -0.114706
    24  C    0.094502
    25  C   -0.387503
    26  C    0.313885
    27  N   -0.498131
    28  H   -0.015965
    29  H   -0.003427
    30  H    0.061611
    31  H    0.026469
    32  H    0.054006
    33  H    0.053494
    34  H    0.145365
    35  H    0.095122
    36  H    0.024773
    37  H    0.039805
    38  H    0.350865
    39  H    0.364214
    40  H    0.338571
    41  N   -0.183965
    42  C   -0.042475
    43  C    0.316925
    44  O   -0.500721
    45  C   -0.242014
    46  C    0.641309
    47  O   -0.718991
    48  O   -0.506907
    49  H    0.230784
    50  H    0.133588
    51  H    0.094685
    52  H    0.087152
    53  N    0.010047
    54  C   -0.392151
    55  C    0.782617
    56  O   -0.610912
    57  H    0.020884
    58  H    0.140176
    59  H    0.132386
    60  N   -0.591285
    61  C    0.198354
    62  C    0.361326
    63  O   -0.501390
    64  C   -0.330148
    65  C    0.766978
    66  N   -0.897532
    67  O   -0.539020
    68  H    0.262197
    69  H    0.093181
    70  H    0.131571
    71  H    0.080718
    72  H    0.391946
    73  H    0.417717
    74  N   -0.135500
    75  C   -0.333639
    76  C    0.512734
    77  O   -0.543928
    78  H    0.203066
    79  H    0.158348
    80  H    0.155662
    81  N   -0.115205
    82  C    0.091734
    83  C    0.364825
    84  O   -0.364942
    85  C   -0.250582
    86  C    0.149873
    87  C   -0.226417
    88  C   -0.254385
    89  C   -0.132212
    90  C   -0.260895
    91  C    0.296166
    92  O   -0.561792
    93  H    0.090281
    94  H    0.038178
    95  H    0.108588
    96  H    0.082842
    97  H    0.166375
    98  H    0.203921
    99  H    0.125156
   100  H    0.151904
   101  H    0.412026
   102  N   -0.514770
   103  C   -0.211961
   104  C    0.526853
   105  O   -0.529998
   106  C    0.591009
   107  C    0.020931
   108  C   -0.371682
   109  C   -0.204478
   110  H    0.360603
   111  H    0.052515
   112  H   -0.110881
   113  H   -0.029643
   114  H    0.012888
   115  H    0.050750
   116  H    0.090843
   117  H    0.073013
   118  H    0.031473
   119  H    0.037712
   120  H    0.059535
   121  N   -0.371727
   122  C    0.058322
   123  C    0.420516
   124  O   -0.338224
   125  C    0.221454
   126  O   -0.555869
   127  H    0.301754
   128  H    0.054507
   129  H   -0.034244
   130  H    0.023837
   131  H    0.303439
   132  N   -0.546647
   133  C    0.335243
   134  C    0.499216
   135  O   -0.563751
   136  C   -0.471484
   137  H    0.302862
   138  H    0.048118
   139  H    0.138108
   140  H    0.122472
   141  H    0.122762
   142  N   -0.430763
   143  C    0.224504
   144  C    0.327266
   145  O   -0.493744
   146  C   -0.405107
   147  H    0.255782
   148  H    0.079547
   149  H    0.099867
   150  H    0.101827
   151  H    0.142180
   152  N   -0.066265
   153  C   -0.335669
   154  C    0.569247
   155  O   -0.592175
   156  C    0.085798
   157  C    0.091172
   158  C    0.406455
   159  O   -0.421131
   160  O   -0.531791
   161  H    0.130127
   162  H    0.107118
   163  H    0.026404
   164  H   -0.075593
   165  H   -0.030370
   166  H   -0.007957
   167  N   -0.027119
   168  C   -0.288721
   169  H    0.111802
   170  H    0.106642
   171  H    0.099402
   172  H    0.083948
   173  Ca   1.294309
   174  O   -0.804879
   175  H    0.434590
   176  H    0.357851
 Sum of ESP charges =   0.00000

 Normal termination of Gaussian 16 at Sat Sep 14 23:47:16 2019.
