 Gaussian 16, Revision A.03,
 Gaussian 16:  ES64L-G16RevA.03 25-Dec-2016

 ----------------------------------------------------------------------
 #b3lyp/svp scf=(tight,noincore) Test #IOP(5/87=12) Density=Current Pop
 =(MK,readradii) iop(6/33=2) iop(6/42=6)
 ----------------------------------------------------------------------

 -----------------
 CaMKII_loop3_93.0
 -----------------
 Symbolic Z-matrix:
 Charge =  0 Multiplicity = 1

                         Standard orientation:
 ---------------------------------------------------------------------
 Center     Atomic      Atomic             Coordinates (Angstroms)
 Number     Number       Type             X           Y           Z
 ---------------------------------------------------------------------
      1          6           0        2.605716    2.717206    4.452069
      2          6           0        1.612991    2.271245    3.384728
      3          8           0        2.003887    1.807077    2.309671
      4          1           0        3.606978    2.385566    4.178043
      5          1           0        2.592396    3.804243    4.529483
      6          1           0        2.328851    2.279957    5.411563
      7          7           0        0.311313    2.500366    3.540095
      8          6           0       -0.723953    2.411428    2.529545
      9          6           0       -1.022088    3.657909    1.700085
     10          8           0       -1.980644    4.355185    1.988489
     11          6           0       -1.947718    1.647863    3.005852
     12          6           0       -2.867990    1.248339    1.861090
     13          8           0       -4.019728    0.843220    2.147059
     14          8           0       -2.421085    1.415952    0.707191
     15          1           0        0.115144    3.052074    4.360361
     16          1           0       -0.238978    1.783453    1.785269
     17          1           0       -2.583162    2.226695    3.685753
     18          1           0       -1.602681    0.762286    3.540270
     19          7           0       -0.210740    3.839258    0.650073
     20          6           0       -0.106018    4.912392   -0.314508
     21          6           0       -1.295546    5.083436   -1.243737
     22          8           0       -1.397808    6.138230   -1.878286
     23          6           0        1.230513    4.831475   -1.049720
     24          6           0        2.439122    4.810643   -0.111994
     25          6           0        2.543952    6.112364    0.684206
     26          6           0        3.964966    6.098085    1.229198
     27          7           0        4.296193    7.395113    1.835339
     28          1           0        0.449965    3.089801    0.470121
     29          1           0       -0.158847    5.911363    0.115106
     30          1           0        1.418005    5.732720   -1.644702
     31          1           0        1.243344    4.025939   -1.772733
     32          1           0        3.307997    4.653265   -0.752062
     33          1           0        2.284236    4.016707    0.607573
     34          1           0        1.889560    6.060384    1.554418
     35          1           0        2.371873    6.994572    0.068092
     36          1           0        4.620396    5.797793    0.417326
     37          1           0        4.117677    5.345730    2.005820
     38          1           0        5.204806    7.435558    2.281082
     39          1           0        4.337992    8.068249    1.080859
     40          1           0        3.511659    7.671736    2.414032
     41          7           0       -2.226284    4.131767   -1.277677
     42          6           0       -3.316788    4.196177   -2.238902
     43          6           0       -4.602449    3.642666   -1.641573
     44          8           0       -5.589315    3.633995   -2.379150
     45          6           0       -2.869765    3.671380   -3.603914
     46          6           0       -2.236598    2.294940   -3.536009
     47          8           0       -1.310053    2.099986   -4.347431
     48          8           0       -2.543226    1.465541   -2.649060
     49          1           0       -2.016658    3.277815   -0.786430
     50          1           0       -3.501352    5.257650   -2.406565
     51          1           0       -2.092792    4.321066   -4.017704
     52          1           0       -3.731742    3.582033   -4.254922
     53          7           0       -4.658387    3.405102   -0.329082
     54          6           0       -5.928183    3.063225    0.280867
     55          6           0       -6.758318    1.883009   -0.198994
     56          8           0       -7.943266    1.859499    0.100080
     57          1           0       -3.779471    3.385050    0.170122
     58          1           0       -6.575146    3.936538    0.299974
     59          1           0       -5.715144    2.807613    1.320182
     60          7           0       -6.060754    1.024035   -0.950039
     61          6           0       -6.690941   -0.211580   -1.370300
     62          6           0       -6.835717   -1.118146   -0.153428
     63          8           0       -7.579133   -2.090211   -0.271001
     64          6           0       -5.907757   -0.828762   -2.527801
     65          6           0       -4.514738   -1.405433   -2.357951
     66          7           0       -3.826763   -1.740845   -3.445880
     67          8           0       -3.970211   -1.440777   -1.261210
     68          1           0       -5.079518    1.170854   -1.159132
     69          1           0       -7.694715   -0.039636   -1.755751
     70          1           0       -5.767847    0.022463   -3.190856
     71          1           0       -6.486088   -1.570716   -3.082633
     72          1           0       -4.249555   -1.758530   -4.361049
     73          1           0       -2.908744   -2.162614   -3.358981
     74          7           0       -6.175365   -0.848948    0.983791
     75          6           0       -6.331639   -1.486068    2.276600
     76          6           0       -5.112840   -2.322513    2.663626
     77          8           0       -5.202450   -2.935604    3.723244
     78          1           0       -5.622425   -0.005044    0.970238
     79          1           0       -7.179481   -2.167879    2.240562
     80          1           0       -6.490858   -0.830234    3.126736
     81          7           0       -4.020270   -2.460886    1.914931
     82          6           0       -2.840076   -3.145149    2.381647
     83          6           0       -1.515408   -2.502183    2.010098
     84          8           0       -1.427197   -1.807861    1.000477
     85          6           0       -2.910153   -4.629222    2.000706
     86          6           0       -3.345362   -4.893803    0.582259
     87          6           0       -4.673679   -5.102696    0.208444
     88          6           0       -2.308734   -4.876004   -0.353735
     89          6           0       -5.010278   -5.262519   -1.141429
     90          6           0       -2.601836   -5.021475   -1.713709
     91          6           0       -3.954139   -5.270291   -2.069334
     92          8           0       -4.160024   -5.457146   -3.399633
     93          1           0       -4.081569   -1.993607    1.017995
     94          1           0       -2.977739   -3.114440    3.465993
     95          1           0       -3.535968   -5.268195    2.615336
     96          1           0       -1.863782   -4.955118    2.093439
     97          1           0       -5.464715   -4.941906    0.931153
     98          1           0       -1.257772   -4.790907   -0.122568
     99          1           0       -6.046828   -5.434025   -1.383812
    100          1           0       -1.817165   -4.956970   -2.450615
    101          1           0       -3.310677   -5.448357   -3.838189
    102          7           0       -0.455211   -2.763033    2.769598
    103          6           0        0.921361   -2.381289    2.497894
    104          6           0        1.656225   -3.449977    1.698594
    105          8           0        1.578326   -4.654391    1.899142
    106          6           0        1.627266   -2.112410    3.820922
    107          6           0        0.886463   -1.130436    4.718941
    108          6           0        3.017144   -1.567254    3.502106
    109          6           0        1.275303   -1.268853    6.186812
    110          1           0       -0.676529   -3.378633    3.545584
    111          1           0        0.924523   -1.450982    1.932545
    112          1           0        1.735756   -3.048127    4.384183
    113          1           0       -0.198250   -1.240485    4.663382
    114          1           0        0.880470   -0.049218    4.566196
    115          1           0        3.732240   -2.259091    3.064042
    116          1           0        2.984660   -0.683541    2.875451
    117          1           0        3.517571   -1.304236    4.436875
    118          1           0        0.891339   -2.214973    6.545182
    119          1           0        2.364086   -1.158743    6.220383
    120          1           0        0.810070   -0.464085    6.762404
    121          7           0        2.475379   -2.919057    0.782892
    122          6           0        3.315872   -3.668653   -0.127865
    123          6           0        4.781058   -3.233319   -0.110128
    124          8           0        5.154893   -2.190863    0.416779
    125          6           0        2.742495   -3.395479   -1.515819
    126          8           0        2.906024   -2.049893   -1.909337
    127          1           0        2.433077   -1.911014    0.746022
    128          1           0        3.240147   -4.718443    0.123544
    129          1           0        1.695724   -3.684291   -1.473887
    130          1           0        3.201616   -4.150030   -2.165173
    131          1           0        2.554466   -1.472647   -1.226920
    132          7           0        5.665187   -4.000505   -0.749065
    133          6           0        7.105452   -3.804636   -0.772992
    134          6           0        7.485391   -2.554888   -1.558789
    135          8           0        8.421283   -1.848608   -1.188014
    136          6           0        7.833363   -4.985208   -1.414705
    137          1           0        5.414748   -4.903643   -1.120848
    138          1           0        7.617796   -3.710024    0.181709
    139          1           0        7.553413   -5.167800   -2.453978
    140          1           0        8.906269   -4.809909   -1.297477
    141          1           0        7.553361   -5.764606   -0.718258
    142          7           0        6.707204   -2.145431   -2.565849
    143          6           0        6.977193   -0.903533   -3.271961
    144          6           0        6.640155    0.345852   -2.453095
    145          8           0        7.342378    1.350661   -2.515886
    146          6           0        6.183816   -0.955951   -4.565099
    147          1           0        6.046207   -2.778676   -2.985593
    148          1           0        8.019828   -0.893437   -3.579223
    149          1           0        5.118371   -1.017113   -4.339520
    150          1           0        6.349254   -0.041751   -5.127743
    151          1           0        6.378611   -1.803870   -5.218161
    152          7           0        5.611088    0.263449   -1.615939
    153          6           0        5.341011    1.332381   -0.676023
    154          6           0        6.384320    1.423979    0.422438
    155          8           0        6.977525    2.484253    0.612508
    156          6           0        3.902848    1.228661   -0.155706
    157          6           0        2.807922    1.294422   -1.213256
    158          6           0        1.458900    0.753541   -0.732228
    159          8           0        0.452559    1.466515   -0.884699
    160          8           0        1.369677   -0.494562   -0.593024
    161          1           0        5.137851   -0.626616   -1.483153
    162          1           0        5.488915    2.255648   -1.241887
    163          1           0        3.726437    1.992770    0.596037
    164          1           0        3.748140    0.257816    0.313256
    165          1           0        3.091920    0.661069   -2.058423
    166          1           0        2.766831    2.322560   -1.572763
    167          7           0        6.734256    0.291886    1.043494
    168          6           0        7.631950    0.157207    2.173498
    169          1           0        8.645511   -0.020319    1.813033
    170          1           0        7.612697    1.073340    2.764643
    171          1           0        7.314612   -0.682403    2.791915
    172          1           0        6.189103   -0.550484    0.894760
    173         20           0       -1.482056   -0.308605   -1.124946
    174          8           0       -1.177788   -0.549749   -3.770881
    175          1           0       -1.675259   -0.835339   -4.536884
    176          1           0       -0.933180    0.360385   -3.968674
 ---------------------------------------------------------------------

 SCF Done:  E(RB3LYP) =  -5333.61450604     A.U. after   18 cycles

 The electronic state is 1-A.
 Alpha  occ. eigenvalues -- -145.39004 -19.15952 -19.13869 -19.13011 -19.12953
 Alpha  occ. eigenvalues --  -19.12589 -19.12520 -19.11690 -19.10987 -19.10136
 Alpha  occ. eigenvalues --  -19.10049 -19.09269 -19.09086 -19.08058 -19.07519
 Alpha  occ. eigenvalues --  -19.07001 -19.05885 -19.05681 -19.05651 -19.05291
 Alpha  occ. eigenvalues --  -19.04944 -19.04599 -19.03995 -19.03339 -15.44695
 Alpha  occ. eigenvalues --  -14.58668 -14.39594 -14.37801 -14.37484 -14.37472
 Alpha  occ. eigenvalues --  -14.36325 -14.36268 -14.34851 -14.34149 -14.33029
 Alpha  occ. eigenvalues --  -14.32394 -14.32244 -14.31862 -14.31453 -14.30878
 Alpha  occ. eigenvalues --  -12.58310 -12.58290 -12.58259 -10.34181 -10.32344
 Alpha  occ. eigenvalues --  -10.31097 -10.30966 -10.30889 -10.29305 -10.28768
 Alpha  occ. eigenvalues --  -10.28319 -10.27824 -10.27374 -10.26884 -10.26101
 Alpha  occ. eigenvalues --  -10.25855 -10.25748 -10.25593 -10.25505 -10.24931
 Alpha  occ. eigenvalues --  -10.24667 -10.24535 -10.24440 -10.24321 -10.24275
 Alpha  occ. eigenvalues --  -10.23826 -10.23257 -10.23215 -10.23130 -10.23001
 Alpha  occ. eigenvalues --  -10.22997 -10.22918 -10.22184 -10.21906 -10.21634
 Alpha  occ. eigenvalues --  -10.21389 -10.21213 -10.21016 -10.20574 -10.20072
 Alpha  occ. eigenvalues --  -10.19439 -10.19204 -10.19051 -10.19000 -10.18900
 Alpha  occ. eigenvalues --  -10.18859 -10.18747 -10.18428 -10.18380 -10.18330
 Alpha  occ. eigenvalues --  -10.18323 -10.18287 -10.18130 -10.17962 -10.17955
 Alpha  occ. eigenvalues --  -10.16528 -10.14004  -1.81398  -1.13886  -1.08939
 Alpha  occ. eigenvalues --   -1.08853  -1.08639  -1.07117  -1.05634  -1.05502
 Alpha  occ. eigenvalues --   -1.05284  -1.04843  -1.04443  -1.03913  -1.03418
 Alpha  occ. eigenvalues --   -1.02171  -1.01571  -1.01446  -1.00038  -1.00003
 Alpha  occ. eigenvalues --   -0.99715  -0.99491  -0.99230  -0.99075  -0.98152
 Alpha  occ. eigenvalues --   -0.97927  -0.97626  -0.96104  -0.94616  -0.94392
 Alpha  occ. eigenvalues --   -0.93668  -0.93461  -0.92898  -0.92404  -0.92356
 Alpha  occ. eigenvalues --   -0.91025  -0.89971  -0.89715  -0.89525  -0.89425
 Alpha  occ. eigenvalues --   -0.89189  -0.88915  -0.88599  -0.87376  -0.86918
 Alpha  occ. eigenvalues --   -0.84335  -0.83497  -0.81868  -0.81364  -0.79062
 Alpha  occ. eigenvalues --   -0.78859  -0.78608  -0.77890  -0.77321  -0.76998
 Alpha  occ. eigenvalues --   -0.76051  -0.75508  -0.74673  -0.74289  -0.74161
 Alpha  occ. eigenvalues --   -0.73060  -0.72961  -0.72283  -0.72069  -0.71181
 Alpha  occ. eigenvalues --   -0.70182  -0.69109  -0.68910  -0.68642  -0.68361
 Alpha  occ. eigenvalues --   -0.66935  -0.66199  -0.65622  -0.65580  -0.64876
 Alpha  occ. eigenvalues --   -0.64331  -0.63477  -0.63272  -0.62415  -0.61630
 Alpha  occ. eigenvalues --   -0.61238  -0.61021  -0.60801  -0.60568  -0.60290
 Alpha  occ. eigenvalues --   -0.59718  -0.59571  -0.59195  -0.58950  -0.58735
 Alpha  occ. eigenvalues --   -0.58517  -0.57746  -0.57072  -0.56604  -0.56560
 Alpha  occ. eigenvalues --   -0.56351  -0.56095  -0.55481  -0.55157  -0.54779
 Alpha  occ. eigenvalues --   -0.54540  -0.54525  -0.54485  -0.53907  -0.53738
 Alpha  occ. eigenvalues --   -0.53069  -0.52791  -0.52739  -0.52460  -0.51916
 Alpha  occ. eigenvalues --   -0.51651  -0.51292  -0.50942  -0.50165  -0.49920
 Alpha  occ. eigenvalues --   -0.49831  -0.49591  -0.49280  -0.49224  -0.48931
 Alpha  occ. eigenvalues --   -0.48872  -0.48544  -0.48494  -0.48438  -0.48308
 Alpha  occ. eigenvalues --   -0.48046  -0.47590  -0.47389  -0.47341  -0.47140
 Alpha  occ. eigenvalues --   -0.46738  -0.46601  -0.46490  -0.46105  -0.46031
 Alpha  occ. eigenvalues --   -0.45593  -0.45564  -0.45083  -0.44833  -0.44767
 Alpha  occ. eigenvalues --   -0.44669  -0.44437  -0.44275  -0.44271  -0.44190
 Alpha  occ. eigenvalues --   -0.44083  -0.43961  -0.43832  -0.43664  -0.43620
 Alpha  occ. eigenvalues --   -0.43104  -0.43002  -0.42899  -0.42843  -0.42665
 Alpha  occ. eigenvalues --   -0.42487  -0.42144  -0.42107  -0.41978  -0.41932
 Alpha  occ. eigenvalues --   -0.41754  -0.41652  -0.41554  -0.41464  -0.41359
 Alpha  occ. eigenvalues --   -0.41290  -0.41122  -0.40961  -0.40821  -0.40558
 Alpha  occ. eigenvalues --   -0.40400  -0.40311  -0.40167  -0.40126  -0.40023
 Alpha  occ. eigenvalues --   -0.39910  -0.39594  -0.39550  -0.39298  -0.39261
 Alpha  occ. eigenvalues --   -0.39167  -0.38965  -0.38928  -0.38851  -0.38609
 Alpha  occ. eigenvalues --   -0.38533  -0.38209  -0.38145  -0.37985  -0.37622
 Alpha  occ. eigenvalues --   -0.37441  -0.37314  -0.37277  -0.37231  -0.37036
 Alpha  occ. eigenvalues --   -0.36869  -0.36666  -0.36452  -0.36185  -0.35925
 Alpha  occ. eigenvalues --   -0.35521  -0.35438  -0.35405  -0.35315  -0.34970
 Alpha  occ. eigenvalues --   -0.34835  -0.34580  -0.34459  -0.34407  -0.34226
 Alpha  occ. eigenvalues --   -0.34152  -0.33969  -0.33708  -0.33520  -0.33239
 Alpha  occ. eigenvalues --   -0.33213  -0.33055  -0.32829  -0.32463  -0.31924
 Alpha  occ. eigenvalues --   -0.31684  -0.31387  -0.31030  -0.30599  -0.30223
 Alpha  occ. eigenvalues --   -0.29515  -0.29437  -0.29235  -0.28905  -0.28685
 Alpha  occ. eigenvalues --   -0.28293  -0.27830  -0.27794  -0.27588  -0.27277
 Alpha  occ. eigenvalues --   -0.26889  -0.26523  -0.26382  -0.26197  -0.25637
 Alpha  occ. eigenvalues --   -0.25525  -0.25377  -0.24858  -0.24289  -0.23886
 Alpha  occ. eigenvalues --   -0.23803  -0.23647  -0.23522  -0.23457  -0.23167
 Alpha  occ. eigenvalues --   -0.22898  -0.22502  -0.22454  -0.21972  -0.21845
 Alpha  occ. eigenvalues --   -0.21626  -0.21169  -0.20995  -0.20524  -0.20485
 Alpha  occ. eigenvalues --   -0.20168  -0.20017  -0.19585
 Alpha virt. eigenvalues --   -0.10684  -0.04870  -0.04302  -0.02383  -0.02136
 Alpha virt. eigenvalues --   -0.01720  -0.00984  -0.00874  -0.00544   0.00270
 Alpha virt. eigenvalues --    0.00436   0.00621   0.00971   0.01242   0.01508

 Mulliken charges:
               1
     1  C    0.056235
     2  C    0.019239
     3  O   -0.299381
     4  H    0.043325
     5  H    0.008099
     6  H    0.035207
     7  N   -0.117969
     8  C    0.093866
     9  C    0.038932
    10  O   -0.258494
    11  C    0.084670
    12  C    0.138083
    13  O   -0.361426
    14  O   -0.461495
    15  H    0.102621
    16  H    0.013175
    17  H    0.012437
    18  H   -0.002203
    19  N   -0.159418
    20  C    0.140827
    21  C    0.054924
    22  O   -0.309648
    23  C    0.035021
    24  C   -0.019880
    25  C   -0.051084
    26  C    0.000610
    27  N    0.087810
    28  H    0.177974
    29  H   -0.009849
    30  H    0.001627
    31  H    0.044791
    32  H    0.038428
    33  H    0.027018
    34  H    0.041238
    35  H    0.028180
    36  H    0.087033
    37  H    0.075799
    38  H    0.198984
    39  H    0.187235
    40  H    0.196413
    41  N   -0.165708
    42  C    0.136948
    43  C    0.041515
    44  O   -0.299663
    45  C    0.131196
    46  C    0.086886
    47  O   -0.389932
    48  O   -0.481539
    49  H    0.162647
    50  H    0.028234
    51  H    0.011072
    52  H    0.018156
    53  N   -0.153989
    54  C    0.220758
    55  C    0.037262
    56  O   -0.264778
    57  H    0.143834
    58  H    0.016530
    59  H    0.027098
    60  N   -0.181442
    61  C    0.176987
    62  C    0.051975
    63  O   -0.295697
    64  C    0.022962
    65  C    0.074537
    66  N   -0.036863
    67  O   -0.334919
    68  H    0.150948
    69  H    0.025662
    70  H    0.056800
    71  H    0.039873
    72  H    0.126875
    73  H    0.119208
    74  N   -0.174595
    75  C    0.278139
    76  C   -0.002676
    77  O   -0.322221
    78  H    0.132993
    79  H    0.030227
    80  H    0.037933
    81  N   -0.137466
    82  C    0.132220
    83  C    0.133276
    84  O   -0.376912
    85  C    0.159202
    86  C   -0.037019
    87  C   -0.001590
    88  C   -0.023568
    89  C   -0.023120
    90  C   -0.068189
    91  C    0.166660
    92  O   -0.190833
    93  H    0.152847
    94  H    0.009647
    95  H    0.011422
    96  H   -0.019690
    97  H    0.007563
    98  H   -0.025945
    99  H   -0.011378
   100  H   -0.054732
   101  H    0.158875
   102  N   -0.099104
   103  C    0.122489
   104  C    0.080795
   105  O   -0.275420
   106  C   -0.057897
   107  C   -0.005529
   108  C    0.037024
   109  C    0.028388
   110  H    0.138503
   111  H    0.025716
   112  H   -0.007132
   113  H   -0.007162
   114  H   -0.014115
   115  H    0.014715
   116  H    0.030431
   117  H   -0.016917
   118  H    0.013229
   119  H    0.005323
   120  H    0.002976
   121  N   -0.146473
   122  C    0.038304
   123  C    0.134896
   124  O   -0.281607
   125  C    0.285904
   126  O   -0.336313
   127  H    0.153652
   128  H    0.018755
   129  H   -0.004876
   130  H   -0.025650
   131  H    0.185705
   132  N   -0.105552
   133  C    0.065531
   134  C    0.055373
   135  O   -0.259863
   136  C    0.030777
   137  H    0.115669
   138  H    0.015334
   139  H    0.021878
   140  H    0.050033
   141  H    0.022030
   142  N   -0.139804
   143  C    0.115477
   144  C    0.079237
   145  O   -0.264804
   146  C    0.013822
   147  H    0.105832
   148  H    0.013960
   149  H    0.016966
   150  H    0.030300
   151  H    0.012151
   152  N   -0.161115
   153  C    0.144491
   154  C    0.054691
   155  O   -0.293932
   156  C    0.007490
   157  C    0.059913
   158  C    0.214219
   159  O   -0.410666
   160  O   -0.451031
   161  H    0.132099
   162  H   -0.018227
   163  H   -0.005385
   164  H   -0.007665
   165  H    0.024756
   166  H   -0.027242
   167  N   -0.162130
   168  C    0.134898
   169  H    0.035438
   170  H    0.006272
   171  H    0.008014
   172  H    0.127952
   173  Ca   1.294599
   174  O   -0.330279
   175  H    0.154893
   176  H    0.171533
 Sum of Mulliken charges =  -0.00000

 Dipole moment (field-independent basis, Debye):
    X=             27.6939    Y=              8.3813    Z=              7.2677  Tot=             29.8332
 Quadrupole moment (field-independent basis, Debye-Ang):
   XX=           -704.6287   YY=           -389.6351   ZZ=           -527.5360
   XY=             87.6498   XZ=             57.4627   YZ=            120.1873

 ESP charges:
               1
     1  C   -0.414379
     2  C    0.710023
     3  O   -0.535220
     4  H    0.127332
     5  H    0.102092
     6  H    0.111464
     7  N   -0.765526
     8  C    0.557915
     9  C    0.317871
    10  O   -0.535087
    11  C   -0.368330
    12  C    0.951957
    13  O   -0.699133
    14  O   -0.978212
    15  H    0.331414
    16  H    0.004940
    17  H    0.071468
    18  H    0.058987
    19  N   -0.069797
    20  C   -0.039982
    21  C    0.783789
    22  O   -0.601909
    23  C   -0.178698
    24  C    0.088348
    25  C   -0.246063
    26  C    0.268012
    27  N   -0.437267
    28  H   -0.085151
    29  H    0.029588
    30  H    0.050851
    31  H    0.104235
    32  H    0.074111
    33  H    0.050608
    34  H    0.078008
    35  H    0.088737
    36  H    0.013944
    37  H    0.034456
    38  H    0.352311
    39  H    0.328964
    40  H    0.328883
    41  N   -0.869941
    42  C    0.137994
    43  C    0.477026
    44  O   -0.535212
    45  C   -0.334691
    46  C    0.853618
    47  O   -0.720535
    48  O   -0.779953
    49  H    0.591627
    50  H    0.116329
    51  H    0.118935
    52  H    0.077810
    53  N   -0.285722
    54  C   -0.220632
    55  C    0.580205
    56  O   -0.553042
    57  H    0.271918
    58  H    0.113314
    59  H    0.123035
    60  N   -0.303188
    61  C   -0.000212
    62  C    0.408246
    63  O   -0.551217
    64  C   -0.276554
    65  C    0.851830
    66  N   -0.908515
    67  O   -0.673126
    68  H    0.211381
    69  H    0.130993
    70  H    0.106923
    71  H    0.097043
    72  H    0.384669
    73  H    0.410772
    74  N   -0.028458
    75  C   -0.346716
    76  C    0.613771
    77  O   -0.578215
    78  H    0.147472
    79  H    0.147637
    80  H    0.161528
    81  N   -0.383499
    82  C    0.030619
    83  C    0.638069
    84  O   -0.660669
    85  C   -0.154940
    86  C    0.150094
    87  C   -0.258264
    88  C   -0.182918
    89  C   -0.177677
    90  C   -0.344292
    91  C    0.372027
    92  O   -0.564488
    93  H    0.268857
    94  H    0.065230
    95  H    0.097756
    96  H    0.007934
    97  H    0.185999
    98  H    0.170106
    99  H    0.164632
   100  H    0.133653
   101  H    0.402956
   102  N   -0.511740
   103  C   -0.041026
   104  C    0.608224
   105  O   -0.551370
   106  C   -0.087165
   107  C    0.338405
   108  C   -0.183633
   109  C   -0.399302
   110  H    0.314594
   111  H    0.109334
   112  H    0.071862
   113  H   -0.045107
   114  H   -0.003936
   115  H    0.068212
   116  H    0.003944
   117  H    0.053064
   118  H    0.084247
   119  H    0.074834
   120  H    0.092351
   121  N   -0.419283
   122  C    0.008807
   123  C    0.550362
   124  O   -0.454560
   125  C    0.179041
   126  O   -0.553938
   127  H    0.294538
   128  H    0.070676
   129  H    0.024121
   130  H    0.006202
   131  H    0.371413
   132  N   -0.598156
   133  C    0.370723
   134  C    0.370661
   135  O   -0.527240
   136  C   -0.377406
   137  H    0.310527
   138  H    0.027824
   139  H    0.090264
   140  H    0.134387
   141  H    0.088615
   142  N   -0.285974
   143  C    0.026950
   144  C    0.383512
   145  O   -0.501559
   146  C   -0.295396
   147  H    0.252738
   148  H    0.110332
   149  H    0.072893
   150  H    0.106944
   151  H    0.083971
   152  N    0.035581
   153  C   -0.278475
   154  C    0.551272
   155  O   -0.574247
   156  C   -0.142766
   157  C   -0.104055
   158  C    0.899204
   159  O   -0.716142
   160  O   -0.756098
   161  H    0.063951
   162  H    0.130893
   163  H    0.013133
   164  H    0.037253
   165  H    0.010308
   166  H    0.040135
   167  N   -0.064775
   168  C   -0.249903
   169  H    0.108119
   170  H    0.077652
   171  H    0.092251
   172  H    0.129590
   173  Ca   1.658507
   174  O   -0.959002
   175  H    0.443227
   176  H    0.441721
 Sum of ESP charges =   0.00000

 Normal termination of Gaussian 16 at Sun Sep 15 01:19:47 2019.
