 Gaussian 09, Revision D.01,
 Gaussian 09:  ES64L-G09RevD.01 24-Apr-2013

 ----------------------------------------------------------------------
 #maxdisk=50GB #B3LYP/SVP Density=Current scf=(tight) #IOP(5/87=12)Pop=
 (MK,readradii) iop(6/33=2) iop(6/42=6)
 ----------------------------------------------------------------------

 ------------
 SOL molecule
 ------------
 Symbolic Z-matrix:
 Charge =  0 Multiplicity = 1

                         Standard orientation:
 ---------------------------------------------------------------------
 Center     Atomic      Atomic             Coordinates (Angstroms)
 Number     Number       Type             X           Y           Z
 ---------------------------------------------------------------------
      1          6           0        2.100904    1.326661    6.109320
      2          6           0        1.707738    1.176603    4.647745
      3          8           0        2.563657    1.018197    3.788844
      4          1           0        3.166357    1.548846    6.177671
      5          1           0        1.531644    2.140601    6.557716
      6          1           0        1.888754    0.399261    6.640141
      7          7           0        0.436941    1.458309    4.344073
      8          6           0       -0.135228    1.621908    3.024544
      9          6           0        0.051445    3.086257    2.624748
     10          8           0       -0.342148    3.964657    3.394421
     11          6           0       -1.576643    1.144876    3.037268
     12          6           0       -2.326047    1.276730    1.708807
     13          8           0       -1.674456    1.694373    0.729827
     14          8           0       -3.515843    0.896678    1.701977
     15          1           0       -0.204677    1.528141    5.127942
     16          1           0        0.490876    1.061988    2.331085
     17          1           0       -2.219614    1.687534    3.734915
     18          1           0       -1.529059    0.090111    3.322760
     19          7           0        0.650067    3.345030    1.470111
     20          6           0        1.120465    4.641435    1.019378
     21          6           0       -0.040171    5.449768    0.464651
     22          8           0       -0.091946    6.672666    0.616439
     23          6           0        2.275402    4.488911    0.027986
     24          6           0        2.874316    5.855100   -0.309993
     25          6           0        4.269142    5.825850   -0.901689
     26          6           0        4.639311    7.182874   -1.482344
     27          7           0        3.931276    7.589582   -2.705240
     28          1           0        0.700101    2.548113    0.846478
     29          1           0        1.494843    5.171594    1.894633
     30          1           0        1.913058    4.049177   -0.903648
     31          1           0        3.029475    3.909740    0.558396
     32          1           0        2.897966    6.422429    0.619189
     33          1           0        2.249554    6.381880   -1.036957
     34          1           0        4.305090    4.988431   -1.605704
     35          1           0        4.952678    5.548964   -0.101931
     36          1           0        5.716675    7.157377   -1.665746
     37          1           0        4.493299    7.979573   -0.744745
     38          1           0        2.941747    7.664544   -2.537270
     39          1           0        4.460300    8.323631   -3.160327
     40          1           0        3.985106    6.833842   -3.382631
     41          7           0       -0.943107    4.768993   -0.247074
     42          6           0       -2.045696    5.414710   -0.927843
     43          6           0       -3.454216    5.064481   -0.451072
     44          8           0       -4.481905    5.524554   -0.950660
     45          6           0       -1.928685    5.018294   -2.400719
     46          6           0       -1.798105    3.531966   -2.676177
     47          8           0       -1.124021    3.126369   -3.638675
     48          8           0       -2.401072    2.720045   -1.932527
     49          1           0       -0.855314    3.757576   -0.241769
     50          1           0       -2.026894    6.493298   -0.823944
     51          1           0       -0.994008    5.467878   -2.728822
     52          1           0       -2.734300    5.500769   -2.964192
     53          7           0       -3.519894    4.250636    0.609938
     54          6           0       -4.792115    3.991786    1.248179
     55          6           0       -5.678629    2.953496    0.585572
     56          8           0       -6.822553    2.835583    1.032040
     57          1           0       -2.637610    3.882276    0.925824
     58          1           0       -5.294880    4.935452    1.489059
     59          1           0       -4.512680    3.634146    2.236566
     60          7           0       -5.220124    2.355564   -0.509714
     61          6           0       -6.058478    1.500215   -1.322696
     62          6           0       -6.565499    0.311491   -0.527923
     63          8           0       -7.534456   -0.297171   -0.969572
     64          6           0       -5.444330    1.128712   -2.672551
     65          6           0       -4.623717   -0.159275   -2.622717
     66          7           0       -4.751911   -1.101446   -3.559937
     67          8           0       -3.758895   -0.315115   -1.763940
     68          1           0       -4.242587    2.477820   -0.748825
     69          1           0       -6.946347    2.093812   -1.544576
     70          1           0       -4.762848    1.895626   -3.022870
     71          1           0       -6.226013    0.890409   -3.388360
     72          1           0       -5.464572   -0.990762   -4.254677
     73          1           0       -4.231129   -1.964711   -3.492416
     74          7           0       -5.946334   -0.030340    0.604458
     75          6           0       -6.321423   -1.116249    1.494746
     76          6           0       -5.455443   -2.366422    1.405612
     77          8           0       -5.872120   -3.398286    1.921401
     78          1           0       -5.220494    0.619001    0.855479
     79          1           0       -7.360165   -1.316952    1.211842
     80          1           0       -6.240299   -0.788590    2.527150
     81          7           0       -4.251219   -2.223775    0.850277
     82          6           0       -3.326632   -3.342053    0.752842
     83          6           0       -1.942268   -2.716976    0.786242
     84          8           0       -1.833808   -1.606394    0.284800
     85          6           0       -3.491984   -4.132730   -0.545306
     86          6           0       -4.880185   -4.699215   -0.710813
     87          6           0       -5.111864   -6.014472   -0.283703
     88          6           0       -5.869348   -3.920264   -1.316860
     89          6           0       -6.413225   -6.516921   -0.384726
     90          6           0       -7.163105   -4.429737   -1.487832
     91          6           0       -7.405656   -5.731992   -1.003165
     92          8           0       -8.640172   -6.311045   -1.150703
     93          1           0       -4.013830   -1.303400    0.537776
     94          1           0       -3.536551   -3.960758    1.631329
     95          1           0       -2.708973   -4.870763   -0.696311
     96          1           0       -3.449414   -3.375836   -1.337202
     97          1           0       -4.308077   -6.646253    0.062966
     98          1           0       -5.579497   -2.937269   -1.661397
     99          1           0       -6.663187   -7.485499    0.012736
    100          1           0       -7.964491   -3.829342   -1.882554
    101          1           0       -9.212875   -5.680701   -1.599343
    102          7           0       -0.919095   -3.462370    1.213915
    103          6           0        0.455106   -3.006260    1.321790
    104          6           0        1.357280   -3.795696    0.388317
    105          8           0        1.612101   -4.974233    0.640143
    106          6           0        0.976768   -3.123151    2.749798
    107          6           0        0.313545   -2.125685    3.688359
    108          6           0        2.467820   -2.847902    2.917128
    109          6           0        0.181084   -2.625964    5.128073
    110          1           0       -1.107278   -4.403524    1.519555
    111          1           0        0.531755   -1.940148    1.105849
    112          1           0        0.725250   -4.113923    3.145030
    113          1           0       -0.705083   -1.878601    3.374118
    114          1           0        0.982801   -1.260357    3.622760
    115          1           0        2.951668   -3.758905    2.543676
    116          1           0        2.867567   -1.942185    2.457913
    117          1           0        2.772212   -2.920298    3.963935
    118          1           0       -0.201793   -3.642498    5.198527
    119          1           0        1.193894   -2.616947    5.543203
    120          1           0       -0.431346   -2.023298    5.790133
    121          7           0        2.083192   -3.163957   -0.531172
    122          6           0        3.074702   -3.822251   -1.352303
    123          6           0        4.408777   -3.866779   -0.628105
    124          8           0        4.672868   -3.178109    0.360778
    125          6           0        3.195202   -3.135146   -2.714862
    126          8           0        3.792843   -1.883089   -2.453947
    127          1           0        1.891428   -2.192581   -0.738187
    128          1           0        2.696131   -4.829438   -1.512487
    129          1           0        2.183174   -3.048882   -3.092297
    130          1           0        3.792923   -3.666216   -3.451472
    131          1           0        3.743369   -1.472338   -3.324026
    132          7           0        5.288858   -4.648748   -1.261652
    133          6           0        6.714028   -4.688489   -0.962636
    134          6           0        7.193888   -3.260193   -1.118216
    135          8           0        7.862334   -2.700392   -0.249710
    136          6           0        7.405633   -5.714804   -1.858045
    137          1           0        5.036788   -5.287281   -1.995502
    138          1           0        6.832565   -4.850023    0.114377
    139          1           0        8.493994   -5.665204   -1.854794
    140          1           0        7.061883   -6.733214   -1.661632
    141          1           0        7.312444   -5.349258   -2.875587
    142          7           0        6.889306   -2.611544   -2.250066
    143          6           0        7.455818   -1.316198   -2.532988
    144          6           0        7.001471   -0.232437   -1.567518
    145          8           0        7.743915    0.733167   -1.426507
    146          6           0        7.149314   -0.915348   -3.977555
    147          1           0        6.333302   -3.112921   -2.926365
    148          1           0        8.547150   -1.350598   -2.458077
    149          1           0        6.087265   -1.022862   -4.185143
    150          1           0        7.492684    0.094914   -4.137451
    151          1           0        7.658987   -1.643778   -4.616714
    152          7           0        5.843132   -0.330402   -0.905890
    153          6           0        5.444016    0.494706    0.218790
    154          6           0        6.091827    0.082769    1.535737
    155          8           0        6.440816    1.024180    2.236845
    156          6           0        3.930796    0.465165    0.401797
    157          6           0        3.213032    0.909315   -0.873093
    158          6           0        1.707045    0.775225   -0.685950
    159          8           0        0.870950    1.692401   -0.846055
    160          8           0        1.157686   -0.335459   -0.504052
    161          1           0        5.224182   -1.092298   -1.142567
    162          1           0        5.717941    1.505352   -0.075929
    163          1           0        3.729276    1.263737    1.114588
    164          1           0        3.609453   -0.533371    0.698723
    165          1           0        3.515100    0.336800   -1.753480
    166          1           0        3.510666    1.913906   -1.168916
    167          7           0        6.296513   -1.209280    1.786362
    168          6           0        7.052654   -1.631310    2.948834
    169          1           0        7.919774   -0.983554    3.072267
    170          1           0        6.422383   -1.567228    3.835873
    171          1           0        7.384916   -2.660493    2.812517
    172          1           0        5.812830   -1.893533    1.220634
    173         20           0       -1.272351    0.311652   -1.439342
    174          8           0       -1.290152    0.473296   -4.067984
    175          1           0       -1.456875    1.402296   -4.229422
    176          1           0       -1.384686    0.061636   -4.927576
 ---------------------------------------------------------------------

 SCF Done:  E(RB3LYP) =  -5333.61354992     A.U. after   17 cycles

 The electronic state is 1-A.
 Alpha  occ. eigenvalues -- -145.37808 -19.19455 -19.15380 -19.14286 -19.13701
 Alpha  occ. eigenvalues --  -19.11993 -19.11934 -19.10786 -19.09390 -19.08180
 Alpha  occ. eigenvalues --  -19.07727 -19.07494 -19.07376 -19.06361 -19.05656
 Alpha  occ. eigenvalues --  -19.05398 -19.05381 -19.05050 -19.05034 -19.05033
 Alpha  occ. eigenvalues --  -19.04963 -19.04476 -19.04182 -19.03208 -15.43548
 Alpha  occ. eigenvalues --  -14.58432 -14.39174 -14.37722 -14.37320 -14.37158
 Alpha  occ. eigenvalues --  -14.35316 -14.33214 -14.32883 -14.32295 -14.31630
 Alpha  occ. eigenvalues --  -14.31285 -14.30939 -14.30408 -14.30198 -14.29642
 Alpha  occ. eigenvalues --  -12.57153 -12.57141 -12.57104 -10.34649 -10.31862
 Alpha  occ. eigenvalues --  -10.30794 -10.30006 -10.29373 -10.28797 -10.28009
 Alpha  occ. eigenvalues --  -10.27356 -10.26783 -10.26423 -10.26048 -10.25975
 Alpha  occ. eigenvalues --  -10.25815 -10.25307 -10.24476 -10.24189 -10.24110
 Alpha  occ. eigenvalues --  -10.24062 -10.23692 -10.23673 -10.23532 -10.23320
 Alpha  occ. eigenvalues --  -10.23196 -10.23129 -10.22960 -10.22925 -10.22498
 Alpha  occ. eigenvalues --  -10.22494 -10.21797 -10.21305 -10.20778 -10.20363
 Alpha  occ. eigenvalues --  -10.20190 -10.20105 -10.20100 -10.19490 -10.18910
 Alpha  occ. eigenvalues --  -10.18524 -10.18295 -10.18247 -10.17732 -10.17725
 Alpha  occ. eigenvalues --  -10.17504 -10.17456 -10.17384 -10.17359 -10.17245
 Alpha  occ. eigenvalues --  -10.16872 -10.16717 -10.16192 -10.16049 -10.15998
 Alpha  occ. eigenvalues --  -10.15335 -10.14921  -1.80352  -1.13679  -1.08132
 Alpha  occ. eigenvalues --   -1.07962  -1.07798  -1.07736  -1.06108  -1.05043
 Alpha  occ. eigenvalues --   -1.04958  -1.04019  -1.03691  -1.02854  -1.02760
 Alpha  occ. eigenvalues --   -1.01637  -1.00983  -1.00469  -0.99949  -0.99677
 Alpha  occ. eigenvalues --   -0.98858  -0.98526  -0.98369  -0.98133  -0.98104
 Alpha  occ. eigenvalues --   -0.97898  -0.96761  -0.96453  -0.93770  -0.93676
 Alpha  occ. eigenvalues --   -0.92446  -0.92235  -0.91536  -0.90501  -0.90302
 Alpha  occ. eigenvalues --   -0.89689  -0.89453  -0.89120  -0.89003  -0.88740
 Alpha  occ. eigenvalues --   -0.88319  -0.88055  -0.87456  -0.86723  -0.86081
 Alpha  occ. eigenvalues --   -0.83204  -0.82233  -0.81255  -0.80832  -0.79150
 Alpha  occ. eigenvalues --   -0.78159  -0.77623  -0.77462  -0.77081  -0.76625
 Alpha  occ. eigenvalues --   -0.75006  -0.74732  -0.73702  -0.73537  -0.72817
 Alpha  occ. eigenvalues --   -0.71559  -0.71307  -0.70771  -0.70369  -0.69897
 Alpha  occ. eigenvalues --   -0.69675  -0.69023  -0.68406  -0.67876  -0.67605
 Alpha  occ. eigenvalues --   -0.66719  -0.65704  -0.65619  -0.64549  -0.63713
 Alpha  occ. eigenvalues --   -0.63490  -0.63051  -0.61673  -0.61344  -0.61106
 Alpha  occ. eigenvalues --   -0.61085  -0.60865  -0.60719  -0.60311  -0.60094
 Alpha  occ. eigenvalues --   -0.59881  -0.58318  -0.57745  -0.57408  -0.57052
 Alpha  occ. eigenvalues --   -0.56810  -0.56242  -0.56020  -0.55742  -0.55459
 Alpha  occ. eigenvalues --   -0.55454  -0.55043  -0.54931  -0.54895  -0.54535
 Alpha  occ. eigenvalues --   -0.53940  -0.53855  -0.53288  -0.53059  -0.52651
 Alpha  occ. eigenvalues --   -0.52589  -0.52410  -0.52094  -0.52005  -0.51709
 Alpha  occ. eigenvalues --   -0.51271  -0.51005  -0.50546  -0.50101  -0.49863
 Alpha  occ. eigenvalues --   -0.49683  -0.49615  -0.49327  -0.48591  -0.48512
 Alpha  occ. eigenvalues --   -0.48330  -0.48011  -0.47690  -0.47468  -0.47099
 Alpha  occ. eigenvalues --   -0.46956  -0.46849  -0.46571  -0.46350  -0.46058
 Alpha  occ. eigenvalues --   -0.45897  -0.45790  -0.45533  -0.45259  -0.44965
 Alpha  occ. eigenvalues --   -0.44849  -0.44579  -0.44508  -0.44213  -0.44082
 Alpha  occ. eigenvalues --   -0.43941  -0.43875  -0.43709  -0.43538  -0.43410
 Alpha  occ. eigenvalues --   -0.43309  -0.42804  -0.42773  -0.42719  -0.42574
 Alpha  occ. eigenvalues --   -0.42439  -0.42217  -0.41964  -0.41851  -0.41746
 Alpha  occ. eigenvalues --   -0.41631  -0.41516  -0.41343  -0.41250  -0.41140
 Alpha  occ. eigenvalues --   -0.40895  -0.40717  -0.40700  -0.40576  -0.40533
 Alpha  occ. eigenvalues --   -0.40137  -0.40087  -0.40005  -0.39955  -0.39757
 Alpha  occ. eigenvalues --   -0.39544  -0.39509  -0.39331  -0.39239  -0.39112
 Alpha  occ. eigenvalues --   -0.39080  -0.38829  -0.38767  -0.38555  -0.38437
 Alpha  occ. eigenvalues --   -0.38389  -0.38278  -0.38052  -0.37701  -0.37645
 Alpha  occ. eigenvalues --   -0.37575  -0.37376  -0.37250  -0.37127  -0.36976
 Alpha  occ. eigenvalues --   -0.36902  -0.36631  -0.36432  -0.36284  -0.36152
 Alpha  occ. eigenvalues --   -0.35924  -0.35477  -0.35409  -0.35335  -0.35215
 Alpha  occ. eigenvalues --   -0.35145  -0.35030  -0.34804  -0.34492  -0.34388
 Alpha  occ. eigenvalues --   -0.34241  -0.34211  -0.33810  -0.33733  -0.33401
 Alpha  occ. eigenvalues --   -0.33224  -0.33123  -0.32948  -0.32775  -0.32448
 Alpha  occ. eigenvalues --   -0.32177  -0.32124  -0.31985  -0.31861  -0.31773
 Alpha  occ. eigenvalues --   -0.31371  -0.31270  -0.30726  -0.30202  -0.30047
 Alpha  occ. eigenvalues --   -0.29448  -0.29056  -0.28556  -0.28289  -0.28114
 Alpha  occ. eigenvalues --   -0.27545  -0.27166  -0.26558  -0.26250  -0.25871
 Alpha  occ. eigenvalues --   -0.25305  -0.25110  -0.24917  -0.24802  -0.24083
 Alpha  occ. eigenvalues --   -0.23986  -0.23820  -0.23642  -0.23539  -0.23418
 Alpha  occ. eigenvalues --   -0.23002  -0.22944  -0.22678  -0.22510  -0.22257
 Alpha  occ. eigenvalues --   -0.22091  -0.21637  -0.21528  -0.20915  -0.20730
 Alpha  occ. eigenvalues --   -0.20426  -0.20318  -0.20221  -0.20127  -0.20023
 Alpha  occ. eigenvalues --   -0.19599  -0.19244  -0.19011
 Alpha virt. eigenvalues --   -0.10303  -0.04562  -0.03618  -0.03385  -0.02027
 Alpha virt. eigenvalues --   -0.01421  -0.00320  -0.00152  -0.00080  -0.00019
 Alpha virt. eigenvalues --    0.00429   0.01244   0.01487   0.01665   0.02271

 Mulliken charges:
               1
     1  C    0.041790
     2  C    0.034188
     3  O   -0.289153
     4  H    0.036187
     5  H    0.022186
     6  H    0.024091
     7  N   -0.132898
     8  C    0.129129
     9  C    0.051465
    10  O   -0.302661
    11  C    0.057998
    12  C    0.146676
    13  O   -0.463038
    14  O   -0.374247
    15  H    0.113812
    16  H   -0.011425
    17  H    0.011110
    18  H    0.005696
    19  N   -0.158855
    20  C    0.142339
    21  C    0.056374
    22  O   -0.301686
    23  C    0.053957
    24  C   -0.032929
    25  C   -0.004969
    26  C    0.011252
    27  N    0.083648
    28  H    0.175734
    29  H    0.003588
    30  H    0.029114
    31  H    0.032889
    32  H    0.022767
    33  H   -0.034669
    34  H    0.030663
    35  H    0.061832
    36  H    0.070266
    37  H    0.076655
    38  H    0.202824
    39  H    0.202032
    40  H    0.181749
    41  N   -0.179001
    42  C    0.134518
    43  C    0.046759
    44  O   -0.288207
    45  C    0.103638
    46  C    0.103367
    47  O   -0.390213
    48  O   -0.435761
    49  H    0.178350
    50  H    0.013960
    51  H   -0.048626
    52  H    0.027314
    53  N   -0.176629
    54  C    0.245528
    55  C    0.047174
    56  O   -0.301378
    57  H    0.139061
    58  H    0.025169
    59  H    0.007150
    60  N   -0.169318
    61  C    0.149610
    62  C    0.011544
    63  O   -0.307090
    64  C    0.168939
    65  C    0.020331
    66  N   -0.029811
    67  O   -0.363238
    68  H    0.166808
    69  H    0.025388
    70  H    0.053440
    71  H   -0.009785
    72  H    0.125393
    73  H    0.134316
    74  N   -0.167903
    75  C    0.255195
    76  C    0.020907
    77  O   -0.298776
    78  H    0.153127
    79  H    0.032402
    80  H    0.033418
    81  N   -0.160206
    82  C    0.116431
    83  C    0.120193
    84  O   -0.357068
    85  C    0.170414
    86  C   -0.019272
    87  C    0.003104
    88  C    0.021746
    89  C    0.000807
    90  C   -0.027306
    91  C    0.161604
    92  O   -0.205002
    93  H    0.158196
    94  H    0.007922
    95  H   -0.016426
    96  H   -0.051527
    97  H   -0.043483
    98  H   -0.053855
    99  H   -0.032163
   100  H   -0.032372
   101  H    0.168793
   102  N   -0.108959
   103  C    0.164720
   104  C    0.070551
   105  O   -0.306252
   106  C   -0.118488
   107  C   -0.043598
   108  C    0.073479
   109  C    0.031796
   110  H    0.130755
   111  H    0.037155
   112  H   -0.027552
   113  H    0.015008
   114  H    0.045486
   115  H    0.006303
   116  H    0.057695
   117  H   -0.009291
   118  H   -0.000896
   119  H   -0.000374
   120  H    0.003251
   121  N   -0.124769
   122  C    0.075539
   123  C    0.152515
   124  O   -0.260888
   125  C    0.196869
   126  O   -0.278798
   127  H    0.125153
   128  H    0.018364
   129  H    0.014376
   130  H   -0.011579
   131  H    0.187479
   132  N   -0.148999
   133  C    0.114139
   134  C    0.002467
   135  O   -0.238265
   136  C    0.067689
   137  H    0.111783
   138  H    0.024685
   139  H    0.035036
   140  H    0.052762
   141  H   -0.016217
   142  N   -0.133477
   143  C    0.100425
   144  C    0.059456
   145  O   -0.288572
   146  C    0.056406
   147  H    0.094961
   148  H    0.022417
   149  H   -0.036551
   150  H    0.036854
   151  H    0.013253
   152  N   -0.163409
   153  C    0.126710
   154  C    0.094181
   155  O   -0.287618
   156  C   -0.031474
   157  C    0.121786
   158  C    0.159041
   159  O   -0.425282
   160  O   -0.428204
   161  H    0.142868
   162  H   -0.029649
   163  H    0.041224
   164  H    0.032569
   165  H   -0.041997
   166  H   -0.046441
   167  N   -0.155531
   168  C    0.155306
   169  H    0.024367
   170  H    0.014908
   171  H    0.006025
   172  H    0.132442
   173  Ca   1.314292
   174  O   -0.330174
   175  H    0.168101
   176  H    0.167568
 Sum of Mulliken charges =   0.00000

 Dipole moment (field-independent basis, Debye):
    X=             24.3605    Y=              5.1618    Z=            -26.1629  Tot=             36.1189
 Quadrupole moment (field-independent basis, Debye-Ang):
   XX=           -659.8698   YY=           -412.9929   ZZ=           -479.0180
   XY=             94.4602   XZ=            -53.5704   YZ=            -46.3612

 ESP charges:
               1
     1  C   -0.470424
     2  C    0.910735
     3  O   -0.659789
     4  H    0.138015
     5  H    0.108565
     6  H    0.101350
     7  N   -0.795930
     8  C    0.108066
     9  C    0.799813
    10  O   -0.599824
    11  C   -0.384874
    12  C    1.040442
    13  O   -0.988089
    14  O   -0.765730
    15  H    0.368922
    16  H    0.101125
    17  H    0.103958
    18  H    0.077847
    19  N   -0.469686
    20  C   -0.263587
    21  C    0.577005
    22  O   -0.591235
    23  C    0.307510
    24  C   -0.047828
    25  C   -0.136363
    26  C    0.146690
    27  N   -0.462224
    28  H    0.197101
    29  H    0.140827
    30  H   -0.038227
    31  H    0.022880
    32  H    0.021550
    33  H   -0.005517
    34  H    0.031596
    35  H    0.091696
    36  H    0.046776
    37  H    0.069891
    38  H    0.367987
    39  H    0.360450
    40  H    0.343735
    41  N   -0.389181
    42  C    0.120941
    43  C    0.433023
    44  O   -0.545225
    45  C   -0.306809
    46  C    0.796229
    47  O   -0.726035
    48  O   -0.693794
    49  H    0.353462
    50  H    0.086905
    51  H    0.033249
    52  H    0.093926
    53  N   -0.229869
    54  C   -0.254966
    55  C    0.583508
    56  O   -0.583364
    57  H    0.197790
    58  H    0.146782
    59  H    0.116566
    60  N   -0.305206
    61  C    0.134087
    62  C    0.270769
    63  O   -0.542830
    64  C   -0.311878
    65  C    0.694830
    66  N   -0.836288
    67  O   -0.676292
    68  H    0.239322
    69  H    0.087747
    70  H    0.129398
    71  H    0.092063
    72  H    0.385712
    73  H    0.397921
    74  N    0.217579
    75  C   -0.600076
    76  C    0.841577
    77  O   -0.564124
    78  H    0.130200
    79  H    0.194167
    80  H    0.169006
    81  N   -0.755054
    82  C    0.437109
    83  C    0.522653
    84  O   -0.573382
    85  C   -0.081400
    86  C   -0.060899
    87  C   -0.102961
    88  C   -0.119222
    89  C   -0.273072
    90  C   -0.407877
    91  C    0.463380
    92  O   -0.574951
    93  H    0.384015
    94  H   -0.024078
    95  H    0.041330
    96  H   -0.023476
    97  H    0.114055
    98  H    0.189443
    99  H    0.167049
   100  H    0.179051
   101  H    0.406716
   102  N   -0.738516
   103  C    0.194890
   104  C    0.585970
   105  O   -0.585109
   106  C    0.170813
   107  C    0.122588
   108  C   -0.266924
   109  C   -0.346904
   110  H    0.345184
   111  H    0.057957
   112  H   -0.018414
   113  H    0.029321
   114  H   -0.002500
   115  H    0.057802
   116  H    0.049422
   117  H    0.082300
   118  H    0.079451
   119  H    0.064466
   120  H    0.088170
   121  N   -0.424170
   122  C    0.130065
   123  C    0.437149
   124  O   -0.374875
   125  C   -0.076092
   126  O   -0.315404
   127  H    0.206345
   128  H    0.060966
   129  H    0.080001
   130  H    0.044452
   131  H    0.355909
   132  N   -0.422901
   133  C    0.195700
   134  C    0.452646
   135  O   -0.524956
   136  C   -0.443096
   137  H    0.260642
   138  H    0.067609
   139  H    0.146675
   140  H    0.152888
   141  H    0.092574
   142  N   -0.388338
   143  C    0.245292
   144  C    0.316480
   145  O   -0.538842
   146  C   -0.403388
   147  H    0.255657
   148  H    0.071288
   149  H    0.080122
   150  H    0.138280
   151  H    0.092798
   152  N    0.151375
   153  C   -0.156273
   154  C    0.552347
   155  O   -0.563199
   156  C   -0.156709
   157  C   -0.122424
   158  C    0.663826
   159  O   -0.709545
   160  O   -0.682852
   161  H   -0.187763
   162  H    0.070771
   163  H    0.144782
   164  H    0.095655
   165  H    0.000499
   166  H    0.044984
   167  N   -0.140604
   168  C   -0.233597
   169  H    0.111604
   170  H    0.077375
   171  H    0.089825
   172  H    0.185908
   173  Ca   1.657643
   174  O   -0.858306
   175  H    0.409841
   176  H    0.418935
 Sum of ESP charges =   0.00000

 Normal termination of Gaussian 09 at Mon Sep 16 13:26:16 2019.
