 Gaussian 09, Revision D.01,
 Gaussian 09:  ES64L-G09RevD.01 24-Apr-2013

 ----------------------------------------------------------------------
 #maxdisk=50GB #B3LYP/SVP Density=Current scf=(tight) #IOP(5/87=12)Pop=
 (MK,readradii) iop(6/33=2) iop(6/42=6)
 ----------------------------------------------------------------------

 ------------
 SOL molecule
 ------------
 Symbolic Z-matrix:
 Charge =  0 Multiplicity = 1

                         Standard orientation:
 ---------------------------------------------------------------------
 Center     Atomic      Atomic             Coordinates (Angstroms)
 Number     Number       Type             X           Y           Z
 ---------------------------------------------------------------------
      1          6           0        2.247836    0.686126    5.884577
      2          6           0        1.650141    0.699119    4.482759
      3          8           0        2.438012    0.592789    3.554830
      4          1           0        2.873181    1.568788    6.020360
      5          1           0        1.445190    0.692652    6.622407
      6          1           0        2.853071   -0.211134    6.013749
      7          7           0        0.331915    0.895585    4.349040
      8          6           0       -0.319897    1.292459    3.115172
      9          6           0       -0.199842    2.786668    2.893074
     10          8           0       -0.432472    3.646862    3.738561
     11          6           0       -1.796614    0.922855    3.212634
     12          6           0       -2.593482    1.266381    1.961078
     13          8           0       -3.830578    1.336641    2.130657
     14          8           0       -2.025392    1.368885    0.848798
     15          1           0       -0.101298    0.977357    5.246726
     16          1           0        0.121939    0.679419    2.330085
     17          1           0       -2.249659    1.462676    4.044766
     18          1           0       -1.863061   -0.144877    3.416185
     19          7           0        0.212235    3.146157    1.680201
     20          6           0        0.736509    4.452545    1.321609
     21          6           0       -0.208191    5.377933    0.562071
     22          8           0       -0.397386    6.528800    0.943529
     23          6           0        2.148132    4.284120    0.768749
     24          6           0        2.825177    5.426103    0.020628
     25          6           0        4.238527    5.155766   -0.482123
     26          6           0        4.743963    6.466610   -1.078465
     27          7           0        6.139083    6.360633   -1.531687
     28          1           0        0.168251    2.512087    0.889050
     29          1           0        0.955712    4.949121    2.272115
     30          1           0        2.118112    3.436870    0.076386
     31          1           0        2.848649    4.061582    1.569219
     32          1           0        2.977638    6.209427    0.772333
     33          1           0        2.182222    5.757341   -0.788254
     34          1           0        4.181383    4.373195   -1.237580
     35          1           0        4.863887    4.862731    0.367145
     36          1           0        4.643913    7.292518   -0.363158
     37          1           0        4.127898    6.759959   -1.931408
     38          1           0        6.277087    5.623303   -2.197868
     39          1           0        6.458767    7.182292   -2.040881
     40          1           0        6.816178    6.156811   -0.816076
     41          7           0       -0.929414    4.837989   -0.437378
     42          6           0       -1.964800    5.546758   -1.145420
     43          6           0       -3.350456    5.417524   -0.552246
     44          8           0       -4.261383    6.183438   -0.858985
     45          6           0       -1.958855    5.036316   -2.588893
     46          6           0       -2.215484    3.562315   -2.873785
     47          8           0       -2.473348    2.776273   -1.933070
     48          8           0       -2.136841    3.202081   -4.066155
     49          1           0       -0.829387    3.868469   -0.702379
     50          1           0       -1.813259    6.621890   -1.051474
     51          1           0       -1.016708    5.308376   -3.039937
     52          1           0       -2.712916    5.533534   -3.202055
     53          7           0       -3.572614    4.462833    0.355560
     54          6           0       -4.742571    4.250765    1.187923
     55          6           0       -5.756910    3.344027    0.504299
     56          8           0       -6.961803    3.488128    0.707201
     57          1           0       -2.844769    3.775934    0.478075
     58          1           0       -5.240066    5.194940    1.425057
     59          1           0       -4.483559    3.777995    2.129306
     60          7           0       -5.321004    2.500391   -0.424282
     61          6           0       -6.153024    1.611964   -1.216646
     62          6           0       -6.460664    0.278528   -0.557324
     63          8           0       -7.257105   -0.477901   -1.112389
     64          6           0       -5.568007    1.533319   -2.628088
     65          6           0       -4.657450    0.313979   -2.714675
     66          7           0       -4.551370   -0.399704   -3.840554
     67          8           0       -3.833277    0.017846   -1.852617
     68          1           0       -4.322586    2.497435   -0.620376
     69          1           0       -7.168777    1.995635   -1.331286
     70          1           0       -5.033476    2.446798   -2.858159
     71          1           0       -6.425615    1.354936   -3.288609
     72          1           0       -5.058027   -0.127007   -4.663436
     73          1           0       -3.800373   -1.080904   -3.795055
     74          7           0       -6.026890    0.010283    0.680248
     75          6           0       -6.409646   -1.165586    1.435120
     76          6           0       -5.405303   -2.311426    1.347106
     77          8           0       -5.813260   -3.390749    1.774344
     78          1           0       -5.358843    0.619375    1.115701
     79          1           0       -7.415311   -1.431722    1.100142
     80          1           0       -6.562285   -0.909601    2.485869
     81          7           0       -4.246541   -2.150870    0.699732
     82          6           0       -3.242773   -3.187508    0.592359
     83          6           0       -1.796574   -2.729301    0.670164
     84          8           0       -1.416236   -1.738080    0.056712
     85          6           0       -3.457290   -3.979658   -0.698021
     86          6           0       -4.756725   -4.733828   -0.838006
     87          6           0       -4.968469   -5.950023   -0.171046
     88          6           0       -5.740001   -4.241574   -1.704813
     89          6           0       -6.251405   -6.499910   -0.197469
     90          6           0       -7.010039   -4.822528   -1.782892
     91          6           0       -7.297818   -5.915233   -0.943977
     92          8           0       -8.570428   -6.423603   -0.886318
     93          1           0       -4.090091   -1.194116    0.415046
     94          1           0       -3.369965   -3.855052    1.438295
     95          1           0       -2.734659   -4.792871   -0.626670
     96          1           0       -3.364888   -3.335080   -1.579486
     97          1           0       -4.186841   -6.383222    0.435663
     98          1           0       -5.570862   -3.308431   -2.231535
     99          1           0       -6.553480   -7.338063    0.409285
    100          1           0       -7.760397   -4.371274   -2.417819
    101          1           0       -9.134558   -5.740726   -1.248169
    102          7           0       -0.924992   -3.460505    1.370154
    103          6           0        0.479890   -3.127325    1.332801
    104          6           0        1.243134   -3.901677    0.258447
    105          8           0        0.958383   -5.083096    0.090624
    106          6           0        1.093066   -3.447954    2.693136
    107          6           0        0.296672   -2.987881    3.901767
    108          6           0        2.439098   -2.726133    2.757740
    109          6           0        0.755772   -3.653317    5.196766
    110          1           0       -1.211974   -4.322274    1.822589
    111          1           0        0.620809   -2.049962    1.264013
    112          1           0        1.282282   -4.514366    2.808737
    113          1           0       -0.769469   -3.207721    3.798737
    114          1           0        0.279552   -1.896509    3.978677
    115          1           0        2.260354   -1.671452    2.585991
    116          1           0        2.886461   -2.738887    3.752126
    117          1           0        3.133389   -3.139111    2.029585
    118          1           0        0.343231   -3.078169    6.025509
    119          1           0        0.486856   -4.710654    5.242842
    120          1           0        1.842925   -3.677878    5.304907
    121          7           0        2.208624   -3.223408   -0.371062
    122          6           0        3.132783   -3.839661   -1.297054
    123          6           0        4.594174   -3.582595   -0.980270
    124          8           0        4.834843   -2.750341   -0.110137
    125          6           0        2.819792   -3.591428   -2.775065
    126          8           0        2.583593   -2.208647   -2.928122
    127          1           0        2.343241   -2.233857   -0.191154
    128          1           0        3.084950   -4.926099   -1.184077
    129          1           0        1.917778   -4.118644   -3.087817
    130          1           0        3.675572   -3.955508   -3.335499
    131          1           0        1.896188   -2.021042   -2.283390
    132          7           0        5.529702   -4.320112   -1.588511
    133          6           0        6.954730   -4.241329   -1.351682
    134          6           0        7.372767   -2.785929   -1.367624
    135          8           0        8.068075   -2.416666   -0.421056
    136          6           0        7.742619   -5.248049   -2.193017
    137          1           0        5.178478   -5.076256   -2.160341
    138          1           0        7.088509   -4.529091   -0.303113
    139          1           0        7.491189   -5.143769   -3.255471
    140          1           0        8.810389   -5.115539   -2.066096
    141          1           0        7.505161   -6.275455   -1.901554
    142          7           0        7.083055   -2.010742   -2.415313
    143          6           0        7.537460   -0.643789   -2.564500
    144          6           0        7.118062    0.200147   -1.376444
    145          8           0        7.865969    1.098294   -0.986486
    146          6           0        6.895484   -0.132487   -3.845374
    147          1           0        6.596029   -2.392621   -3.217107
    148          1           0        8.626551   -0.614776   -2.582953
    149          1           0        7.417558   -0.536509   -4.709032
    150          1           0        5.812547   -0.246132   -3.927418
    151          1           0        7.061959    0.950570   -3.903461
    152          7           0        5.971719   -0.122549   -0.765900
    153          6           0        5.331579    0.668076    0.267459
    154          6           0        5.789228    0.305829    1.666257
    155          8           0        6.183215    1.150541    2.462646
    156          6           0        3.839483    0.324793    0.219420
    157          6           0        3.087718    0.711093   -1.050470
    158          6           0        1.578620    0.544210   -0.908788
    159          8           0        0.803881    1.410993   -0.454292
    160          8           0        1.166753   -0.585480   -1.230448
    161          1           0        5.409875   -0.820282   -1.239611
    162          1           0        5.495709    1.734180    0.093152
    163          1           0        3.383913    0.898534    1.020842
    164          1           0        3.699732   -0.723573    0.456902
    165          1           0        3.397878    0.144709   -1.919728
    166          1           0        3.307717    1.764494   -1.220610
    167          7           0        5.865881   -1.009528    1.884112
    168          6           0        6.587277   -1.627204    2.975838
    169          1           0        7.521782   -1.091485    3.142915
    170          1           0        5.980850   -1.589308    3.880664
    171          1           0        6.804735   -2.666115    2.727108
    172          1           0        5.438177   -1.607935    1.186704
    173         20           0       -1.273939    0.401232   -1.496381
    174          8           0       -0.003599    1.445387   -3.609430
    175          1           0        0.782107    1.375019   -4.158807
    176          1           0       -0.538668    2.117159   -4.034780
 ---------------------------------------------------------------------

 SCF Done:  E(RB3LYP) =  -5333.61938511     A.U. after   17 cycles

 The electronic state is 1-A.
 Alpha  occ. eigenvalues -- -145.38905 -19.15732 -19.14707 -19.14151 -19.13991
 Alpha  occ. eigenvalues --  -19.12486 -19.11939 -19.11673 -19.11234 -19.10197
 Alpha  occ. eigenvalues --  -19.10111 -19.09963 -19.07591 -19.07431 -19.06785
 Alpha  occ. eigenvalues --  -19.06651 -19.06467 -19.05845 -19.05504 -19.05036
 Alpha  occ. eigenvalues --  -19.04767 -19.04295 -19.03223 -19.03024 -15.44641
 Alpha  occ. eigenvalues --  -14.58883 -14.40593 -14.38727 -14.37457 -14.37346
 Alpha  occ. eigenvalues --  -14.36742 -14.35602 -14.33849 -14.33223 -14.33052
 Alpha  occ. eigenvalues --  -14.31748 -14.31240 -14.30437 -14.29931 -14.29733
 Alpha  occ. eigenvalues --  -12.58258 -12.58225 -12.58196 -10.35179 -10.33050
 Alpha  occ. eigenvalues --  -10.30724 -10.30493 -10.30430 -10.29749 -10.29082
 Alpha  occ. eigenvalues --  -10.28687 -10.27167 -10.27001 -10.26499 -10.26152
 Alpha  occ. eigenvalues --  -10.26119 -10.25934 -10.25770 -10.25284 -10.25206
 Alpha  occ. eigenvalues --  -10.25031 -10.25018 -10.24278 -10.23515 -10.23492
 Alpha  occ. eigenvalues --  -10.23327 -10.23272 -10.23216 -10.22791 -10.22731
 Alpha  occ. eigenvalues --  -10.22727 -10.22676 -10.22227 -10.21113 -10.20567
 Alpha  occ. eigenvalues --  -10.20393 -10.20013 -10.19823 -10.19493 -10.19288
 Alpha  occ. eigenvalues --  -10.19137 -10.19077 -10.18950 -10.18904 -10.18714
 Alpha  occ. eigenvalues --  -10.17834 -10.17812 -10.17573 -10.17300 -10.17167
 Alpha  occ. eigenvalues --  -10.17081 -10.16841 -10.16755 -10.16583 -10.16358
 Alpha  occ. eigenvalues --  -10.16236 -10.15512  -1.81447  -1.14156  -1.09265
 Alpha  occ. eigenvalues --   -1.08833  -1.08802  -1.08126  -1.05577  -1.05346
 Alpha  occ. eigenvalues --   -1.04988  -1.04955  -1.04023  -1.02836  -1.02834
 Alpha  occ. eigenvalues --   -1.02607  -1.01839  -1.00951  -1.00599  -1.00246
 Alpha  occ. eigenvalues --   -0.99535  -0.99359  -0.99343  -0.98549  -0.98163
 Alpha  occ. eigenvalues --   -0.97568  -0.97543  -0.96386  -0.95474  -0.95151
 Alpha  occ. eigenvalues --   -0.94010  -0.93803  -0.92589  -0.91001  -0.90834
 Alpha  occ. eigenvalues --   -0.90719  -0.90189  -0.90037  -0.89191  -0.88810
 Alpha  occ. eigenvalues --   -0.88521  -0.88405  -0.87699  -0.86815  -0.85719
 Alpha  occ. eigenvalues --   -0.83007  -0.82857  -0.82020  -0.81083  -0.80499
 Alpha  occ. eigenvalues --   -0.79172  -0.78163  -0.77804  -0.76925  -0.76487
 Alpha  occ. eigenvalues --   -0.75318  -0.74514  -0.74448  -0.73349  -0.72710
 Alpha  occ. eigenvalues --   -0.72138  -0.72046  -0.71899  -0.70691  -0.70637
 Alpha  occ. eigenvalues --   -0.70014  -0.69201  -0.68588  -0.68360  -0.67511
 Alpha  occ. eigenvalues --   -0.67458  -0.66951  -0.65154  -0.65065  -0.64040
 Alpha  occ. eigenvalues --   -0.63720  -0.63497  -0.63156  -0.62950  -0.62613
 Alpha  occ. eigenvalues --   -0.61811  -0.60916  -0.60415  -0.60174  -0.59963
 Alpha  occ. eigenvalues --   -0.59587  -0.59236  -0.58334  -0.58016  -0.57565
 Alpha  occ. eigenvalues --   -0.57214  -0.56719  -0.56617  -0.56516  -0.56105
 Alpha  occ. eigenvalues --   -0.55982  -0.55934  -0.55517  -0.55177  -0.54997
 Alpha  occ. eigenvalues --   -0.54773  -0.54105  -0.54049  -0.53760  -0.53578
 Alpha  occ. eigenvalues --   -0.53196  -0.53001  -0.52631  -0.52478  -0.51505
 Alpha  occ. eigenvalues --   -0.51398  -0.51067  -0.50936  -0.50090  -0.49777
 Alpha  occ. eigenvalues --   -0.49668  -0.49546  -0.49494  -0.49124  -0.49034
 Alpha  occ. eigenvalues --   -0.48839  -0.48536  -0.48357  -0.47844  -0.47701
 Alpha  occ. eigenvalues --   -0.47247  -0.47090  -0.46904  -0.46500  -0.46434
 Alpha  occ. eigenvalues --   -0.46334  -0.46174  -0.46053  -0.45789  -0.45566
 Alpha  occ. eigenvalues --   -0.45358  -0.45051  -0.45016  -0.44906  -0.44770
 Alpha  occ. eigenvalues --   -0.44503  -0.44472  -0.44417  -0.44249  -0.44101
 Alpha  occ. eigenvalues --   -0.43716  -0.43602  -0.43527  -0.43372  -0.43142
 Alpha  occ. eigenvalues --   -0.43047  -0.42900  -0.42807  -0.42675  -0.42626
 Alpha  occ. eigenvalues --   -0.42460  -0.42343  -0.42181  -0.42125  -0.41895
 Alpha  occ. eigenvalues --   -0.41547  -0.41494  -0.41377  -0.41064  -0.41026
 Alpha  occ. eigenvalues --   -0.40828  -0.40766  -0.40690  -0.40311  -0.40283
 Alpha  occ. eigenvalues --   -0.40228  -0.40085  -0.39971  -0.39612  -0.39500
 Alpha  occ. eigenvalues --   -0.39304  -0.39100  -0.39050  -0.38963  -0.38804
 Alpha  occ. eigenvalues --   -0.38647  -0.38483  -0.38478  -0.38167  -0.38158
 Alpha  occ. eigenvalues --   -0.37976  -0.37883  -0.37736  -0.37620  -0.37452
 Alpha  occ. eigenvalues --   -0.37388  -0.37286  -0.37028  -0.36562  -0.36494
 Alpha  occ. eigenvalues --   -0.36413  -0.36065  -0.35687  -0.35630  -0.35624
 Alpha  occ. eigenvalues --   -0.35570  -0.35352  -0.35032  -0.34929  -0.34827
 Alpha  occ. eigenvalues --   -0.34677  -0.34390  -0.34142  -0.33766  -0.33656
 Alpha  occ. eigenvalues --   -0.33500  -0.33304  -0.33123  -0.32750  -0.32527
 Alpha  occ. eigenvalues --   -0.32443  -0.32181  -0.32114  -0.31880  -0.31833
 Alpha  occ. eigenvalues --   -0.31785  -0.31343  -0.30872  -0.30826  -0.30623
 Alpha  occ. eigenvalues --   -0.29668  -0.29412  -0.29279  -0.28924  -0.28568
 Alpha  occ. eigenvalues --   -0.28418  -0.27901  -0.27620  -0.27580  -0.27290
 Alpha  occ. eigenvalues --   -0.27051  -0.26365  -0.26028  -0.25967  -0.25529
 Alpha  occ. eigenvalues --   -0.25292  -0.24577  -0.24269  -0.24114  -0.23789
 Alpha  occ. eigenvalues --   -0.23436  -0.23385  -0.23326  -0.22986  -0.22759
 Alpha  occ. eigenvalues --   -0.22548  -0.22272  -0.22134  -0.21974  -0.21465
 Alpha  occ. eigenvalues --   -0.21054  -0.20931  -0.20510  -0.19884  -0.19749
 Alpha  occ. eigenvalues --   -0.19665  -0.18921  -0.18186
 Alpha virt. eigenvalues --   -0.10731  -0.04685  -0.04277  -0.02820  -0.02526
 Alpha virt. eigenvalues --   -0.01217  -0.01173  -0.00674  -0.00332   0.00333
 Alpha virt. eigenvalues --    0.00586   0.00696   0.00882   0.01196   0.02215

 Mulliken charges:
               1
     1  C    0.071546
     2  C    0.014442
     3  O   -0.288202
     4  H    0.051507
     5  H   -0.015803
     6  H    0.030852
     7  N   -0.123620
     8  C    0.139171
     9  C    0.069239
    10  O   -0.272901
    11  C    0.036841
    12  C    0.156603
    13  O   -0.379045
    14  O   -0.459676
    15  H    0.115124
    16  H    0.003138
    17  H    0.012814
    18  H    0.006365
    19  N   -0.147886
    20  C    0.171464
    21  C    0.061832
    22  O   -0.267762
    23  C    0.019351
    24  C   -0.032576
    25  C   -0.027219
    26  C    0.021609
    27  N    0.095935
    28  H    0.166965
    29  H    0.002332
    30  H    0.005762
    31  H    0.014459
    32  H    0.010464
    33  H    0.022283
    34  H    0.032410
    35  H    0.050846
    36  H    0.077046
    37  H    0.067715
    38  H    0.181181
    39  H    0.187717
    40  H    0.193361
    41  N   -0.161930
    42  C    0.158176
    43  C    0.039010
    44  O   -0.282766
    45  C    0.054097
    46  C    0.111358
    47  O   -0.437370
    48  O   -0.399825
    49  H    0.122865
    50  H    0.012083
    51  H   -0.020210
    52  H    0.029413
    53  N   -0.165547
    54  C    0.246088
    55  C    0.016867
    56  O   -0.297200
    57  H    0.133302
    58  H    0.019308
    59  H    0.038680
    60  N   -0.159741
    61  C    0.137070
    62  C    0.035860
    63  O   -0.310584
    64  C    0.117070
    65  C    0.054256
    66  N   -0.021885
    67  O   -0.383297
    68  H    0.149535
    69  H    0.032693
    70  H    0.081958
    71  H    0.006467
    72  H    0.129874
    73  H    0.124678
    74  N   -0.170590
    75  C    0.224830
    76  C    0.038094
    77  O   -0.301122
    78  H    0.145593
    79  H    0.036763
    80  H    0.030038
    81  N   -0.141614
    82  C    0.143649
    83  C    0.147914
    84  O   -0.362646
    85  C    0.160402
    86  C   -0.009454
    87  C    0.026978
    88  C   -0.003282
    89  C   -0.003853
    90  C   -0.052776
    91  C    0.165900
    92  O   -0.201111
    93  H    0.145970
    94  H   -0.015515
    95  H   -0.012888
    96  H   -0.028519
    97  H   -0.043967
    98  H   -0.038094
    99  H   -0.031034
   100  H   -0.040344
   101  H    0.172738
   102  N   -0.112429
   103  C    0.139035
   104  C    0.097479
   105  O   -0.276106
   106  C   -0.115516
   107  C    0.023256
   108  C    0.022807
   109  C    0.039471
   110  H    0.141478
   111  H    0.018834
   112  H   -0.018943
   113  H   -0.021770
   114  H    0.001248
   115  H    0.032268
   116  H    0.002252
   117  H    0.004310
   118  H    0.012701
   119  H    0.005264
   120  H   -0.002613
   121  N   -0.143058
   122  C    0.041550
   123  C    0.090623
   124  O   -0.283095
   125  C    0.281110
   126  O   -0.333165
   127  H    0.170085
   128  H    0.015544
   129  H    0.009904
   130  H   -0.037226
   131  H    0.172807
   132  N   -0.126422
   133  C    0.107234
   134  C    0.040170
   135  O   -0.246818
   136  C    0.050853
   137  H    0.121973
   138  H    0.022824
   139  H    0.007534
   140  H    0.046768
   141  H    0.035564
   142  N   -0.138951
   143  C    0.108045
   144  C    0.044109
   145  O   -0.285404
   146  C    0.021053
   147  H    0.112778
   148  H    0.019276
   149  H    0.025699
   150  H    0.031150
   151  H    0.006426
   152  N   -0.117055
   153  C    0.138234
   154  C    0.091710
   155  O   -0.267434
   156  C   -0.083624
   157  C    0.125713
   158  C    0.152958
   159  O   -0.414231
   160  O   -0.445280
   161  H    0.127932
   162  H   -0.045595
   163  H    0.043967
   164  H    0.009869
   165  H   -0.015933
   166  H   -0.046861
   167  N   -0.178463
   168  C    0.154157
   169  H    0.024285
   170  H    0.015914
   171  H    0.007075
   172  H    0.140340
   173  Ca   1.311249
   174  O   -0.322893
   175  H    0.177383
   176  H    0.166523
 Sum of Mulliken charges =   0.00000

 Dipole moment (field-independent basis, Debye):
    X=             35.2421    Y=              2.1281    Z=            -18.4705  Tot=             39.8459
 Quadrupole moment (field-independent basis, Debye-Ang):
   XX=           -574.2692   YY=           -491.8760   ZZ=           -515.2374
   XY=            137.7849   XZ=            -62.1338   YZ=            -38.5355

 ESP charges:
               1
     1  C   -0.449845
     2  C    0.872331
     3  O   -0.634688
     4  H    0.143171
     5  H    0.073974
     6  H    0.124384
     7  N   -0.860431
     8  C    0.183775
     9  C    0.647475
    10  O   -0.565445
    11  C   -0.100733
    12  C    0.688486
    13  O   -0.671922
    14  O   -0.771072
    15  H    0.391298
    16  H    0.101249
    17  H    0.045161
    18  H    0.018863
    19  N   -0.367835
    20  C   -0.098907
    21  C    0.522737
    22  O   -0.547635
    23  C    0.078011
    24  C   -0.224267
    25  C    0.066092
    26  C    0.051892
    27  N   -0.370334
    28  H    0.131630
    29  H    0.109373
    30  H    0.049536
    31  H    0.055511
    32  H    0.059000
    33  H    0.059150
    34  H    0.025782
    35  H    0.046549
    36  H    0.080953
    37  H    0.081017
    38  H    0.314172
    39  H    0.328160
    40  H    0.333618
    41  N   -0.387252
    42  C    0.138815
    43  C    0.477655
    44  O   -0.559065
    45  C   -0.436126
    46  C    0.897373
    47  O   -0.792684
    48  O   -0.722106
    49  H    0.275056
    50  H    0.075708
    51  H    0.081284
    52  H    0.124815
    53  N   -0.164379
    54  C   -0.328898
    55  C    0.677779
    56  O   -0.611001
    57  H    0.219258
    58  H    0.149327
    59  H    0.144422
    60  N   -0.372792
    61  C    0.107281
    62  C    0.378797
    63  O   -0.526647
    64  C   -0.387794
    65  C    0.670042
    66  N   -0.813009
    67  O   -0.562313
    68  H    0.216460
    69  H    0.112335
    70  H    0.194672
    71  H    0.115742
    72  H    0.396611
    73  H    0.375983
    74  N   -0.188673
    75  C   -0.146140
    76  C    0.530005
    77  O   -0.532041
    78  H    0.217957
    79  H    0.127427
    80  H    0.089206
    81  N   -0.393161
    82  C    0.084609
    83  C    0.680965
    84  O   -0.664128
    85  C   -0.057602
    86  C    0.075235
    87  C   -0.225545
    88  C   -0.154835
    89  C   -0.218674
    90  C   -0.340456
    91  C    0.428976
    92  O   -0.572015
    93  H    0.258792
    94  H    0.047691
    95  H    0.026754
    96  H   -0.009441
    97  H    0.157272
    98  H    0.164941
    99  H    0.151750
   100  H    0.146177
   101  H    0.413291
   102  N   -0.600397
   103  C    0.006583
   104  C    0.544810
   105  O   -0.537399
   106  C    0.073235
   107  C    0.178590
   108  C   -0.259956
   109  C   -0.360584
   110  H    0.340070
   111  H    0.130952
   112  H    0.018183
   113  H   -0.033284
   114  H    0.039538
   115  H    0.017700
   116  H    0.082544
   117  H    0.044474
   118  H    0.081046
   119  H    0.085908
   120  H    0.080027
   121  N   -0.278809
   122  C   -0.095710
   123  C    0.573664
   124  O   -0.468791
   125  C    0.234014
   126  O   -0.588691
   127  H    0.319648
   128  H    0.040565
   129  H    0.012306
   130  H   -0.009041
   131  H    0.375141
   132  N   -0.482772
   133  C    0.167166
   134  C    0.475826
   135  O   -0.508418
   136  C   -0.343634
   137  H    0.299180
   138  H    0.064235
   139  H    0.074964
   140  H    0.128843
   141  H    0.120257
   142  N   -0.426896
   143  C    0.143838
   144  C    0.387495
   145  O   -0.540721
   146  C   -0.401469
   147  H    0.280064
   148  H    0.090685
   149  H    0.115827
   150  H    0.119260
   151  H    0.104195
   152  N   -0.100172
   153  C   -0.012911
   154  C    0.562817
   155  O   -0.560125
   156  C    0.151941
   157  C   -0.365448
   158  C    0.952912
   159  O   -0.777727
   160  O   -0.785053
   161  H    0.142195
   162  H   -0.028867
   163  H    0.000133
   164  H   -0.085664
   165  H    0.053757
   166  H    0.046277
   167  N   -0.207322
   168  C   -0.250588
   169  H    0.119742
   170  H    0.092283
   171  H    0.089776
   172  H    0.213563
   173  Ca   1.603504
   174  O   -0.899307
   175  H    0.437175
   176  H    0.408924
 Sum of ESP charges =   0.00000

 Normal termination of Gaussian 09 at Mon Sep 16 14:49:52 2019.
