 Gaussian 16, Revision A.03,
 Gaussian 16:  ES64L-G16RevA.03 25-Dec-2016

 ----------------------------------------------------------------------
 #b3lyp/svp scf=(tight,noincore) Test #IOP(5/87=12) Density=Current Pop
 =(MK,readradii) iop(6/33=2) iop(6/42=6)
 ----------------------------------------------------------------------

 ------------------
 CaMKII_loop3_103.0
 ------------------
 Symbolic Z-matrix:
 Charge =  0 Multiplicity = 1

                         Standard orientation:
 ---------------------------------------------------------------------
 Center     Atomic      Atomic             Coordinates (Angstroms)
 Number     Number       Type             X           Y           Z
 ---------------------------------------------------------------------
      1          6           0        1.782492    1.614875    5.996824
      2          6           0        1.188438    1.438771    4.605642
      3          8           0        1.942123    1.358343    3.636059
      4          1           0        2.783566    1.184931    6.020921
      5          1           0        1.838079    2.676396    6.237648
      6          1           0        1.152481    1.108761    6.728186
      7          7           0       -0.135867    1.528225    4.485999
      8          6           0       -0.847506    1.676724    3.224842
      9          6           0       -0.939581    3.134339    2.820514
     10          8           0       -1.209622    3.938200    3.715045
     11          6           0       -2.258015    1.105891    3.288200
     12          6           0       -2.856498    1.046611    1.891310
     13          8           0       -3.506117    1.997750    1.399648
     14          8           0       -2.571451    0.064803    1.162337
     15          1           0       -0.588604    1.511750    5.393609
     16          1           0       -0.281445    1.109872    2.483928
     17          1           0       -2.827805    1.758438    3.946396
     18          1           0       -2.293415    0.096426    3.695911
     19          7           0       -0.645894    3.495107    1.567121
     20          6           0       -0.599971    4.834887    1.044169
     21          6           0       -1.570301    5.222003   -0.072970
     22          8           0       -2.181146    6.288624   -0.035708
     23          6           0        0.824514    5.140137    0.597444
     24          6           0        1.176250    6.478703   -0.065069
     25          6           0        2.671014    6.701512   -0.273961
     26          6           0        3.247483    5.639849   -1.199139
     27          7           0        4.150680    6.157427   -2.238970
     28          1           0       -0.194677    2.753942    1.026771
     29          1           0       -0.870458    5.514556    1.849953
     30          1           0        1.014527    4.353821   -0.138696
     31          1           0        1.478992    5.132083    1.466290
     32          1           0        0.804928    7.312911    0.530596
     33          1           0        0.735113    6.623523   -1.050881
     34          1           0        3.081020    6.582259    0.733696
     35          1           0        2.881795    7.699793   -0.661269
     36          1           0        2.387843    5.159675   -1.669938
     37          1           0        3.901015    4.937918   -0.673127
     38          1           0        3.745348    6.884860   -2.821075
     39          1           0        5.041933    6.488498   -1.901096
     40          1           0        4.393654    5.374041   -2.816093
     41          7           0       -1.829057    4.311443   -1.023983
     42          6           0       -2.775312    4.467693   -2.102124
     43          6           0       -4.224688    4.408546   -1.644727
     44          8           0       -5.043469    4.931113   -2.402302
     45          6           0       -2.629285    3.455458   -3.240788
     46          6           0       -2.428503    2.033368   -2.736857
     47          8           0       -3.111843    1.568828   -1.798269
     48          8           0       -1.464051    1.381374   -3.199498
     49          1           0       -1.248211    3.484701   -1.068881
     50          1           0       -2.678822    5.487136   -2.475654
     51          1           0       -1.700848    3.691522   -3.754965
     52          1           0       -3.473546    3.461913   -3.925027
     53          7           0       -4.569777    3.695364   -0.573986
     54          6           0       -5.914723    3.529034   -0.043745
     55          6           0       -6.429395    2.098448    0.018197
     56          8           0       -7.550983    1.867676    0.475236
     57          1           0       -3.883528    3.245747    0.010057
     58          1           0       -6.670438    4.051088   -0.633029
     59          1           0       -5.902122    3.913376    0.980082
     60          7           0       -5.727392    1.171099   -0.638091
     61          6           0       -6.336049   -0.085608   -0.991399
     62          6           0       -6.310827   -1.072341    0.167316
     63          8           0       -7.087475   -2.026727    0.227870
     64          6           0       -5.831551   -0.582295   -2.350768
     65          6           0       -4.505643   -1.329585   -2.433978
     66          7           0       -3.783674   -1.342659   -3.559629
     67          8           0       -3.842310   -1.538359   -1.422888
     68          1           0       -4.813478    1.439110   -0.995206
     69          1           0       -7.390221    0.162058   -1.130978
     70          1           0       -5.807167    0.303477   -2.986467
     71          1           0       -6.552835   -1.253875   -2.816955
     72          1           0       -4.265373   -1.012853   -4.389445
     73          1           0       -2.912048   -1.833260   -3.537774
     74          7           0       -5.454645   -0.800271    1.146821
     75          6           0       -5.409161   -1.348399    2.489425
     76          6           0       -4.507931   -2.566815    2.553823
     77          8           0       -4.798048   -3.512822    3.284166
     78          1           0       -4.789924   -0.101122    0.854694
     79          1           0       -6.428561   -1.432223    2.878907
     80          1           0       -4.969776   -0.586315    3.134615
     81          7           0       -3.369242   -2.519054    1.859267
     82          6           0       -2.430513   -3.620160    1.807767
     83          6           0       -1.105698   -3.188555    1.203879
     84          8           0       -1.016955   -2.386677    0.272849
     85          6           0       -2.904556   -4.866562    1.052871
     86          6           0       -3.662655   -4.711168   -0.241362
     87          6           0       -5.035413   -4.477849   -0.287148
     88          6           0       -2.913735   -4.755377   -1.429497
     89          6           0       -5.687215   -4.488950   -1.532592
     90          6           0       -3.577146   -4.810223   -2.667754
     91          6           0       -4.965119   -4.579684   -2.741122
     92          8           0       -5.699415   -4.378590   -3.871817
     93          1           0       -3.151243   -1.635629    1.410672
     94          1           0       -2.287835   -4.016905    2.809584
     95          1           0       -3.478582   -5.469078    1.745669
     96          1           0       -2.002021   -5.447442    0.867375
     97          1           0       -5.502450   -4.402896    0.680767
     98          1           0       -1.848773   -4.916366   -1.398872
     99          1           0       -6.744749   -4.289785   -1.611045
    100          1           0       -2.939487   -4.915532   -3.530946
    101          1           0       -5.280434   -4.658672   -4.691029
    102          7           0       -0.009206   -3.746571    1.721204
    103          6           0        1.339055   -3.218156    1.591318
    104          6           0        1.969818   -3.826457    0.354828
    105          8           0        2.044322   -5.026150    0.130135
    106          6           0        2.029580   -3.542296    2.918084
    107          6           0        1.434112   -2.832745    4.132149
    108          6           0        3.440322   -2.972607    2.778577
    109          6           0        1.913615   -3.261698    5.509747
    110          1           0       -0.088405   -4.669513    2.111722
    111          1           0        1.227753   -2.144437    1.421199
    112          1           0        2.078047   -4.611413    3.126025
    113          1           0        0.364437   -3.026976    4.158061
    114          1           0        1.517003   -1.747770    4.024176
    115          1           0        4.069497   -3.101246    3.651784
    116          1           0        3.923900   -3.393118    1.890758
    117          1           0        3.429019   -1.889248    2.675593
    118          1           0        2.971781   -3.001768    5.628580
    119          1           0        1.220393   -2.826384    6.232550
    120          1           0        1.786586   -4.335523    5.669946
    121          7           0        2.635208   -2.921174   -0.379009
    122          6           0        3.573237   -3.142222   -1.461478
    123          6           0        4.996795   -2.882555   -1.018472
    124          8           0        5.240370   -2.217271   -0.012605
    125          6           0        3.133760   -2.405743   -2.725384
    126          8           0        3.185132   -1.029293   -2.432048
    127          1           0        2.416834   -1.963611   -0.162937
    128          1           0        3.557710   -4.216714   -1.681762
    129          1           0        2.139364   -2.702546   -3.035198
    130          1           0        3.849130   -2.588244   -3.529398
    131          1           0        2.286601   -0.838372   -2.136937
    132          7           0        6.010942   -3.420515   -1.708548
    133          6           0        7.399533   -3.098406   -1.484582
    134          6           0        7.725576   -1.609284   -1.481007
    135          8           0        8.540503   -1.159260   -0.681587
    136          6           0        8.300250   -3.938791   -2.389768
    137          1           0        5.774203   -3.967674   -2.527066
    138          1           0        7.653478   -3.489442   -0.504835
    139          1           0        9.312327   -3.833859   -2.008730
    140          1           0        8.047433   -4.991610   -2.332700
    141          1           0        8.223900   -3.603504   -3.421976
    142          7           0        7.177271   -0.886062   -2.458765
    143          6           0        7.374865    0.544438   -2.574204
    144          6           0        6.624336    1.301874   -1.486088
    145          8           0        7.102246    2.319063   -0.993007
    146          6           0        6.800458    1.063527   -3.890412
    147          1           0        6.647717   -1.356966   -3.188711
    148          1           0        8.441985    0.735557   -2.609270
    149          1           0        5.743269    1.282673   -3.735411
    150          1           0        7.300920    1.968836   -4.250486
    151          1           0        6.889533    0.327538   -4.691964
    152          7           0        5.514399    0.811726   -0.933192
    153          6           0        4.860643    1.392019    0.220915
    154          6           0        5.660447    1.177631    1.501717
    155          8           0        5.775062    2.117397    2.286385
    156          6           0        3.447461    0.835109    0.378608
    157          6           0        2.471735    1.586121   -0.522081
    158          6           0        1.155215    0.830944   -0.607998
    159          8           0        1.078128   -0.201080   -1.295301
    160          8           0        0.130516    1.248156   -0.015946
    161          1           0        4.981511    0.082755   -1.388749
    162          1           0        4.893359    2.481264    0.169193
    163          1           0        3.126195    0.850384    1.413526
    164          1           0        3.502434   -0.234648    0.147964
    165          1           0        2.783002    1.650806   -1.559544
    166          1           0        2.283549    2.611013   -0.195304
    167          7           0        6.174444   -0.025625    1.756432
    168          6           0        6.860093   -0.357134    2.988742
    169          1           0        7.859986   -0.724479    2.760283
    170          1           0        6.934541    0.531888    3.613969
    171          1           0        6.302340   -1.128491    3.519186
    172          1           0        5.960262   -0.757287    1.103595
    173         20           0       -1.536529   -0.310730   -1.107291
    174          8           0       -0.996895   -2.042644   -2.985101
    175          1           0       -0.320477   -1.916455   -3.642851
    176          1           0       -0.922898   -2.959392   -2.726842
 ---------------------------------------------------------------------

 SCF Done:  E(RB3LYP) =  -5333.63733860     A.U. after   19 cycles

 The electronic state is 1-A.
 Alpha  occ. eigenvalues -- -145.34510 -19.20763 -19.15836 -19.14447 -19.14040
 Alpha  occ. eigenvalues --  -19.13071 -19.11954 -19.11878 -19.11527 -19.10860
 Alpha  occ. eigenvalues --  -19.10335 -19.09454 -19.08265 -19.07776 -19.06909
 Alpha  occ. eigenvalues --  -19.06775 -19.06715 -19.06662 -19.05860 -19.05554
 Alpha  occ. eigenvalues --  -19.04180 -19.04158 -19.04137 -19.04078 -15.40330
 Alpha  occ. eigenvalues --  -14.58394 -14.40095 -14.38723 -14.37172 -14.36636
 Alpha  occ. eigenvalues --  -14.36028 -14.34466 -14.34232 -14.33991 -14.32942
 Alpha  occ. eigenvalues --  -14.32609 -14.31423 -14.29522 -14.29510 -14.29480
 Alpha  occ. eigenvalues --  -12.53919 -12.53902 -12.53894 -10.34391 -10.32508
 Alpha  occ. eigenvalues --  -10.30824 -10.30673 -10.30190 -10.29889 -10.29337
 Alpha  occ. eigenvalues --  -10.28486 -10.27577 -10.26952 -10.26919 -10.26767
 Alpha  occ. eigenvalues --  -10.26606 -10.26380 -10.26169 -10.25964 -10.25685
 Alpha  occ. eigenvalues --  -10.25579 -10.24698 -10.24570 -10.24560 -10.24062
 Alpha  occ. eigenvalues --  -10.23237 -10.23214 -10.23015 -10.23005 -10.23003
 Alpha  occ. eigenvalues --  -10.22805 -10.22752 -10.22639 -10.22627 -10.21898
 Alpha  occ. eigenvalues --  -10.21470 -10.20837 -10.20529 -10.20363 -10.20035
 Alpha  occ. eigenvalues --  -10.19929 -10.19686 -10.19261 -10.18909 -10.18326
 Alpha  occ. eigenvalues --  -10.18168 -10.18118 -10.18102 -10.18067 -10.17990
 Alpha  occ. eigenvalues --  -10.17554 -10.17478 -10.17360 -10.17276 -10.16799
 Alpha  occ. eigenvalues --  -10.16690 -10.16534  -1.77522  -1.13751  -1.07654
 Alpha  occ. eigenvalues --   -1.07445  -1.07263  -1.05998  -1.05144  -1.04994
 Alpha  occ. eigenvalues --   -1.04805  -1.04706  -1.04367  -1.04099  -1.03817
 Alpha  occ. eigenvalues --   -1.03682  -1.02977  -1.01743  -1.01245  -1.00865
 Alpha  occ. eigenvalues --   -0.99836  -0.99801  -0.99434  -0.98942  -0.97741
 Alpha  occ. eigenvalues --   -0.97152  -0.96752  -0.96469  -0.96063  -0.95252
 Alpha  occ. eigenvalues --   -0.94264  -0.94013  -0.92535  -0.91480  -0.91152
 Alpha  occ. eigenvalues --   -0.90375  -0.89973  -0.89491  -0.89163  -0.88897
 Alpha  occ. eigenvalues --   -0.88834  -0.88734  -0.87935  -0.86476  -0.85607
 Alpha  occ. eigenvalues --   -0.83350  -0.83084  -0.82364  -0.81335  -0.80927
 Alpha  occ. eigenvalues --   -0.79928  -0.78726  -0.77852  -0.77706  -0.76359
 Alpha  occ. eigenvalues --   -0.75578  -0.75283  -0.74909  -0.73616  -0.72882
 Alpha  occ. eigenvalues --   -0.72673  -0.72588  -0.72142  -0.71310  -0.70784
 Alpha  occ. eigenvalues --   -0.70259  -0.69716  -0.68861  -0.68584  -0.68197
 Alpha  occ. eigenvalues --   -0.68078  -0.67062  -0.65293  -0.65119  -0.64501
 Alpha  occ. eigenvalues --   -0.64064  -0.63716  -0.63399  -0.63126  -0.62646
 Alpha  occ. eigenvalues --   -0.62269  -0.61229  -0.61056  -0.60766  -0.60602
 Alpha  occ. eigenvalues --   -0.60438  -0.59994  -0.58682  -0.58467  -0.58208
 Alpha  occ. eigenvalues --   -0.57723  -0.57608  -0.57237  -0.56726  -0.56470
 Alpha  occ. eigenvalues --   -0.56148  -0.55871  -0.55429  -0.55134  -0.55091
 Alpha  occ. eigenvalues --   -0.54908  -0.54709  -0.54254  -0.53907  -0.53763
 Alpha  occ. eigenvalues --   -0.53621  -0.53490  -0.52932  -0.52247  -0.51583
 Alpha  occ. eigenvalues --   -0.51423  -0.51315  -0.50748  -0.50614  -0.50586
 Alpha  occ. eigenvalues --   -0.50144  -0.49985  -0.49855  -0.49399  -0.49243
 Alpha  occ. eigenvalues --   -0.49043  -0.48794  -0.48557  -0.48240  -0.47807
 Alpha  occ. eigenvalues --   -0.47780  -0.47670  -0.47488  -0.47423  -0.47080
 Alpha  occ. eigenvalues --   -0.46836  -0.46682  -0.46548  -0.46489  -0.46106
 Alpha  occ. eigenvalues --   -0.45877  -0.45750  -0.45580  -0.45437  -0.45362
 Alpha  occ. eigenvalues --   -0.45099  -0.45023  -0.44648  -0.44348  -0.44156
 Alpha  occ. eigenvalues --   -0.44042  -0.43800  -0.43712  -0.43626  -0.43533
 Alpha  occ. eigenvalues --   -0.43447  -0.43152  -0.43088  -0.42968  -0.42810
 Alpha  occ. eigenvalues --   -0.42795  -0.42689  -0.42447  -0.42372  -0.42182
 Alpha  occ. eigenvalues --   -0.42092  -0.41767  -0.41507  -0.41399  -0.41374
 Alpha  occ. eigenvalues --   -0.41158  -0.41024  -0.40818  -0.40741  -0.40604
 Alpha  occ. eigenvalues --   -0.40439  -0.40416  -0.40197  -0.40052  -0.39872
 Alpha  occ. eigenvalues --   -0.39760  -0.39600  -0.39393  -0.39223  -0.39122
 Alpha  occ. eigenvalues --   -0.39008  -0.38860  -0.38762  -0.38671  -0.38526
 Alpha  occ. eigenvalues --   -0.38450  -0.38259  -0.38143  -0.38048  -0.37904
 Alpha  occ. eigenvalues --   -0.37819  -0.37625  -0.37575  -0.37396  -0.37242
 Alpha  occ. eigenvalues --   -0.36964  -0.36735  -0.36575  -0.36457  -0.36443
 Alpha  occ. eigenvalues --   -0.36274  -0.36008  -0.35813  -0.35742  -0.35695
 Alpha  occ. eigenvalues --   -0.35102  -0.35014  -0.34821  -0.34721  -0.34241
 Alpha  occ. eigenvalues --   -0.34208  -0.34153  -0.33841  -0.33566  -0.33384
 Alpha  occ. eigenvalues --   -0.32958  -0.32693  -0.32449  -0.32348  -0.31971
 Alpha  occ. eigenvalues --   -0.31867  -0.31322  -0.31213  -0.30934  -0.30354
 Alpha  occ. eigenvalues --   -0.29951  -0.29785  -0.29598  -0.29321  -0.29025
 Alpha  occ. eigenvalues --   -0.28344  -0.27855  -0.27440  -0.27327  -0.27194
 Alpha  occ. eigenvalues --   -0.26979  -0.26509  -0.26047  -0.25819  -0.25776
 Alpha  occ. eigenvalues --   -0.25600  -0.25141  -0.24992  -0.24503  -0.24092
 Alpha  occ. eigenvalues --   -0.23916  -0.23548  -0.23396  -0.23292  -0.23205
 Alpha  occ. eigenvalues --   -0.22919  -0.22787  -0.22659  -0.22444  -0.22162
 Alpha  occ. eigenvalues --   -0.21916  -0.21473  -0.20957  -0.20036  -0.19824
 Alpha  occ. eigenvalues --   -0.19460  -0.18979  -0.18839
 Alpha virt. eigenvalues --   -0.10341  -0.04472  -0.04117  -0.03414  -0.02354
 Alpha virt. eigenvalues --   -0.01192  -0.00865  -0.00818  -0.00480  -0.00298
 Alpha virt. eigenvalues --   -0.00263   0.00293   0.00482   0.00719   0.01269

 Mulliken charges:
               1
     1  C    0.049489
     2  C    0.018448
     3  O   -0.299973
     4  H    0.029641
     5  H    0.051114
     6  H    0.003126
     7  N   -0.107146
     8  C    0.098331
     9  C    0.060744
    10  O   -0.293387
    11  C    0.148181
    12  C    0.128326
    13  O   -0.355214
    14  O   -0.500071
    15  H    0.116230
    16  H    0.008308
    17  H    0.005380
    18  H   -0.011813
    19  N   -0.116357
    20  C    0.188168
    21  C    0.051300
    22  O   -0.266695
    23  C   -0.052523
    24  C    0.014987
    25  C   -0.012041
    26  C    0.007866
    27  N    0.070279
    28  H    0.144480
    29  H    0.015798
    30  H    0.007496
    31  H    0.029109
    32  H    0.032799
    33  H    0.002708
    34  H    0.049517
    35  H    0.012402
    36  H    0.076953
    37  H    0.099503
    38  H    0.190491
    39  H    0.193846
    40  H    0.188882
    41  N   -0.132173
    42  C    0.105362
    43  C    0.048888
    44  O   -0.310213
    45  C    0.148322
    46  C    0.062901
    47  O   -0.417618
    48  O   -0.414912
    49  H    0.122287
    50  H   -0.000233
    51  H   -0.021312
    52  H    0.032749
    53  N   -0.151512
    54  C    0.236316
    55  C    0.021627
    56  O   -0.302780
    57  H    0.140195
    58  H    0.040369
    59  H    0.023520
    60  N   -0.189042
    61  C    0.144751
    62  C    0.072402
    63  O   -0.300565
    64  C    0.065199
    65  C    0.098647
    66  N   -0.060351
    67  O   -0.352380
    68  H    0.161052
    69  H    0.015524
    70  H    0.027945
    71  H    0.029681
    72  H    0.117431
    73  H    0.110030
    74  N   -0.162786
    75  C    0.235941
    76  C    0.035108
    77  O   -0.299009
    78  H    0.150862
    79  H    0.027444
    80  H    0.016515
    81  N   -0.135601
    82  C    0.177605
    83  C    0.117361
    84  O   -0.367243
    85  C    0.115838
    86  C   -0.051804
    87  C    0.062836
    88  C   -0.027286
    89  C   -0.001361
    90  C   -0.058160
    91  C    0.161487
    92  O   -0.213853
    93  H    0.155270
    94  H   -0.009635
    95  H    0.016296
    96  H   -0.033668
    97  H    0.003123
    98  H   -0.042440
    99  H   -0.002954
   100  H   -0.073285
   101  H    0.170585
   102  N   -0.126860
   103  C    0.126070
   104  C    0.079277
   105  O   -0.268654
   106  C   -0.065322
   107  C   -0.005738
   108  C    0.042199
   109  C    0.043200
   110  H    0.135150
   111  H    0.012192
   112  H   -0.007157
   113  H   -0.018731
   114  H    0.013995
   115  H    0.000180
   116  H    0.020584
   117  H    0.010634
   118  H    0.018289
   119  H    0.014444
   120  H   -0.001464
   121  N   -0.152566
   122  C    0.090267
   123  C    0.092918
   124  O   -0.276666
   125  C    0.292185
   126  O   -0.353731
   127  H    0.135478
   128  H    0.013543
   129  H   -0.022872
   130  H   -0.029013
   131  H    0.174204
   132  N   -0.114424
   133  C    0.076266
   134  C    0.080121
   135  O   -0.245220
   136  C    0.043750
   137  H    0.112506
   138  H    0.019573
   139  H    0.046256
   140  H    0.030411
   141  H    0.001277
   142  N   -0.143239
   143  C    0.101741
   144  C    0.050190
   145  O   -0.279539
   146  C    0.038483
   147  H    0.109742
   148  H    0.022400
   149  H    0.005381
   150  H    0.028121
   151  H    0.008731
   152  N   -0.126763
   153  C    0.121914
   154  C    0.032257
   155  O   -0.283336
   156  C   -0.020682
   157  C    0.118335
   158  C    0.178446
   159  O   -0.444013
   160  O   -0.420242
   161  H    0.121973
   162  H   -0.031810
   163  H    0.065605
   164  H   -0.007865
   165  H   -0.016670
   166  H   -0.025315
   167  N   -0.153228
   168  C    0.132592
   169  H    0.022647
   170  H    0.038286
   171  H    0.009471
   172  H    0.125552
   173  Ca   1.239894
   174  O   -0.258333
   175  H    0.197268
   176  H    0.187484
 Sum of Mulliken charges =  -0.00000

 Dipole moment (field-independent basis, Debye):
    X=             30.8581    Y=              3.1975    Z=            -20.1049  Tot=             36.9683
 Quadrupole moment (field-independent basis, Debye-Ang):
   XX=           -681.4759   YY=           -479.7850   ZZ=           -488.4834
   XY=             76.6958   XZ=            -53.7316   YZ=            -23.6111

 ESP charges:
               1
     1  C   -0.441210
     2  C    0.895530
     3  O   -0.651943
     4  H    0.119155
     5  H    0.134826
     6  H    0.078675
     7  N   -0.886089
     8  C    0.543785
     9  C    0.471242
    10  O   -0.543843
    11  C   -0.292148
    12  C    0.669487
    13  O   -0.621910
    14  O   -0.754807
    15  H    0.377707
    16  H   -0.010360
    17  H    0.076965
    18  H    0.065835
    19  N   -0.495430
    20  C    0.481968
    21  C    0.298730
    22  O   -0.526126
    23  C   -0.425573
    24  C    0.230939
    25  C   -0.214667
    26  C    0.231331
    27  N   -0.475617
    28  H    0.216327
    29  H    0.009372
    30  H    0.072005
    31  H    0.138230
    32  H    0.009862
    33  H   -0.032208
    34  H    0.066294
    35  H    0.055840
    36  H    0.058392
    37  H    0.064624
    38  H    0.352644
    39  H    0.357960
    40  H    0.335356
    41  N   -0.277098
    42  C    0.117044
    43  C    0.458748
    44  O   -0.584411
    45  C   -0.438568
    46  C    0.850961
    47  O   -0.750340
    48  O   -0.783820
    49  H    0.204647
    50  H    0.071800
    51  H    0.087357
    52  H    0.155031
    53  N   -0.042092
    54  C   -0.381981
    55  C    0.615796
    56  O   -0.581022
    57  H    0.176267
    58  H    0.161927
    59  H    0.134933
    60  N   -0.267322
    61  C   -0.017000
    62  C    0.434689
    63  O   -0.551016
    64  C   -0.305762
    65  C    0.549820
    66  N   -0.694172
    67  O   -0.456046
    68  H    0.199827
    69  H    0.115286
    70  H    0.121981
    71  H    0.121415
    72  H    0.326065
    73  H    0.326285
    74  N    0.023924
    75  C   -0.471249
    76  C    0.705747
    77  O   -0.575248
    78  H    0.079991
    79  H    0.186224
    80  H    0.170868
    81  N   -0.329720
    82  C   -0.291068
    83  C    1.219434
    84  O   -0.853556
    85  C   -0.185830
    86  C    0.047959
    87  C   -0.112574
    88  C   -0.115910
    89  C   -0.272059
    90  C   -0.344403
    91  C    0.387090
    92  O   -0.566640
    93  H    0.162254
    94  H    0.140266
    95  H    0.123639
    96  H    0.047197
    97  H    0.171473
    98  H    0.122386
    99  H    0.186625
   100  H    0.113338
   101  H    0.411923
   102  N   -1.054984
   103  C    0.187209
   104  C    0.657844
   105  O   -0.560999
   106  C   -0.062790
   107  C    0.371432
   108  C   -0.213614
   109  C   -0.389552
   110  H    0.425420
   111  H    0.113886
   112  H    0.046118
   113  H   -0.056067
   114  H   -0.092975
   115  H    0.069804
   116  H    0.029498
   117  H    0.079947
   118  H    0.082272
   119  H    0.099561
   120  H    0.082699
   121  N   -0.357991
   122  C   -0.059509
   123  C    0.686846
   124  O   -0.500561
   125  C    0.162634
   126  O   -0.590297
   127  H    0.217294
   128  H    0.054093
   129  H    0.007468
   130  H    0.009666
   131  H    0.438040
   132  N   -0.610897
   133  C    0.302570
   134  C    0.328556
   135  O   -0.479447
   136  C   -0.249179
   137  H    0.299047
   138  H    0.037433
   139  H    0.097157
   140  H    0.091302
   141  H    0.034308
   142  N   -0.286826
   143  C    0.010437
   144  C    0.360512
   145  O   -0.523209
   146  C   -0.180805
   147  H    0.264228
   148  H    0.118035
   149  H    0.032852
   150  H    0.076909
   151  H    0.051814
   152  N    0.069750
   153  C   -0.620024
   154  C    0.708280
   155  O   -0.583344
   156  C    0.585692
   157  C   -0.315307
   158  C    0.959635
   159  O   -0.859031
   160  O   -0.782310
   161  H    0.127396
   162  H    0.153425
   163  H   -0.025238
   164  H   -0.286019
   165  H    0.026888
   166  H    0.006155
   167  N   -0.261457
   168  C   -0.166313
   169  H    0.077966
   170  H    0.104961
   171  H    0.061146
   172  H    0.229430
   173  Ca   1.769501
   174  O   -0.808831
   175  H    0.446007
   176  H    0.402000
 Sum of ESP charges =   0.00000

 Normal termination of Gaussian 16 at Sat Sep 14 23:36:53 2019.
