 Gaussian 16, Revision A.03,
 Gaussian 16:  ES64L-G16RevA.03 25-Dec-2016

 ----------------------------------------------------------------------
 #b3lyp/svp scf=(tight,noincore) Test #IOP(5/87=12) Density=Current Pop
 =(MK,readradii) iop(6/33=2) iop(6/42=6)
 ----------------------------------------------------------------------

 -----------------
 CaMKII_loop3_95.0
 -----------------
 Symbolic Z-matrix:
 Charge =  0 Multiplicity = 1

                         Standard orientation:
 ---------------------------------------------------------------------
 Center     Atomic      Atomic             Coordinates (Angstroms)
 Number     Number       Type             X           Y           Z
 ---------------------------------------------------------------------
      1          6           0        2.231400    3.520935    4.484946
      2          6           0        1.360029    2.990395    3.347387
      3          8           0        1.888189    2.883128    2.247915
      4          1           0        3.262210    3.204334    4.330239
      5          1           0        2.184665    4.610082    4.500969
      6          1           0        1.869662    3.127042    5.434579
      7          7           0        0.038644    2.889067    3.489424
      8          6           0       -0.757012    2.448909    2.361775
      9          6           0       -1.052051    3.615172    1.426209
     10          8           0       -1.855475    4.490946    1.736741
     11          6           0       -2.009076    1.806280    2.955461
     12          6           0       -2.905992    1.352160    1.820641
     13          8           0       -4.121716    1.126104    2.010415
     14          8           0       -2.421822    1.178101    0.677539
     15          1           0       -0.428021    2.920877    4.383411
     16          1           0       -0.251620    1.600740    1.896923
     17          1           0       -2.576315    2.498532    3.579261
     18          1           0       -1.669250    0.973117    3.558253
     19          7           0       -0.532731    3.673074    0.199688
     20          6           0       -0.357342    4.779355   -0.735609
     21          6           0       -1.487611    4.978078   -1.742983
     22          8           0       -1.692892    6.053124   -2.290189
     23          6           0        0.979357    4.793085   -1.467215
     24          6           0        2.169443    4.756476   -0.518503
     25          6           0        2.272336    5.939514    0.438541
     26          6           0        3.603663    6.112680    1.159777
     27          7           0        3.620864    7.230496    2.115126
     28          1           0       -0.019510    2.822560    0.019324
     29          1           0       -0.263337    5.695896   -0.166122
     30          1           0        1.018117    5.619074   -2.172580
     31          1           0        1.041356    3.874578   -2.060345
     32          1           0        3.099941    4.747782   -1.090427
     33          1           0        2.323979    3.746189   -0.133873
     34          1           0        1.533638    5.779589    1.224193
     35          1           0        2.060773    6.863563   -0.116415
     36          1           0        4.424061    6.255192    0.453634
     37          1           0        3.879616    5.168015    1.612611
     38          1           0        4.517886    7.420567    2.549319
     39          1           0        3.389028    8.119505    1.691553
     40          1           0        3.110459    6.950618    2.936744
     41          7           0       -2.434846    4.045491   -1.863092
     42          6           0       -3.561428    4.101860   -2.770857
     43          6           0       -4.864816    3.717334   -2.080482
     44          8           0       -5.890089    3.794050   -2.757113
     45          6           0       -3.302317    3.197757   -3.972130
     46          6           0       -3.159441    1.705465   -3.683597
     47          8           0       -3.062380    0.900322   -4.630024
     48          8           0       -2.952340    1.262564   -2.538238
     49          1           0       -2.265008    3.296448   -1.213099
     50          1           0       -3.746104    5.119451   -3.092731
     51          1           0       -2.316463    3.479067   -4.342477
     52          1           0       -4.095055    3.417542   -4.682806
     53          7           0       -4.773405    3.379716   -0.789413
     54          6           0       -5.868987    3.197306    0.142965
     55          6           0       -6.609920    1.881826   -0.039054
     56          8           0       -7.692391    1.662053    0.488068
     57          1           0       -3.862962    3.188085   -0.387206
     58          1           0       -6.558314    4.042730    0.100707
     59          1           0       -5.404945    3.178351    1.129730
     60          7           0       -6.026705    0.989011   -0.832616
     61          6           0       -6.544343   -0.328014   -1.152609
     62          6           0       -6.602503   -1.233835    0.065836
     63          8           0       -7.404534   -2.164075    0.066184
     64          6           0       -5.731514   -0.887141   -2.324097
     65          6           0       -4.701078   -1.871040   -1.808691
     66          7           0       -4.562930   -3.093927   -2.326631
     67          8           0       -3.915697   -1.592493   -0.904595
     68          1           0       -5.221781    1.267576   -1.389930
     69          1           0       -7.542062   -0.232501   -1.585545
     70          1           0       -5.199487   -0.082808   -2.826686
     71          1           0       -6.381359   -1.410497   -3.019871
     72          1           0       -5.308593   -3.361463   -2.948412
     73          1           0       -3.891279   -3.753063   -1.951230
     74          7           0       -5.911715   -0.866143    1.141994
     75          6           0       -5.977412   -1.549045    2.423293
     76          6           0       -4.784244   -2.421001    2.793485
     77          8           0       -4.851935   -2.913471    3.927369
     78          1           0       -5.497800    0.059340    1.123112
     79          1           0       -6.748174   -2.312776    2.341196
     80          1           0       -6.255991   -0.872758    3.227426
     81          7           0       -3.700527   -2.469316    2.017713
     82          6           0       -2.479336   -3.107720    2.485723
     83          6           0       -1.248911   -2.496656    1.840700
     84          8           0       -1.311899   -1.687728    0.917950
     85          6           0       -2.442642   -4.624400    2.354814
     86          6           0       -2.624307   -5.053643    0.916848
     87          6           0       -3.824951   -5.687315    0.571718
     88          6           0       -1.606528   -4.928000   -0.033541
     89          6           0       -4.082026   -6.053975   -0.759963
     90          6           0       -1.799972   -5.397347   -1.338643
     91          6           0       -3.037721   -5.960335   -1.701854
     92          8           0       -3.301997   -6.158351   -3.023159
     93          1           0       -3.708001   -2.125354    1.076950
     94          1           0       -2.391333   -2.904558    3.552859
     95          1           0       -3.228977   -5.021833    3.006600
     96          1           0       -1.561852   -5.158886    2.699826
     97          1           0       -4.666133   -5.694527    1.252130
     98          1           0       -0.623823   -4.566877    0.224301
     99          1           0       -5.067375   -6.289551   -1.113362
    100          1           0       -1.025111   -5.240310   -2.071534
    101          1           0       -2.493070   -6.328260   -3.516788
    102          7           0       -0.133961   -2.816990    2.520238
    103          6           0        1.142034   -2.146458    2.357073
    104          6           0        2.088441   -3.111250    1.665055
    105          8           0        2.266829   -4.246036    2.094754
    106          6           0        1.702889   -1.737910    3.710266
    107          6           0        0.709506   -1.123591    4.688224
    108          6           0        2.933434   -0.862231    3.496612
    109          6           0        1.137058   -1.263235    6.146373
    110          1           0       -0.231936   -3.393332    3.338609
    111          1           0        1.119847   -1.231114    1.766605
    112          1           0        2.090620   -2.646069    4.187039
    113          1           0       -0.268805   -1.589599    4.586522
    114          1           0        0.449319   -0.094405    4.433904
    115          1           0        3.752331   -1.448776    3.073797
    116          1           0        2.633654    0.033495    2.945609
    117          1           0        3.350040   -0.591435    4.463519
    118          1           0        2.086923   -0.741843    6.263023
    119          1           0        0.368273   -0.945969    6.846096
    120          1           0        1.213909   -2.346908    6.320576
    121          7           0        2.691044   -2.614586    0.583624
    122          6           0        3.535680   -3.423003   -0.272678
    123          6           0        4.972905   -2.944303   -0.261184
    124          8           0        5.279116   -1.892312    0.297252
    125          6           0        2.893413   -3.521539   -1.651657
    126          8           0        3.096395   -2.284248   -2.297342
    127          1           0        2.674428   -1.623931    0.353568
    128          1           0        3.579152   -4.466132    0.028970
    129          1           0        1.809779   -3.563837   -1.523410
    130          1           0        3.221711   -4.385411   -2.234793
    131          1           0        2.400028   -1.743918   -1.925030
    132          7           0        5.909367   -3.737919   -0.783497
    133          6           0        7.312036   -3.398874   -0.848832
    134          6           0        7.635939   -2.065255   -1.520954
    135          8           0        8.418798   -1.286305   -0.983860
    136          6           0        8.060763   -4.533568   -1.528374
    137          1           0        5.646308   -4.604332   -1.224891
    138          1           0        7.696165   -3.267543    0.164922
    139          1           0        9.049346   -4.187183   -1.826903
    140          1           0        8.114667   -5.391518   -0.856052
    141          1           0        7.458617   -4.808616   -2.391084
    142          7           0        6.954443   -1.818447   -2.641868
    143          6           0        6.933304   -0.528433   -3.307314
    144          6           0        6.503206    0.627031   -2.426168
    145          8           0        7.042473    1.728191   -2.563050
    146          6           0        5.843859   -0.749989   -4.365673
    147          1           0        6.314365   -2.507159   -3.014126
    148          1           0        7.881308   -0.326119   -3.798189
    149          1           0        4.993219   -1.289442   -3.965671
    150          1           0        5.629928    0.234530   -4.767862
    151          1           0        6.284559   -1.267007   -5.217245
    152          7           0        5.606867    0.393572   -1.460676
    153          6           0        5.157820    1.470334   -0.604966
    154          6           0        6.047593    1.640396    0.612073
    155          8           0        6.215713    2.756057    1.099962
    156          6           0        3.746692    1.210347   -0.086003
    157          6           0        2.746325    1.150172   -1.238282
    158          6           0        1.411188    0.562234   -0.791250
    159          8           0        0.408993    1.206505   -0.402635
    160          8           0        1.269760   -0.667689   -0.945475
    161          1           0        5.103629   -0.482200   -1.434709
    162          1           0        5.084395    2.409120   -1.159032
    163          1           0        3.526501    2.113445    0.483935
    164          1           0        3.771946    0.305803    0.523804
    165          1           0        3.091539    0.443222   -1.989314
    166          1           0        2.705927    2.170298   -1.636165
    167          7           0        6.673154    0.590411    1.130344
    168          6           0        7.645308    0.600705    2.206359
    169          1           0        8.609802    0.265141    1.827125
    170          1           0        7.742418    1.612823    2.598896
    171          1           0        7.315244   -0.067801    3.000796
    172          1           0        6.464399   -0.288644    0.671885
    173         20           0       -1.448857   -0.268950   -1.207635
    174          8           0       -1.455681   -1.698414   -3.557462
    175          1           0       -0.685296   -1.699136   -4.129132
    176          1           0       -2.196544   -1.794857   -4.161797
 ---------------------------------------------------------------------

 SCF Done:  E(RB3LYP) =  -5333.58981902     A.U. after   19 cycles

 The electronic state is 1-A.
 Alpha  occ. eigenvalues -- -145.37712 -19.17311 -19.17255 -19.15161 -19.14576
 Alpha  occ. eigenvalues --  -19.13324 -19.11925 -19.11740 -19.11598 -19.11289
 Alpha  occ. eigenvalues --  -19.11088 -19.09613 -19.09565 -19.07975 -19.07269
 Alpha  occ. eigenvalues --  -19.06023 -19.06009 -19.05211 -19.04443 -19.04038
 Alpha  occ. eigenvalues --  -19.03942 -19.03810 -19.02340 -19.01293 -15.43474
 Alpha  occ. eigenvalues --  -14.57952 -14.40223 -14.37786 -14.37679 -14.37200
 Alpha  occ. eigenvalues --  -14.37110 -14.35691 -14.34940 -14.33593 -14.32701
 Alpha  occ. eigenvalues --  -14.32063 -14.31422 -14.31148 -14.30066 -14.28876
 Alpha  occ. eigenvalues --  -12.57089 -12.57062 -12.57020 -10.32850 -10.32821
 Alpha  occ. eigenvalues --  -10.31072 -10.30596 -10.30464 -10.30212 -10.29652
 Alpha  occ. eigenvalues --  -10.28549 -10.28458 -10.26909 -10.26787 -10.26350
 Alpha  occ. eigenvalues --  -10.26055 -10.26003 -10.25944 -10.25932 -10.25045
 Alpha  occ. eigenvalues --  -10.24855 -10.24600 -10.24322 -10.23892 -10.23329
 Alpha  occ. eigenvalues --  -10.23232 -10.23167 -10.23037 -10.22862 -10.22804
 Alpha  occ. eigenvalues --  -10.22711 -10.22633 -10.22259 -10.21952 -10.21827
 Alpha  occ. eigenvalues --  -10.21382 -10.20588 -10.20560 -10.20519 -10.20465
 Alpha  occ. eigenvalues --  -10.20303 -10.20269 -10.20236 -10.19842 -10.19825
 Alpha  occ. eigenvalues --  -10.19669 -10.19617 -10.19549 -10.19319 -10.19275
 Alpha  occ. eigenvalues --  -10.19095 -10.18844 -10.18429 -10.17942 -10.17768
 Alpha  occ. eigenvalues --  -10.16821 -10.14502  -1.80311  -1.12993  -1.08598
 Alpha  occ. eigenvalues --   -1.07887  -1.07806  -1.07676  -1.06332  -1.06115
 Alpha  occ. eigenvalues --   -1.05462  -1.05030  -1.04683  -1.04431  -1.03923
 Alpha  occ. eigenvalues --   -1.03083  -1.02905  -1.02559  -1.01106  -1.00852
 Alpha  occ. eigenvalues --   -0.99845  -0.98915  -0.98351  -0.98068  -0.97901
 Alpha  occ. eigenvalues --   -0.97557  -0.97124  -0.96751  -0.96043  -0.94978
 Alpha  occ. eigenvalues --   -0.94828  -0.94023  -0.93547  -0.92606  -0.90063
 Alpha  occ. eigenvalues --   -0.89810  -0.89696  -0.89443  -0.89036  -0.88007
 Alpha  occ. eigenvalues --   -0.87482  -0.87072  -0.86845  -0.86612  -0.85809
 Alpha  occ. eigenvalues --   -0.85425  -0.83583  -0.82557  -0.81199  -0.80711
 Alpha  occ. eigenvalues --   -0.79349  -0.78925  -0.78311  -0.78099  -0.76137
 Alpha  occ. eigenvalues --   -0.75864  -0.75379  -0.75349  -0.74216  -0.73887
 Alpha  occ. eigenvalues --   -0.73787  -0.73700  -0.73299  -0.71136  -0.70428
 Alpha  occ. eigenvalues --   -0.69587  -0.69510  -0.69425  -0.68472  -0.68043
 Alpha  occ. eigenvalues --   -0.67961  -0.66696  -0.65867  -0.65542  -0.64865
 Alpha  occ. eigenvalues --   -0.64258  -0.63602  -0.63115  -0.62750  -0.62470
 Alpha  occ. eigenvalues --   -0.61835  -0.61772  -0.61452  -0.60903  -0.60727
 Alpha  occ. eigenvalues --   -0.60123  -0.59962  -0.59879  -0.58659  -0.58238
 Alpha  occ. eigenvalues --   -0.57938  -0.56961  -0.56546  -0.56535  -0.56130
 Alpha  occ. eigenvalues --   -0.56021  -0.55850  -0.55722  -0.55390  -0.55340
 Alpha  occ. eigenvalues --   -0.54838  -0.54299  -0.54264  -0.54154  -0.53854
 Alpha  occ. eigenvalues --   -0.53423  -0.53214  -0.52987  -0.52938  -0.52580
 Alpha  occ. eigenvalues --   -0.51739  -0.51100  -0.51059  -0.50851  -0.50563
 Alpha  occ. eigenvalues --   -0.50228  -0.50011  -0.49792  -0.49687  -0.49435
 Alpha  occ. eigenvalues --   -0.49128  -0.49038  -0.48720  -0.48502  -0.48409
 Alpha  occ. eigenvalues --   -0.48037  -0.47608  -0.47480  -0.47394  -0.47305
 Alpha  occ. eigenvalues --   -0.47159  -0.46837  -0.46578  -0.46370  -0.46239
 Alpha  occ. eigenvalues --   -0.46043  -0.45985  -0.45832  -0.45568  -0.45162
 Alpha  occ. eigenvalues --   -0.45053  -0.45030  -0.44704  -0.44513  -0.44290
 Alpha  occ. eigenvalues --   -0.44217  -0.44179  -0.43999  -0.43831  -0.43737
 Alpha  occ. eigenvalues --   -0.43518  -0.43462  -0.43287  -0.43105  -0.43033
 Alpha  occ. eigenvalues --   -0.42926  -0.42859  -0.42761  -0.42606  -0.42358
 Alpha  occ. eigenvalues --   -0.42047  -0.41935  -0.41741  -0.41646  -0.41365
 Alpha  occ. eigenvalues --   -0.41292  -0.41248  -0.41072  -0.40910  -0.40758
 Alpha  occ. eigenvalues --   -0.40516  -0.40258  -0.40168  -0.40014  -0.39947
 Alpha  occ. eigenvalues --   -0.39831  -0.39733  -0.39639  -0.39518  -0.39477
 Alpha  occ. eigenvalues --   -0.39333  -0.39312  -0.39051  -0.38999  -0.38646
 Alpha  occ. eigenvalues --   -0.38326  -0.38259  -0.37864  -0.37692  -0.37618
 Alpha  occ. eigenvalues --   -0.37545  -0.37371  -0.37232  -0.37065  -0.36912
 Alpha  occ. eigenvalues --   -0.36750  -0.36607  -0.36527  -0.36266  -0.36177
 Alpha  occ. eigenvalues --   -0.35979  -0.35866  -0.35611  -0.35487  -0.35351
 Alpha  occ. eigenvalues --   -0.35064  -0.34898  -0.34881  -0.34657  -0.34536
 Alpha  occ. eigenvalues --   -0.34412  -0.34271  -0.33959  -0.33868  -0.33616
 Alpha  occ. eigenvalues --   -0.33544  -0.33227  -0.32961  -0.32783  -0.32010
 Alpha  occ. eigenvalues --   -0.31716  -0.31372  -0.31364  -0.31107  -0.30563
 Alpha  occ. eigenvalues --   -0.30243  -0.29959  -0.29882  -0.29464  -0.29157
 Alpha  occ. eigenvalues --   -0.28744  -0.28343  -0.27828  -0.27736  -0.27491
 Alpha  occ. eigenvalues --   -0.27403  -0.27002  -0.26723  -0.26675  -0.26620
 Alpha  occ. eigenvalues --   -0.25682  -0.25267  -0.25119  -0.24218  -0.23936
 Alpha  occ. eigenvalues --   -0.23777  -0.23533  -0.23399  -0.23378  -0.23080
 Alpha  occ. eigenvalues --   -0.22971  -0.22334  -0.21781  -0.21415  -0.21192
 Alpha  occ. eigenvalues --   -0.20879  -0.20411  -0.20163  -0.20054  -0.19353
 Alpha  occ. eigenvalues --   -0.19057  -0.18040  -0.17094
 Alpha virt. eigenvalues --   -0.10231  -0.04827  -0.03790  -0.03084  -0.02887
 Alpha virt. eigenvalues --   -0.01895  -0.01126  -0.00511  -0.00468  -0.00290
 Alpha virt. eigenvalues --   -0.00141   0.00347   0.00513   0.00978   0.01576

 Mulliken charges:
               1
     1  C    0.056606
     2  C    0.038607
     3  O   -0.299599
     4  H    0.042007
     5  H   -0.002502
     6  H    0.017833
     7  N   -0.111371
     8  C    0.072762
     9  C    0.044883
    10  O   -0.288348
    11  C    0.065704
    12  C    0.142989
    13  O   -0.362580
    14  O   -0.469366
    15  H    0.121906
    16  H    0.027354
    17  H    0.008761
    18  H    0.001678
    19  N   -0.133005
    20  C    0.144709
    21  C    0.044281
    22  O   -0.297638
    23  C    0.025623
    24  C    0.015872
    25  C   -0.018853
    26  C    0.003964
    27  N    0.086230
    28  H    0.147754
    29  H   -0.014063
    30  H    0.020619
    31  H   -0.002968
    32  H   -0.009843
    33  H    0.038724
    34  H    0.041838
    35  H    0.022984
    36  H    0.064732
    37  H    0.091154
    38  H    0.181439
    39  H    0.195571
    40  H    0.189615
    41  N   -0.150491
    42  C    0.139619
    43  C    0.046488
    44  O   -0.277087
    45  C    0.102187
    46  C    0.081773
    47  O   -0.380717
    48  O   -0.485060
    49  H    0.133938
    50  H    0.023976
    51  H    0.002762
    52  H    0.026617
    53  N   -0.182659
    54  C    0.237845
    55  C    0.019542
    56  O   -0.280827
    57  H    0.144296
    58  H    0.021557
    59  H    0.036880
    60  N   -0.163955
    61  C    0.126281
    62  C    0.027454
    63  O   -0.290782
    64  C    0.159852
    65  C   -0.013338
    66  N   -0.026698
    67  O   -0.352775
    68  H    0.144923
    69  H    0.019089
    70  H    0.065049
    71  H   -0.012198
    72  H    0.122321
    73  H    0.155107
    74  N   -0.158274
    75  C    0.255003
    76  C    0.026199
    77  O   -0.325001
    78  H    0.160124
    79  H    0.017260
    80  H    0.044244
    81  N   -0.117580
    82  C    0.088460
    83  C    0.135610
    84  O   -0.338320
    85  C    0.136576
    86  C   -0.075951
    87  C    0.020464
    88  C    0.013693
    89  C   -0.045875
    90  C   -0.043520
    91  C    0.132148
    92  O   -0.220559
    93  H    0.162742
    94  H    0.017382
    95  H    0.014056
    96  H    0.007219
    97  H    0.006110
    98  H   -0.017634
    99  H   -0.010202
   100  H   -0.050167
   101  H    0.179363
   102  N   -0.124692
   103  C    0.151234
   104  C    0.082974
   105  O   -0.280413
   106  C   -0.121546
   107  C    0.016529
   108  C    0.037389
   109  C    0.036283
   110  H    0.139529
   111  H    0.007659
   112  H   -0.011530
   113  H   -0.018135
   114  H   -0.014888
   115  H    0.026684
   116  H    0.036978
   117  H   -0.011537
   118  H    0.011787
   119  H    0.015366
   120  H    0.008831
   121  N   -0.128896
   122  C    0.041682
   123  C    0.119851
   124  O   -0.288738
   125  C    0.254015
   126  O   -0.338927
   127  H    0.145166
   128  H    0.018296
   129  H    0.011313
   130  H    0.000455
   131  H    0.160544
   132  N   -0.105256
   133  C    0.073126
   134  C    0.047178
   135  O   -0.249842
   136  C    0.042770
   137  H    0.113056
   138  H    0.019292
   139  H    0.048266
   140  H    0.037254
   141  H   -0.001419
   142  N   -0.128974
   143  C    0.100603
   144  C    0.079371
   145  O   -0.267795
   146  C   -0.001059
   147  H    0.111596
   148  H    0.017876
   149  H    0.033976
   150  H    0.026329
   151  H    0.017686
   152  N   -0.157790
   153  C    0.137994
   154  C    0.061512
   155  O   -0.321039
   156  C   -0.071575
   157  C    0.102690
   158  C    0.171663
   159  O   -0.408766
   160  O   -0.445880
   161  H    0.127186
   162  H   -0.012366
   163  H    0.044221
   164  H    0.014776
   165  H   -0.003831
   166  H   -0.004802
   167  N   -0.145419
   168  C    0.135949
   169  H    0.033986
   170  H    0.023696
   171  H    0.010032
   172  H    0.137439
   173  Ca   1.323500
   174  O   -0.299985
   175  H    0.180053
   176  H    0.188860
 Sum of Mulliken charges =  -0.00000

 Dipole moment (field-independent basis, Debye):
    X=             31.5469    Y=              3.5979    Z=              5.5072  Tot=             32.2254
 Quadrupole moment (field-independent basis, Debye-Ang):
   XX=           -711.1670   YY=           -395.9755   ZZ=           -534.5850
   XY=             76.0461   XZ=             28.0935   YZ=            126.4043

 ESP charges:
               1
     1  C   -0.423002
     2  C    0.854562
     3  O   -0.672334
     4  H    0.121101
     5  H    0.096979
     6  H    0.094047
     7  N   -0.851602
     8  C    0.428789
     9  C    0.477691
    10  O   -0.580174
    11  C   -0.318633
    12  C    0.929368
    13  O   -0.736651
    14  O   -0.965028
    15  H    0.391553
    16  H    0.072265
    17  H    0.065145
    18  H    0.053897
    19  N   -0.220900
    20  C   -0.229092
    21  C    0.709637
    22  O   -0.602557
    23  C   -0.083046
    24  C    0.024608
    25  C   -0.249660
    26  C    0.276283
    27  N   -0.537744
    28  H    0.406462
    29  H    0.092381
    30  H    0.066076
    31  H    0.021805
    32  H   -0.015001
    33  H    0.168384
    34  H    0.068534
    35  H    0.091599
    36  H    0.040360
    37  H    0.033460
    38  H    0.357808
    39  H    0.373059
    40  H    0.358530
    41  N   -0.542492
    42  C    0.202555
    43  C    0.440933
    44  O   -0.525366
    45  C   -0.393918
    46  C    0.841453
    47  O   -0.722838
    48  O   -0.811498
    49  H    0.203083
    50  H    0.092291
    51  H    0.111757
    52  H    0.101995
    53  N   -0.255014
    54  C   -0.327614
    55  C    0.655769
    56  O   -0.583433
    57  H    0.265362
    58  H    0.148257
    59  H    0.161253
    60  N   -0.471651
    61  C    0.153344
    62  C    0.314978
    63  O   -0.557560
    64  C   -0.296989
    65  C    0.802074
    66  N   -0.897117
    67  O   -0.766611
    68  H    0.324823
    69  H    0.084062
    70  H    0.131757
    71  H    0.082982
    72  H    0.375087
    73  H    0.481977
    74  N    0.139405
    75  C   -0.426994
    76  C    0.712914
    77  O   -0.585113
    78  H    0.170650
    79  H    0.134704
    80  H    0.167470
    81  N   -0.507179
    82  C   -0.099451
    83  C    0.917262
    84  O   -0.709920
    85  C   -0.245635
    86  C    0.160097
    87  C   -0.186814
    88  C   -0.169146
    89  C   -0.235128
    90  C   -0.308137
    91  C    0.322414
    92  O   -0.566368
    93  H    0.350579
    94  H    0.113440
    95  H    0.115095
    96  H    0.086992
    97  H    0.156248
    98  H    0.149513
    99  H    0.171922
   100  H    0.120649
   101  H    0.418564
   102  N   -0.698506
   103  C   -0.236682
   104  C    0.771259
   105  O   -0.566924
   106  C    0.257142
   107  C    0.272278
   108  C   -0.349307
   109  C   -0.373718
   110  H    0.346394
   111  H    0.154184
   112  H   -0.022640
   113  H   -0.034568
   114  H   -0.071886
   115  H    0.099076
   116  H    0.040610
   117  H    0.090856
   118  H    0.069464
   119  H    0.101800
   120  H    0.074995
   121  N   -0.706161
   122  C    0.080021
   123  C    0.567722
   124  O   -0.478075
   125  C    0.136429
   126  O   -0.581431
   127  H    0.518848
   128  H    0.038436
   129  H    0.059509
   130  H    0.029964
   131  H    0.374342
   132  N   -0.528629
   133  C    0.232972
   134  C    0.574982
   135  O   -0.544967
   136  C   -0.416278
   137  H    0.313297
   138  H    0.043604
   139  H    0.138052
   140  H    0.130831
   141  H    0.085934
   142  N   -0.622478
   143  C    0.389995
   144  C    0.117204
   145  O   -0.482783
   146  C   -0.421004
   147  H    0.325799
   148  H    0.046074
   149  H    0.102470
   150  H    0.123526
   151  H    0.103896
   152  N    0.439262
   153  C   -0.699957
   154  C    0.750171
   155  O   -0.632908
   156  C    0.356925
   157  C   -0.186037
   158  C    0.758134
   159  O   -0.872380
   160  O   -0.694842
   161  H   -0.034438
   162  H    0.201064
   163  H   -0.031006
   164  H   -0.181032
   165  H   -0.008983
   166  H    0.044473
   167  N   -0.245947
   168  C   -0.187960
   169  H    0.096826
   170  H    0.100117
   171  H    0.071778
   172  H    0.198221
   173  Ca   1.709041
   174  O   -0.877231
   175  H    0.428148
   176  H    0.441942
 Sum of ESP charges =  -0.00000

 Normal termination of Gaussian 16 at Sun Sep 15 01:20:19 2019.
