 Gaussian 09, Revision D.01,
 Gaussian 09:  ES64L-G09RevD.01 24-Apr-2013

 ----------------------------------------------------------------------
 #maxdisk=50GB #B3LYP/SVP Density=Current scf=(tight) #IOP(5/87=12)Pop=
 (MK,readradii) iop(6/33=2) iop(6/42=6)
 ----------------------------------------------------------------------

 ------------
 SOL molecule
 ------------
 Symbolic Z-matrix:
 Charge =  0 Multiplicity = 1

                         Standard orientation:
 ---------------------------------------------------------------------
 Center     Atomic      Atomic             Coordinates (Angstroms)
 Number     Number       Type             X           Y           Z
 ---------------------------------------------------------------------
      1          6           0        2.335778    2.195093    5.542131
      2          6           0        1.646540    2.353475    4.199422
      3          8           0        2.332373    2.287247    3.179252
      4          1           0        3.400715    2.025247    5.385458
      5          1           0        2.195732    3.100497    6.132001
      6          1           0        1.907506    1.345142    6.073246
      7          7           0        0.312569    2.380339    4.209459
      8          6           0       -0.480744    2.183624    3.016666
      9          6           0       -0.584861    3.459714    2.192862
     10          8           0       -1.271860    4.401474    2.587856
     11          6           0       -1.759418    1.485911    3.458016
     12          6           0       -2.723747    1.310350    2.295326
     13          8           0       -2.283244    1.006355    1.168009
     14          8           0       -3.956512    1.441628    2.444845
     15          1           0       -0.170544    2.369163    5.090298
     16          1           0        0.017522    1.478866    2.349623
     17          1           0       -2.259419    2.120912    4.200763
     18          1           0       -1.523190    0.480849    3.798819
     19          7           0        0.151206    3.569200    1.082133
     20          6           0        0.612555    4.771884    0.416318
     21          6           0       -0.371409    5.467532   -0.506769
     22          8           0       -0.292440    6.682601   -0.636271
     23          6           0        1.925833    4.404079   -0.275578
     24          6           0        2.897686    5.582978   -0.359826
     25          6           0        4.260063    5.209963   -0.928587
     26          6           0        5.107250    6.463173   -1.132152
     27          7           0        6.259108    6.087249   -1.964680
     28          1           0        0.534030    2.744151    0.647691
     29          1           0        0.826037    5.478900    1.221957
     30          1           0        1.694979    3.982293   -1.244135
     31          1           0        2.474460    3.662587    0.299399
     32          1           0        3.108869    6.092945    0.587821
     33          1           0        2.467715    6.374241   -0.980010
     34          1           0        4.119387    4.639532   -1.848435
     35          1           0        4.788903    4.601355   -0.190668
     36          1           0        5.332973    6.979934   -0.203008
     37          1           0        4.509589    7.197196   -1.678148
     38          1           0        6.949351    5.504244   -1.533670
     39          1           0        5.918226    5.495428   -2.714646
     40          1           0        6.725336    6.911266   -2.333363
     41          7           0       -1.261663    4.692469   -1.139638
     42          6           0       -2.368286    5.297321   -1.851987
     43          6           0       -3.622941    5.289568   -0.981711
     44          8           0       -4.526098    6.090419   -1.240642
     45          6           0       -2.618008    4.463699   -3.100071
     46          6           0       -3.014834    2.993169   -2.935848
     47          8           0       -2.734888    2.425085   -1.859832
     48          8           0       -3.478111    2.410097   -3.935500
     49          1           0       -1.176388    3.731396   -0.863474
     50          1           0       -2.173023    6.340962   -2.077343
     51          1           0       -1.695946    4.450727   -3.682680
     52          1           0       -3.335767    5.012937   -3.700204
     53          7           0       -3.681970    4.456020    0.049314
     54          6           0       -4.836325    4.282349    0.905061
     55          6           0       -5.835258    3.222333    0.449650
     56          8           0       -7.039934    3.404182    0.580363
     57          1           0       -2.820674    4.003984    0.316959
     58          1           0       -5.383433    5.202351    1.110169
     59          1           0       -4.428307    3.792147    1.796870
     60          7           0       -5.407913    2.130753   -0.198986
     61          6           0       -6.187148    1.061329   -0.771634
     62          6           0       -6.401851   -0.207459    0.052915
     63          8           0       -7.010433   -1.146441   -0.445824
     64          6           0       -5.822266    0.691796   -2.209412
     65          6           0       -4.739648   -0.359752   -2.425712
     66          7           0       -4.854982   -1.285487   -3.380444
     67          8           0       -3.772570   -0.446052   -1.681258
     68          1           0       -4.411433    2.051902   -0.369016
     69          1           0       -7.153377    1.523645   -0.945027
     70          1           0       -5.635084    1.573063   -2.824986
     71          1           0       -6.741408    0.292519   -2.645941
     72          1           0       -5.608275   -1.335652   -4.050245
     73          1           0       -4.133861   -1.964489   -3.560279
     74          7           0       -5.916280   -0.209820    1.298272
     75          6           0       -5.977668   -1.301397    2.238107
     76          6           0       -5.088096   -2.501640    1.939812
     77          8           0       -5.344363   -3.560529    2.516944
     78          1           0       -5.364002    0.616550    1.489849
     79          1           0       -7.008307   -1.637427    2.326238
     80          1           0       -5.577531   -1.007351    3.211723
     81          7           0       -4.121375   -2.489577    1.028602
     82          6           0       -3.132470   -3.519315    0.762883
     83          6           0       -1.739647   -2.915996    0.700821
     84          8           0       -1.590000   -1.911778   -0.001782
     85          6           0       -3.414492   -4.222347   -0.554504
     86          6           0       -4.802496   -4.801071   -0.684983
     87          6           0       -5.006038   -6.119310   -0.237303
     88          6           0       -5.860556   -4.066110   -1.219529
     89          6           0       -6.268453   -6.722988   -0.337702
     90          6           0       -7.079344   -4.723065   -1.456524
     91          6           0       -7.277010   -6.066369   -1.067472
     92          8           0       -8.519366   -6.610383   -1.222072
     93          1           0       -4.047617   -1.613612    0.516503
     94          1           0       -3.151093   -4.225132    1.591542
     95          1           0       -2.654672   -5.008176   -0.575624
     96          1           0       -3.243456   -3.646482   -1.462428
     97          1           0       -4.102686   -6.530784    0.180961
     98          1           0       -5.720904   -3.033147   -1.514121
     99          1           0       -6.430327   -7.721099    0.038691
    100          1           0       -7.890397   -4.205803   -1.936350
    101          1           0       -9.118059   -5.954671   -1.576062
    102          7           0       -0.696029   -3.481478    1.313267
    103          6           0        0.636365   -2.913433    1.374511
    104          6           0        1.377020   -3.748262    0.342188
    105          8           0        1.456967   -4.966907    0.460148
    106          6           0        1.322629   -2.997698    2.731287
    107          6           0        0.718598   -2.045254    3.762837
    108          6           0        2.811866   -2.682855    2.595835
    109          6           0        0.841839   -2.495982    5.218157
    110          1           0       -0.905499   -4.278385    1.899068
    111          1           0        0.639496   -1.858642    1.099546
    112          1           0        1.087346   -3.984396    3.124441
    113          1           0       -0.367052   -2.075717    3.622707
    114          1           0        1.100934   -1.040955    3.578167
    115          1           0        3.216321   -2.504185    3.595331
    116          1           0        3.262051   -3.547357    2.113373
    117          1           0        2.980082   -1.758791    2.035113
    118          1           0        0.346367   -1.807957    5.902869
    119          1           0        0.495337   -3.504036    5.472840
    120          1           0        1.897308   -2.507909    5.475727
    121          7           0        2.072663   -3.081289   -0.579402
    122          6           0        3.109266   -3.745375   -1.332689
    123          6           0        4.510602   -3.645028   -0.740498
    124          8           0        4.754855   -2.896301    0.207314
    125          6           0        3.039659   -3.320493   -2.803992
    126          8           0        3.969352   -2.284769   -3.017172
    127          1           0        1.885598   -2.094116   -0.644954
    128          1           0        2.973449   -4.827249   -1.334059
    129          1           0        1.996847   -3.088364   -3.024806
    130          1           0        3.292587   -4.152529   -3.456558
    131          1           0        3.784249   -1.911324   -3.879365
    132          7           0        5.377958   -4.456664   -1.335090
    133          6           0        6.770637   -4.498665   -0.904646
    134          6           0        7.450297   -3.139100   -0.822511
    135          8           0        8.074016   -2.695075    0.133270
    136          6           0        7.571886   -5.598869   -1.592288
    137          1           0        5.061451   -5.067366   -2.072834
    138          1           0        6.809445   -4.800456    0.139105
    139          1           0        8.402804   -5.814936   -0.932220
    140          1           0        6.952429   -6.479998   -1.808122
    141          1           0        7.944617   -5.289208   -2.569161
    142          7           0        7.247120   -2.471871   -1.963924
    143          6           0        7.807183   -1.157121   -2.154348
    144          6           0        7.254272   -0.131728   -1.169331
    145          8           0        7.951090    0.811038   -0.799822
    146          6           0        7.545336   -0.786874   -3.613030
    147          1           0        6.921875   -2.991265   -2.772284
    148          1           0        8.878112   -1.076069   -1.963978
    149          1           0        8.002140   -1.569702   -4.211620
    150          1           0        6.461134   -0.755982   -3.734899
    151          1           0        8.101662    0.122155   -3.841872
    152          7           0        5.976928   -0.259140   -0.782342
    153          6           0        5.379482    0.586026    0.225800
    154          6           0        5.873756    0.303405    1.634494
    155          8           0        6.147412    1.263074    2.358613
    156          6           0        3.870860    0.367765    0.246378
    157          6           0        3.184443    0.808854   -1.049759
    158          6           0        1.685301    0.606024   -1.016066
    159          8           0        0.924042    1.423503   -0.444041
    160          8           0        1.127519   -0.457364   -1.374652
    161          1           0        5.408876   -1.022090   -1.098133
    162          1           0        5.629190    1.624222   -0.002005
    163          1           0        3.364775    0.822604    1.091127
    164          1           0        3.687811   -0.701329    0.309861
    165          1           0        3.500096    0.245969   -1.927098
    166          1           0        3.466378    1.839627   -1.238753
    167          7           0        6.167016   -0.929064    2.033891
    168          6           0        6.938974   -1.173363    3.242526
    169          1           0        7.985600   -1.327994    2.979777
    170          1           0        6.855534   -0.314426    3.907912
    171          1           0        6.556653   -2.061491    3.744933
    172          1           0        6.002525   -1.707075    1.413615
    173         20           0       -1.373047    0.440908   -1.226403
    174          8           0       -0.236094    1.325359   -3.477711
    175          1           0        0.688344    1.552932   -3.521588
    176          1           0       -0.580037    1.542383   -4.338411
 ---------------------------------------------------------------------

 SCF Done:  E(RB3LYP) =  -5333.60344561     A.U. after   20 cycles

 The electronic state is 1-A.
 Alpha  occ. eigenvalues -- -145.36827 -19.18945 -19.18301 -19.14534 -19.13601
 Alpha  occ. eigenvalues --  -19.13235 -19.10964 -19.10722 -19.10309 -19.09986
 Alpha  occ. eigenvalues --  -19.09926 -19.09829 -19.07973 -19.07286 -19.06784
 Alpha  occ. eigenvalues --  -19.06551 -19.05132 -19.04894 -19.04387 -19.03768
 Alpha  occ. eigenvalues --  -19.03700 -19.02917 -19.02816 -19.02073 -15.42567
 Alpha  occ. eigenvalues --  -14.59159 -14.40420 -14.38610 -14.36852 -14.36157
 Alpha  occ. eigenvalues --  -14.35544 -14.35058 -14.34057 -14.32966 -14.32440
 Alpha  occ. eigenvalues --  -14.31683 -14.31598 -14.30021 -14.29680 -14.28842
 Alpha  occ. eigenvalues --  -12.56196 -12.56152 -12.56114 -10.35187 -10.32477
 Alpha  occ. eigenvalues --  -10.31319 -10.29443 -10.29432 -10.29337 -10.28690
 Alpha  occ. eigenvalues --  -10.28222 -10.27822 -10.27368 -10.26801 -10.26675
 Alpha  occ. eigenvalues --  -10.25917 -10.25871 -10.25537 -10.25494 -10.25231
 Alpha  occ. eigenvalues --  -10.23902 -10.23499 -10.23407 -10.23380 -10.23334
 Alpha  occ. eigenvalues --  -10.23322 -10.22986 -10.22877 -10.22707 -10.22553
 Alpha  occ. eigenvalues --  -10.22479 -10.22334 -10.22006 -10.21807 -10.20544
 Alpha  occ. eigenvalues --  -10.20419 -10.20411 -10.19968 -10.19783 -10.19301
 Alpha  occ. eigenvalues --  -10.19270 -10.19037 -10.18881 -10.17916 -10.17789
 Alpha  occ. eigenvalues --  -10.17695 -10.17564 -10.17166 -10.16823 -10.16805
 Alpha  occ. eigenvalues --  -10.16413 -10.16250 -10.15980 -10.15935 -10.15898
 Alpha  occ. eigenvalues --  -10.15863 -10.14887  -1.79417  -1.14406  -1.07702
 Alpha  occ. eigenvalues --   -1.07396  -1.07046  -1.06897  -1.06700  -1.05736
 Alpha  occ. eigenvalues --   -1.05130  -1.04423  -1.04111  -1.03585  -1.03024
 Alpha  occ. eigenvalues --   -1.02904  -1.02405  -1.00908  -1.00527  -1.00156
 Alpha  occ. eigenvalues --   -0.99217  -0.98579  -0.98497  -0.97901  -0.97762
 Alpha  occ. eigenvalues --   -0.97559  -0.96855  -0.96073  -0.95726  -0.94119
 Alpha  occ. eigenvalues --   -0.93244  -0.93071  -0.92840  -0.90882  -0.90512
 Alpha  occ. eigenvalues --   -0.89450  -0.89398  -0.88869  -0.88834  -0.88504
 Alpha  occ. eigenvalues --   -0.88470  -0.87555  -0.86997  -0.86374  -0.85307
 Alpha  occ. eigenvalues --   -0.83459  -0.82052  -0.81874  -0.81229  -0.80868
 Alpha  occ. eigenvalues --   -0.79740  -0.78502  -0.77016  -0.76907  -0.75673
 Alpha  occ. eigenvalues --   -0.74819  -0.74444  -0.74263  -0.73810  -0.72860
 Alpha  occ. eigenvalues --   -0.72245  -0.71621  -0.71148  -0.70873  -0.70657
 Alpha  occ. eigenvalues --   -0.70136  -0.69180  -0.68833  -0.68230  -0.67987
 Alpha  occ. eigenvalues --   -0.67487  -0.66998  -0.64895  -0.64500  -0.64228
 Alpha  occ. eigenvalues --   -0.63644  -0.63401  -0.63080  -0.62744  -0.62318
 Alpha  occ. eigenvalues --   -0.62282  -0.61063  -0.60715  -0.60638  -0.59472
 Alpha  occ. eigenvalues --   -0.59406  -0.58803  -0.58702  -0.58628  -0.57784
 Alpha  occ. eigenvalues --   -0.57210  -0.56763  -0.56643  -0.56458  -0.56450
 Alpha  occ. eigenvalues --   -0.56299  -0.55875  -0.55620  -0.54809  -0.54521
 Alpha  occ. eigenvalues --   -0.54375  -0.54096  -0.53608  -0.53392  -0.52906
 Alpha  occ. eigenvalues --   -0.52877  -0.52310  -0.52054  -0.51804  -0.51725
 Alpha  occ. eigenvalues --   -0.51485  -0.51182  -0.50631  -0.50556  -0.50054
 Alpha  occ. eigenvalues --   -0.49842  -0.49774  -0.49563  -0.49054  -0.48531
 Alpha  occ. eigenvalues --   -0.48204  -0.48045  -0.47887  -0.47679  -0.47386
 Alpha  occ. eigenvalues --   -0.47219  -0.46873  -0.46828  -0.46692  -0.46477
 Alpha  occ. eigenvalues --   -0.46347  -0.46235  -0.45800  -0.45596  -0.45391
 Alpha  occ. eigenvalues --   -0.45297  -0.45254  -0.44948  -0.44915  -0.44841
 Alpha  occ. eigenvalues --   -0.44454  -0.44398  -0.44308  -0.44038  -0.43766
 Alpha  occ. eigenvalues --   -0.43651  -0.43574  -0.43378  -0.43123  -0.42972
 Alpha  occ. eigenvalues --   -0.42767  -0.42669  -0.42516  -0.42440  -0.42113
 Alpha  occ. eigenvalues --   -0.41984  -0.41809  -0.41800  -0.41731  -0.41560
 Alpha  occ. eigenvalues --   -0.41245  -0.41226  -0.41092  -0.41058  -0.40756
 Alpha  occ. eigenvalues --   -0.40354  -0.40311  -0.40193  -0.40094  -0.39886
 Alpha  occ. eigenvalues --   -0.39755  -0.39681  -0.39589  -0.39515  -0.39425
 Alpha  occ. eigenvalues --   -0.39266  -0.39005  -0.38704  -0.38574  -0.38476
 Alpha  occ. eigenvalues --   -0.38313  -0.38265  -0.38207  -0.37968  -0.37888
 Alpha  occ. eigenvalues --   -0.37793  -0.37589  -0.37568  -0.37415  -0.37267
 Alpha  occ. eigenvalues --   -0.37104  -0.36942  -0.36846  -0.36715  -0.36685
 Alpha  occ. eigenvalues --   -0.36336  -0.36288  -0.36106  -0.35846  -0.35559
 Alpha  occ. eigenvalues --   -0.35402  -0.35169  -0.35037  -0.34680  -0.34676
 Alpha  occ. eigenvalues --   -0.34321  -0.34086  -0.33899  -0.33830  -0.33715
 Alpha  occ. eigenvalues --   -0.33453  -0.33381  -0.33198  -0.33079  -0.32702
 Alpha  occ. eigenvalues --   -0.32424  -0.32150  -0.32119  -0.31679  -0.31215
 Alpha  occ. eigenvalues --   -0.31058  -0.30729  -0.30715  -0.30563  -0.30285
 Alpha  occ. eigenvalues --   -0.30283  -0.29920  -0.29463  -0.28367  -0.28194
 Alpha  occ. eigenvalues --   -0.27870  -0.27776  -0.27581  -0.27003  -0.26718
 Alpha  occ. eigenvalues --   -0.26338  -0.26279  -0.25591  -0.25437  -0.25094
 Alpha  occ. eigenvalues --   -0.25048  -0.24609  -0.23644  -0.23471  -0.23252
 Alpha  occ. eigenvalues --   -0.22981  -0.22666  -0.22613  -0.22382  -0.21886
 Alpha  occ. eigenvalues --   -0.21813  -0.21761  -0.21617  -0.21274  -0.20857
 Alpha  occ. eigenvalues --   -0.20613  -0.19733  -0.19276  -0.19087  -0.18957
 Alpha  occ. eigenvalues --   -0.18802  -0.17936  -0.17781
 Alpha virt. eigenvalues --   -0.10840  -0.05304  -0.04550  -0.02934  -0.02304
 Alpha virt. eigenvalues --   -0.01633  -0.01412  -0.01180   0.00081   0.00324
 Alpha virt. eigenvalues --    0.00339   0.00965   0.01283   0.01466   0.01592

 Mulliken charges:
               1
     1  C    0.037442
     2  C    0.030100
     3  O   -0.288901
     4  H    0.037393
     5  H    0.024618
     6  H    0.021536
     7  N   -0.108796
     8  C    0.095301
     9  C    0.072627
    10  O   -0.284878
    11  C    0.100453
    12  C    0.100170
    13  O   -0.459331
    14  O   -0.366946
    15  H    0.115169
    16  H   -0.008239
    17  H    0.007414
    18  H    0.013511
    19  N   -0.148290
    20  C    0.108377
    21  C    0.057257
    22  O   -0.284770
    23  C    0.073424
    24  C   -0.012503
    25  C   -0.073343
    26  C    0.037259
    27  N    0.091146
    28  H    0.149567
    29  H    0.004168
    30  H   -0.017019
    31  H    0.040505
    32  H    0.013768
    33  H    0.011706
    34  H    0.013745
    35  H    0.064641
    36  H    0.088918
    37  H    0.064547
    38  H    0.192485
    39  H    0.185251
    40  H    0.194304
    41  N   -0.159973
    42  C    0.162204
    43  C    0.036216
    44  O   -0.284683
    45  C    0.086955
    46  C    0.121594
    47  O   -0.490263
    48  O   -0.375838
    49  H    0.118186
    50  H    0.012012
    51  H   -0.032851
    52  H    0.013384
    53  N   -0.135655
    54  C    0.246725
    55  C    0.016696
    56  O   -0.285414
    57  H    0.130966
    58  H    0.023371
    59  H    0.031124
    60  N   -0.165690
    61  C    0.161578
    62  C    0.023755
    63  O   -0.295436
    64  C    0.057028
    65  C    0.126964
    66  N   -0.047258
    67  O   -0.369570
    68  H    0.147437
    69  H    0.018165
    70  H    0.059020
    71  H   -0.006331
    72  H    0.121939
    73  H    0.117742
    74  N   -0.149144
    75  C    0.265186
    76  C   -0.008490
    77  O   -0.313865
    78  H    0.156916
    79  H    0.032877
    80  H    0.032408
    81  N   -0.140315
    82  C    0.180648
    83  C    0.119332
    84  O   -0.370975
    85  C    0.137839
    86  C   -0.036575
    87  C    0.033110
    88  C    0.026800
    89  C   -0.007085
    90  C   -0.044527
    91  C    0.164335
    92  O   -0.198239
    93  H    0.150696
    94  H   -0.015943
    95  H   -0.026020
    96  H   -0.023729
    97  H   -0.050482
    98  H   -0.041394
    99  H   -0.032807
   100  H   -0.048746
   101  H    0.168582
   102  N   -0.107500
   103  C    0.127159
   104  C    0.062144
   105  O   -0.292036
   106  C   -0.096267
   107  C   -0.002557
   108  C    0.102761
   109  C    0.026872
   110  H    0.131900
   111  H    0.015243
   112  H   -0.025787
   113  H   -0.000007
   114  H    0.019097
   115  H    0.000517
   116  H    0.028583
   117  H    0.006661
   118  H    0.011708
   119  H    0.009468
   120  H   -0.007060
   121  N   -0.123387
   122  C    0.075189
   123  C    0.121447
   124  O   -0.274831
   125  C    0.215950
   126  O   -0.292628
   127  H    0.143449
   128  H    0.023598
   129  H    0.033954
   130  H   -0.024225
   131  H    0.174246
   132  N   -0.112795
   133  C    0.057760
   134  C    0.054722
   135  O   -0.234112
   136  C    0.062585
   137  H    0.120542
   138  H    0.018645
   139  H    0.048931
   140  H    0.028034
   141  H    0.000741
   142  N   -0.139466
   143  C    0.095003
   144  C    0.055025
   145  O   -0.280113
   146  C    0.045359
   147  H    0.110377
   148  H    0.014910
   149  H    0.015792
   150  H    0.007481
   151  H    0.021321
   152  N   -0.149389
   153  C    0.173491
   154  C    0.059357
   155  O   -0.294453
   156  C   -0.098376
   157  C    0.153904
   158  C    0.107836
   159  O   -0.421046
   160  O   -0.425861
   161  H    0.136572
   162  H   -0.035574
   163  H    0.067113
   164  H    0.035153
   165  H   -0.041469
   166  H   -0.051764
   167  N   -0.156573
   168  C    0.131279
   169  H    0.026409
   170  H    0.037081
   171  H    0.007837
   172  H    0.131401
   173  Ca   1.313847
   174  O   -0.276897
   175  H    0.169987
   176  H    0.187456
 Sum of Mulliken charges =   0.00000

 Dipole moment (field-independent basis, Debye):
    X=             40.9245    Y=              1.7015    Z=            -19.6303  Tot=             45.4209
 Quadrupole moment (field-independent basis, Debye-Ang):
   XX=           -574.4695   YY=           -515.6756   ZZ=           -491.8525
   XY=            140.1854   XZ=            -78.3228   YZ=            -14.0491

 ESP charges:
               1
     1  C   -0.441424
     2  C    0.867848
     3  O   -0.673552
     4  H    0.134134
     5  H    0.099864
     6  H    0.098114
     7  N   -0.845729
     8  C    0.393878
     9  C    0.564103
    10  O   -0.551326
    11  C   -0.475904
    12  C    0.897730
    13  O   -0.842509
    14  O   -0.689368
    15  H    0.401143
    16  H   -0.040291
    17  H    0.105417
    18  H    0.116647
    19  N   -0.093699
    20  C   -0.506250
    21  C    0.731733
    22  O   -0.580865
    23  C    0.170153
    24  C   -0.193925
    25  C   -0.010200
    26  C    0.128801
    27  N   -0.455966
    28  H    0.109022
    29  H    0.174181
    30  H    0.001247
    31  H    0.111306
    32  H    0.078746
    33  H    0.056067
    34  H    0.025753
    35  H    0.040073
    36  H    0.083443
    37  H    0.059583
    38  H    0.355528
    39  H    0.332019
    40  H    0.351170
    41  N   -0.539735
    42  C    0.257987
    43  C    0.373710
    44  O   -0.539783
    45  C   -0.369096
    46  C    0.794628
    47  O   -0.713181
    48  O   -0.694489
    49  H    0.246075
    50  H    0.056281
    51  H    0.063594
    52  H    0.095672
    53  N    0.009188
    54  C   -0.250112
    55  C    0.671515
    56  O   -0.601578
    57  H    0.023707
    58  H    0.121329
    59  H    0.100156
    60  N   -0.294628
    61  C   -0.178141
    62  C    0.328813
    63  O   -0.465129
    64  C   -0.089803
    65  C    0.711074
    66  N   -0.875936
    67  O   -0.621615
    68  H    0.169978
    69  H    0.170828
    70  H    0.110117
    71  H    0.037983
    72  H    0.383980
    73  H    0.399818
    74  N   -0.042805
    75  C   -0.382621
    76  C    0.626689
    77  O   -0.565745
    78  H    0.194690
    79  H    0.166764
    80  H    0.145173
    81  N   -0.483801
    82  C    0.358969
    83  C    0.398767
    84  O   -0.571946
    85  C    0.220674
    86  C   -0.084181
    87  C   -0.318157
    88  C   -0.015605
    89  C    0.002787
    90  C   -0.267237
    91  C    0.231175
    92  O   -0.549517
    93  H    0.293055
    94  H   -0.022446
    95  H   -0.048667
    96  H   -0.075270
    97  H    0.145322
    98  H    0.095093
    99  H    0.095207
   100  H    0.116528
   101  H    0.426673
   102  N   -0.551508
   103  C    0.074901
   104  C    0.683695
   105  O   -0.599010
   106  C    0.299250
   107  C    0.008327
   108  C   -0.457958
   109  C   -0.266328
   110  H    0.312457
   111  H    0.053414
   112  H   -0.034673
   113  H    0.006443
   114  H    0.088317
   115  H    0.130355
   116  H    0.105348
   117  H   -0.010614
   118  H    0.072178
   119  H    0.079130
   120  H    0.041191
   121  N   -0.615087
   122  C    0.266635
   123  C    0.589536
   124  O   -0.468656
   125  C    0.046182
   126  O   -0.554248
   127  H    0.368242
   128  H    0.015605
   129  H    0.068561
   130  H    0.004544
   131  H    0.404975
   132  N   -0.699891
   133  C    0.435522
   134  C    0.402695
   135  O   -0.495909
   136  C   -0.336829
   137  H    0.354987
   138  H   -0.004664
   139  H    0.107262
   140  H    0.098721
   141  H    0.067170
   142  N   -0.446558
   143  C    0.222384
   144  C    0.397848
   145  O   -0.533079
   146  C   -0.386708
   147  H    0.268101
   148  H    0.058904
   149  H    0.110713
   150  H    0.076154
   151  H    0.117478
   152  N   -0.219059
   153  C    0.119808
   154  C    0.447061
   155  O   -0.555120
   156  C   -0.381193
   157  C    0.036845
   158  C    0.684661
   159  O   -0.645195
   160  O   -0.763003
   161  H    0.149031
   162  H    0.025361
   163  H    0.183283
   164  H    0.188340
   165  H   -0.032281
   166  H   -0.047965
   167  N   -0.079485
   168  C   -0.256486
   169  H    0.108164
   170  H    0.117526
   171  H    0.076818
   172  H    0.177066
   173  Ca   1.618777
   174  O   -0.827330
   175  H    0.390657
   176  H    0.438740
 Sum of ESP charges =   0.00000

 Normal termination of Gaussian 09 at Mon Sep 16 12:22:40 2019.
