 Gaussian 16, Revision A.03,
 Gaussian 16:  ES64L-G16RevA.03 25-Dec-2016

 ----------------------------------------------------------------------
 #b3lyp/svp scf=(tight,noincore) Test #IOP(5/87=12) Density=Current Pop
 =(MK,readradii) iop(6/33=2) iop(6/42=6)
 ----------------------------------------------------------------------

 -----------------
 CaMKII_loop3_60.0
 -----------------
 Symbolic Z-matrix:
 Charge =  0 Multiplicity = 1

                         Standard orientation:
 ---------------------------------------------------------------------
 Center     Atomic      Atomic             Coordinates (Angstroms)
 Number     Number       Type             X           Y           Z
 ---------------------------------------------------------------------
      1          6           0        2.563024    3.063998    3.999791
      2          6           0        1.648950    2.915174    2.795665
      3          8           0        2.161854    2.897058    1.673078
      4          1           0        3.599617    3.113108    3.665050
      5          1           0        2.311815    3.978508    4.536166
      6          1           0        2.435174    2.207035    4.661202
      7          7           0        0.336228    2.889979    3.032579
      8          6           0       -0.688268    2.683008    2.026761
      9          6           0       -1.153044    4.016374    1.476655
     10          8           0       -2.279105    4.423336    1.757138
     11          6           0       -1.790592    1.773299    2.579853
     12          6           0       -2.821192    1.192394    1.625383
     13          8           0       -2.576928    1.275599    0.398553
     14          8           0       -3.886302    0.651198    1.976452
     15          1           0        0.070849    2.822276    4.005611
     16          1           0       -0.207708    2.156542    1.198512
     17          1           0       -2.267918    2.313243    3.393684
     18          1           0       -1.356143    0.875587    3.031037
     19          7           0       -0.222478    4.694727    0.807488
     20          6           0       -0.510854    6.019325    0.274873
     21          6           0       -1.662499    6.147021   -0.710170
     22          8           0       -2.261129    7.221249   -0.783483
     23          6           0        0.782109    6.567157   -0.324063
     24          6           0        1.833369    6.885488    0.736370
     25          6           0        2.884410    7.756075    0.051979
     26          6           0        4.037490    8.238954    0.928411
     27          7           0        4.670045    7.116779    1.630334
     28          1           0        0.700174    4.315484    0.659885
     29          1           0       -0.794965    6.634696    1.133186
     30          1           0        0.497997    7.461504   -0.869522
     31          1           0        1.294821    5.872118   -0.983644
     32          1           0        2.174827    5.910105    1.080223
     33          1           0        1.364251    7.452492    1.549595
     34          1           0        2.415591    8.642247   -0.389959
     35          1           0        3.322816    7.271061   -0.816331
     36          1           0        3.785988    9.025815    1.635304
     37          1           0        4.791023    8.585681    0.214710
     38          1           0        4.187246    6.808985    2.468885
     39          1           0        4.661659    6.321685    0.996177
     40          1           0        5.633308    7.396952    1.775344
     41          7           0       -2.001685    5.123416   -1.507280
     42          6           0       -3.106082    5.053070   -2.444914
     43          6           0       -4.400735    4.558596   -1.796478
     44          8           0       -5.496141    4.806057   -2.282429
     45          6           0       -2.754563    4.050121   -3.525574
     46          6           0       -2.324157    2.705214   -2.966222
     47          8           0       -3.015319    1.669784   -3.118140
     48          8           0       -1.304522    2.611391   -2.256544
     49          1           0       -1.473106    4.269591   -1.451714
     50          1           0       -3.277357    6.025955   -2.905522
     51          1           0       -1.877400    4.452623   -4.034570
     52          1           0       -3.675549    3.814853   -4.063007
     53          7           0       -4.218178    3.930544   -0.636468
     54          6           0       -5.310982    3.572113    0.239891
     55          6           0       -6.104567    2.291751   -0.025244
     56          8           0       -7.209351    2.239428    0.496497
     57          1           0       -3.251076    3.700411   -0.454389
     58          1           0       -6.016335    4.408114    0.294476
     59          1           0       -4.867376    3.526160    1.225793
     60          7           0       -5.677193    1.309147   -0.820191
     61          6           0       -6.504297    0.177350   -1.175906
     62          6           0       -6.726359   -0.869296   -0.095665
     63          8           0       -7.419983   -1.861538   -0.332606
     64          6           0       -5.877635   -0.476417   -2.409431
     65          6           0       -4.536633   -1.183701   -2.298242
     66          7           0       -3.998832   -1.944621   -3.249594
     67          8           0       -3.818013   -1.083868   -1.308587
     68          1           0       -4.694416    1.382976   -1.044020
     69          1           0       -7.505542    0.542726   -1.391802
     70          1           0       -5.748367    0.332835   -3.135930
     71          1           0       -6.599230   -1.183116   -2.815730
     72          1           0       -4.507510   -2.361841   -4.017236
     73          1           0       -3.145986   -2.373258   -2.918044
     74          7           0       -6.065287   -0.785232    1.060543
     75          6           0       -6.064064   -1.691709    2.183173
     76          6           0       -4.877435   -2.632790    2.304745
     77          8           0       -4.804933   -3.409438    3.259555
     78          1           0       -5.343496   -0.098769    1.226030
     79          1           0       -6.964141   -2.295812    2.290506
     80          1           0       -5.937950   -1.117967    3.108438
     81          7           0       -3.918609   -2.433870    1.401815
     82          6           0       -2.784828   -3.320854    1.243065
     83          6           0       -1.473375   -2.558082    1.251466
     84          8           0       -1.401127   -1.531128    0.563102
     85          6           0       -2.963252   -4.094154   -0.060803
     86          6           0       -4.224396   -4.924779   -0.107479
     87          6           0       -4.316667   -6.045924    0.724158
     88          6           0       -5.307937   -4.510230   -0.892329
     89          6           0       -5.441351   -6.873782    0.669055
     90          6           0       -6.387882   -5.382867   -1.020871
     91          6           0       -6.468914   -6.560279   -0.239311
     92          8           0       -7.545102   -7.395998   -0.318629
     93          1           0       -3.848702   -1.580395    0.855927
     94          1           0       -2.858160   -4.004036    2.086086
     95          1           0       -2.108651   -4.706789   -0.330870
     96          1           0       -2.989923   -3.425481   -0.925942
     97          1           0       -3.531759   -6.320453    1.406471
     98          1           0       -5.208256   -3.515165   -1.313054
     99          1           0       -5.608576   -7.801706    1.192882
    100          1           0       -7.276668   -5.036089   -1.534100
    101          1           0       -8.203194   -6.942140   -0.846482
    102          7           0       -0.443285   -3.091910    1.926700
    103          6           0        0.943634   -2.733001    1.754824
    104          6           0        1.660737   -3.789414    0.928111
    105          8           0        1.570948   -4.974312    1.256827
    106          6           0        1.583472   -2.556256    3.131620
    107          6           0        0.901760   -1.444906    3.920524
    108          6           0        3.098663   -2.381695    3.065866
    109          6           0        1.148136   -1.242295    5.413591
    110          1           0       -0.622867   -3.950349    2.415609
    111          1           0        1.002975   -1.756476    1.279979
    112          1           0        1.480609   -3.511338    3.644493
    113          1           0       -0.185771   -1.517083    3.789495
    114          1           0        1.214771   -0.500374    3.472660
    115          1           0        3.539420   -2.087462    4.022349
    116          1           0        3.543029   -3.279774    2.645040
    117          1           0        3.188566   -1.484008    2.454821
    118          1           0        0.578948   -0.326679    5.587006
    119          1           0        0.841021   -2.119732    5.967112
    120          1           0        2.195260   -0.965026    5.574693
    121          7           0        2.618554   -3.306818    0.137549
    122          6           0        3.630745   -4.116290   -0.516992
    123          6           0        5.043060   -3.759022   -0.088241
    124          8           0        5.264507   -2.934130    0.801879
    125          6           0        3.324541   -4.034624   -2.007418
    126          8           0        3.567331   -2.752978   -2.544294
    127          1           0        2.553400   -2.315577   -0.046290
    128          1           0        3.617582   -5.177681   -0.235964
    129          1           0        2.271500   -4.265431   -2.154157
    130          1           0        3.959065   -4.777431   -2.490136
    131          1           0        2.729959   -2.303168   -2.380958
    132          7           0        6.006663   -4.340484   -0.790218
    133          6           0        7.417878   -4.083556   -0.566482
    134          6           0        7.934386   -2.736230   -1.063806
    135          8           0        8.864384   -2.250218   -0.428670
    136          6           0        8.240875   -5.268398   -1.073362
    137          1           0        5.725186   -5.024400   -1.478789
    138          1           0        7.484910   -4.079544    0.520390
    139          1           0        8.129053   -5.281093   -2.164524
    140          1           0        9.310301   -5.196984   -0.891622
    141          1           0        7.770019   -6.119863   -0.587768
    142          7           0        7.412578   -2.233440   -2.181177
    143          6           0        7.942138   -1.002372   -2.742638
    144          6           0        7.258809    0.102238   -1.946525
    145          8           0        7.898367    1.125416   -1.720533
    146          6           0        7.756647   -1.068813   -4.261216
    147          1           0        6.689745   -2.756749   -2.666007
    148          1           0        9.003009   -0.934632   -2.510765
    149          1           0        6.688248   -0.933295   -4.429614
    150          1           0        8.303156   -0.247312   -4.730111
    151          1           0        8.107203   -1.991153   -4.725758
    152          7           0        6.082968   -0.096666   -1.341930
    153          6           0        5.468099    0.784284   -0.365016
    154          6           0        6.271301    0.791426    0.931486
    155          8           0        6.673853    1.840952    1.434126
    156          6           0        4.003637    0.411891   -0.195392
    157          6           0        3.222572    0.479139   -1.500618
    158          6           0        1.789640   -0.028654   -1.339523
    159          8           0        1.447319   -1.215342   -1.540736
    160          8           0        0.885927    0.742056   -0.946574
    161          1           0        5.551003   -0.881565   -1.681706
    162          1           0        5.581781    1.766583   -0.836148
    163          1           0        3.623359    1.199606    0.455679
    164          1           0        3.906096   -0.552996    0.281766
    165          1           0        3.751280   -0.031800   -2.303555
    166          1           0        3.141702    1.533021   -1.740395
    167          7           0        6.534338   -0.407526    1.451031
    168          6           0        7.254347   -0.494234    2.710502
    169          1           0        8.323221   -0.389486    2.525173
    170          1           0        6.921790    0.302972    3.375598
    171          1           0        7.060152   -1.461125    3.175209
    172          1           0        6.203268   -1.276913    1.049585
    173         20           0       -1.441005    0.140099   -1.587226
    174          8           0       -0.823796   -2.242265   -2.579997
    175          1           0       -0.568733   -3.111461   -2.294968
    176          1           0       -0.018705   -1.866204   -2.935674
 ---------------------------------------------------------------------

 SCF Done:  E(RB3LYP) =  -5333.61441956     A.U. after   19 cycles

 The electronic state is 1-A.
 Alpha  occ. eigenvalues -- -145.36473 -19.18232 -19.14906 -19.14148 -19.13681
 Alpha  occ. eigenvalues --  -19.12012 -19.10843 -19.10608 -19.10495 -19.10438
 Alpha  occ. eigenvalues --  -19.09810 -19.09579 -19.08849 -19.07979 -19.07974
 Alpha  occ. eigenvalues --  -19.07499 -19.06557 -19.06207 -19.04955 -19.04857
 Alpha  occ. eigenvalues --  -19.04107 -19.03483 -19.03313 -19.02870 -15.42245
 Alpha  occ. eigenvalues --  -14.58881 -14.39456 -14.37528 -14.37466 -14.36389
 Alpha  occ. eigenvalues --  -14.36069 -14.36032 -14.35705 -14.35172 -14.33178
 Alpha  occ. eigenvalues --  -14.32316 -14.30472 -14.30430 -14.29940 -14.28574
 Alpha  occ. eigenvalues --  -12.55865 -12.55813 -12.55800 -10.35969 -10.32018
 Alpha  occ. eigenvalues --  -10.30676 -10.29667 -10.29550 -10.28829 -10.28735
 Alpha  occ. eigenvalues --  -10.28716 -10.28099 -10.27950 -10.27847 -10.26735
 Alpha  occ. eigenvalues --  -10.26568 -10.26490 -10.26021 -10.25684 -10.25470
 Alpha  occ. eigenvalues --  -10.25385 -10.24531 -10.24343 -10.23508 -10.23459
 Alpha  occ. eigenvalues --  -10.23313 -10.23154 -10.23083 -10.23056 -10.22679
 Alpha  occ. eigenvalues --  -10.22481 -10.22399 -10.22118 -10.21952 -10.21923
 Alpha  occ. eigenvalues --  -10.21101 -10.21060 -10.20471 -10.20383 -10.20375
 Alpha  occ. eigenvalues --  -10.19422 -10.18985 -10.18983 -10.18852 -10.18219
 Alpha  occ. eigenvalues --  -10.17992 -10.17592 -10.17472 -10.17178 -10.17160
 Alpha  occ. eigenvalues --  -10.16882 -10.16807 -10.16796 -10.16762 -10.16507
 Alpha  occ. eigenvalues --  -10.16485 -10.16176  -1.79210  -1.14244  -1.07007
 Alpha  occ. eigenvalues --   -1.06826  -1.06719  -1.06680  -1.04728  -1.04584
 Alpha  occ. eigenvalues --   -1.04478  -1.04217  -1.04088  -1.03618  -1.03232
 Alpha  occ. eigenvalues --   -1.02960  -1.02637  -1.02500  -1.02330  -1.01888
 Alpha  occ. eigenvalues --   -1.00480  -1.00362  -0.98280  -0.98044  -0.97705
 Alpha  occ. eigenvalues --   -0.97285  -0.96516  -0.96460  -0.94473  -0.94212
 Alpha  occ. eigenvalues --   -0.93391  -0.93283  -0.93000  -0.92762  -0.92026
 Alpha  occ. eigenvalues --   -0.91046  -0.90062  -0.89821  -0.89656  -0.89345
 Alpha  occ. eigenvalues --   -0.88495  -0.87589  -0.87380  -0.86667  -0.85258
 Alpha  occ. eigenvalues --   -0.83760  -0.82429  -0.82326  -0.81408  -0.80017
 Alpha  occ. eigenvalues --   -0.79038  -0.78494  -0.77464  -0.77371  -0.76367
 Alpha  occ. eigenvalues --   -0.76095  -0.75765  -0.74461  -0.73929  -0.73492
 Alpha  occ. eigenvalues --   -0.73084  -0.72711  -0.72077  -0.71477  -0.69988
 Alpha  occ. eigenvalues --   -0.69900  -0.69174  -0.68988  -0.68353  -0.67765
 Alpha  occ. eigenvalues --   -0.67418  -0.66576  -0.66092  -0.65249  -0.64664
 Alpha  occ. eigenvalues --   -0.64096  -0.63442  -0.62837  -0.62270  -0.62130
 Alpha  occ. eigenvalues --   -0.61721  -0.61457  -0.61330  -0.60360  -0.59980
 Alpha  occ. eigenvalues --   -0.59807  -0.59349  -0.59325  -0.58887  -0.58208
 Alpha  occ. eigenvalues --   -0.57673  -0.57513  -0.57278  -0.56772  -0.56580
 Alpha  occ. eigenvalues --   -0.56266  -0.55533  -0.55271  -0.54929  -0.54688
 Alpha  occ. eigenvalues --   -0.54588  -0.54452  -0.53628  -0.53493  -0.53234
 Alpha  occ. eigenvalues --   -0.53060  -0.52868  -0.52509  -0.52185  -0.51951
 Alpha  occ. eigenvalues --   -0.51744  -0.51042  -0.50837  -0.50581  -0.50518
 Alpha  occ. eigenvalues --   -0.50026  -0.49892  -0.49637  -0.49406  -0.49098
 Alpha  occ. eigenvalues --   -0.48964  -0.48751  -0.48411  -0.48258  -0.47879
 Alpha  occ. eigenvalues --   -0.47703  -0.47222  -0.47013  -0.46824  -0.46729
 Alpha  occ. eigenvalues --   -0.46532  -0.46506  -0.46235  -0.46112  -0.45755
 Alpha  occ. eigenvalues --   -0.45586  -0.45435  -0.45185  -0.45129  -0.44993
 Alpha  occ. eigenvalues --   -0.44901  -0.44698  -0.44621  -0.44310  -0.44199
 Alpha  occ. eigenvalues --   -0.44068  -0.43770  -0.43443  -0.43355  -0.43260
 Alpha  occ. eigenvalues --   -0.43197  -0.42827  -0.42693  -0.42603  -0.42403
 Alpha  occ. eigenvalues --   -0.42274  -0.42207  -0.42102  -0.41848  -0.41725
 Alpha  occ. eigenvalues --   -0.41591  -0.41540  -0.41359  -0.41176  -0.40999
 Alpha  occ. eigenvalues --   -0.40947  -0.40790  -0.40625  -0.40511  -0.40473
 Alpha  occ. eigenvalues --   -0.40340  -0.40227  -0.39853  -0.39768  -0.39638
 Alpha  occ. eigenvalues --   -0.39571  -0.39367  -0.39258  -0.39209  -0.39018
 Alpha  occ. eigenvalues --   -0.38975  -0.38871  -0.38777  -0.38636  -0.38405
 Alpha  occ. eigenvalues --   -0.38369  -0.38150  -0.38050  -0.37850  -0.37652
 Alpha  occ. eigenvalues --   -0.37579  -0.37440  -0.37357  -0.36898  -0.36766
 Alpha  occ. eigenvalues --   -0.36757  -0.36506  -0.36418  -0.36288  -0.36101
 Alpha  occ. eigenvalues --   -0.35984  -0.35733  -0.35641  -0.35499  -0.35475
 Alpha  occ. eigenvalues --   -0.34890  -0.34565  -0.34466  -0.34398  -0.34112
 Alpha  occ. eigenvalues --   -0.33981  -0.33891  -0.33499  -0.33273  -0.32623
 Alpha  occ. eigenvalues --   -0.32281  -0.32218  -0.31957  -0.31699  -0.31484
 Alpha  occ. eigenvalues --   -0.31125  -0.30860  -0.30738  -0.30632  -0.30302
 Alpha  occ. eigenvalues --   -0.29467  -0.29110  -0.28985  -0.28609  -0.27853
 Alpha  occ. eigenvalues --   -0.27751  -0.27605  -0.27512  -0.27411  -0.26722
 Alpha  occ. eigenvalues --   -0.26591  -0.26419  -0.26155  -0.25982  -0.25390
 Alpha  occ. eigenvalues --   -0.25326  -0.25182  -0.24464  -0.24171  -0.24149
 Alpha  occ. eigenvalues --   -0.23949  -0.23656  -0.23480  -0.23411  -0.23310
 Alpha  occ. eigenvalues --   -0.23282  -0.22813  -0.22260  -0.21862  -0.21770
 Alpha  occ. eigenvalues --   -0.21325  -0.20850  -0.19972  -0.19790  -0.19103
 Alpha  occ. eigenvalues --   -0.19004  -0.18457  -0.18365
 Alpha virt. eigenvalues --   -0.10642  -0.05354  -0.04433  -0.02127  -0.01977
 Alpha virt. eigenvalues --   -0.01537  -0.00644   0.00008   0.00238   0.00302
 Alpha virt. eigenvalues --    0.00428   0.00590   0.00873   0.00997   0.01051

 Mulliken charges:
               1
     1  C    0.036855
     2  C    0.025989
     3  O   -0.306127
     4  H    0.028476
     5  H    0.013567
     6  H    0.042778
     7  N   -0.121061
     8  C    0.080902
     9  C    0.089424
    10  O   -0.261115
    11  C    0.073800
    12  C    0.160023
    13  O   -0.474819
    14  O   -0.367867
    15  H    0.119076
    16  H    0.045953
    17  H    0.001654
    18  H    0.005817
    19  N   -0.149841
    20  C    0.159820
    21  C    0.072903
    22  O   -0.286351
    23  C   -0.014999
    24  C    0.001950
    25  C   -0.057977
    26  C    0.050459
    27  N    0.065545
    28  H    0.137886
    29  H    0.008266
    30  H    0.023726
    31  H    0.018566
    32  H   -0.008640
    33  H    0.017478
    34  H    0.055676
    35  H    0.029206
    36  H    0.081911
    37  H    0.065250
    38  H    0.208476
    39  H    0.202647
    40  H    0.202315
    41  N   -0.143367
    42  C    0.059073
    43  C    0.049954
    44  O   -0.265517
    45  C    0.171194
    46  C    0.058516
    47  O   -0.416610
    48  O   -0.434334
    49  H    0.125892
    50  H    0.015579
    51  H    0.003744
    52  H    0.025164
    53  N   -0.166325
    54  C    0.236666
    55  C    0.036144
    56  O   -0.303351
    57  H    0.144126
    58  H    0.024312
    59  H    0.032310
    60  N   -0.150489
    61  C    0.184634
    62  C    0.056424
    63  O   -0.314364
    64  C    0.073140
    65  C    0.055109
    66  N   -0.053383
    67  O   -0.349651
    68  H    0.140310
    69  H    0.021609
    70  H    0.057964
    71  H    0.018280
    72  H    0.123883
    73  H    0.124924
    74  N   -0.140910
    75  C    0.217023
    76  C    0.032716
    77  O   -0.305136
    78  H    0.153552
    79  H    0.030938
    80  H    0.028746
    81  N   -0.174909
    82  C    0.118074
    83  C    0.139309
    84  O   -0.342540
    85  C    0.184321
    86  C   -0.050617
    87  C    0.017511
    88  C    0.028928
    89  C   -0.005217
    90  C   -0.019221
    91  C    0.125687
    92  O   -0.192623
    93  H    0.177620
    94  H   -0.009863
    95  H   -0.029018
    96  H   -0.062891
    97  H   -0.034578
    98  H   -0.056279
    99  H   -0.032648
   100  H   -0.029568
   101  H    0.169064
   102  N   -0.112249
   103  C    0.119230
   104  C    0.083731
   105  O   -0.295142
   106  C   -0.075299
   107  C   -0.038985
   108  C    0.071301
   109  C    0.058803
   110  H    0.129398
   111  H    0.014890
   112  H   -0.022558
   113  H    0.025251
   114  H   -0.019765
   115  H   -0.003894
   116  H    0.039329
   117  H   -0.012453
   118  H    0.001872
   119  H    0.024253
   120  H   -0.000109
   121  N   -0.139628
   122  C    0.071842
   123  C    0.104764
   124  O   -0.280739
   125  C    0.256676
   126  O   -0.340252
   127  H    0.142156
   128  H    0.035636
   129  H   -0.002773
   130  H   -0.022968
   131  H    0.153932
   132  N   -0.138457
   133  C    0.080361
   134  C    0.074079
   135  O   -0.264532
   136  C    0.049920
   137  H    0.115394
   138  H    0.021913
   139  H   -0.000168
   140  H    0.046860
   141  H    0.031717
   142  N   -0.170296
   143  C    0.098561
   144  C    0.061724
   145  O   -0.273463
   146  C    0.053912
   147  H    0.118352
   148  H    0.033352
   149  H    0.010752
   150  H    0.034923
   151  H    0.024469
   152  N   -0.154362
   153  C    0.149551
   154  C    0.082246
   155  O   -0.296036
   156  C   -0.039282
   157  C    0.112739
   158  C    0.124872
   159  O   -0.432720
   160  O   -0.410834
   161  H    0.108693
   162  H   -0.028469
   163  H    0.034672
   164  H    0.008413
   165  H   -0.013158
   166  H   -0.005685
   167  N   -0.178015
   168  C    0.145901
   169  H    0.028626
   170  H    0.009190
   171  H    0.010435
   172  H    0.141197
   173  Ca   1.297594
   174  O   -0.284492
   175  H    0.184578
   176  H    0.172093
 Sum of Mulliken charges =  -0.00000

 Dipole moment (field-independent basis, Debye):
    X=             33.1048    Y=             11.8173    Z=             -2.5241  Tot=             35.2413
 Quadrupole moment (field-independent basis, Debye-Ang):
   XX=           -682.1443   YY=           -404.1138   ZZ=           -518.5586
   XY=            122.2838   XZ=             33.7187   YZ=             99.1149

 ESP charges:
               1
     1  C   -0.428711
     2  C    0.734000
     3  O   -0.592731
     4  H    0.110748
     5  H    0.094860
     6  H    0.132572
     7  N   -0.789675
     8  C    0.431673
     9  C    0.636844
    10  O   -0.530695
    11  C   -0.408622
    12  C    0.837455
    13  O   -0.820878
    14  O   -0.688331
    15  H    0.371352
    16  H    0.024570
    17  H    0.090981
    18  H    0.082301
    19  N   -0.665120
    20  C    0.199629
    21  C    0.376138
    22  O   -0.536523
    23  C   -0.365797
    24  C    0.201475
    25  C   -0.041035
    26  C   -0.029963
    27  N   -0.317156
    28  H    0.386826
    29  H    0.081125
    30  H    0.122764
    31  H    0.107527
    32  H   -0.057446
    33  H   -0.009370
    34  H    0.059524
    35  H    0.049181
    36  H    0.094256
    37  H    0.086018
    38  H    0.317854
    39  H    0.320410
    40  H    0.334430
    41  N   -0.271703
    42  C    0.198281
    43  C    0.347428
    44  O   -0.531937
    45  C   -0.510765
    46  C    0.876343
    47  O   -0.800422
    48  O   -0.788507
    49  H    0.249372
    50  H    0.077300
    51  H    0.120068
    52  H    0.161639
    53  N    0.095130
    54  C   -0.418893
    55  C    0.689810
    56  O   -0.594796
    57  H   -0.024226
    58  H    0.163326
    59  H    0.167590
    60  N   -0.363203
    61  C   -0.131501
    62  C    0.448800
    63  O   -0.543747
    64  C   -0.232885
    65  C    0.769263
    66  N   -0.963601
    67  O   -0.385410
    68  H    0.251268
    69  H    0.162301
    70  H    0.120984
    71  H    0.078395
    72  H    0.399501
    73  H    0.436054
    74  N   -0.133585
    75  C   -0.309447
    76  C    0.713510
    77  O   -0.607986
    78  H    0.239159
    79  H    0.134303
    80  H    0.112860
    81  N   -0.279821
    82  C   -0.136756
    83  C    0.783115
    84  O   -0.568818
    85  C    0.139601
    86  C   -0.194402
    87  C   -0.064394
    88  C    0.094041
    89  C   -0.271621
    90  C   -0.478106
    91  C    0.462848
    92  O   -0.567169
    93  H    0.102904
    94  H    0.096926
    95  H   -0.001286
    96  H   -0.056572
    97  H    0.111209
    98  H    0.064159
    99  H    0.154561
   100  H    0.173507
   101  H    0.410601
   102  N   -0.842280
   103  C    0.119406
   104  C    0.522432
   105  O   -0.539673
   106  C    0.167031
   107  C    0.126892
   108  C   -0.285462
   109  C   -0.413550
   110  H    0.374029
   111  H   -0.006129
   112  H    0.001289
   113  H    0.047951
   114  H    0.033300
   115  H    0.067525
   116  H    0.090033
   117  H    0.042558
   118  H    0.084980
   119  H    0.110109
   120  H    0.091964
   121  N   -0.455927
   122  C    0.026021
   123  C    0.571615
   124  O   -0.493298
   125  C    0.086658
   126  O   -0.572045
   127  H    0.585752
   128  H    0.049490
   129  H    0.035063
   130  H    0.025319
   131  H    0.371593
   132  N   -0.440164
   133  C    0.129617
   134  C    0.553140
   135  O   -0.554553
   136  C   -0.356249
   137  H    0.278552
   138  H    0.070723
   139  H    0.072861
   140  H    0.141905
   141  H    0.106294
   142  N   -0.429130
   143  C    0.127552
   144  C    0.326226
   145  O   -0.499072
   146  C   -0.275959
   147  H    0.271941
   148  H    0.102814
   149  H    0.059238
   150  H    0.098994
   151  H    0.091428
   152  N    0.064290
   153  C   -0.619526
   154  C    0.642244
   155  O   -0.579154
   156  C    0.698950
   157  C   -0.479232
   158  C    0.964426
   159  O   -0.926517
   160  O   -0.805487
   161  H    0.119374
   162  H    0.162176
   163  H   -0.030911
   164  H   -0.390809
   165  H    0.068863
   166  H    0.102764
   167  N   -0.114722
   168  C   -0.279104
   169  H    0.115355
   170  H    0.092956
   171  H    0.101556
   172  H    0.156123
   173  Ca   1.665100
   174  O   -0.955131
   175  H    0.479073
   176  H    0.471486
 Sum of ESP charges =   0.00000

 Normal termination of Gaussian 16 at Wed Sep 18 17:27:22 2019.
