 Gaussian 16, Revision A.03,
 Gaussian 16:  ES64L-G16RevA.03 25-Dec-2016

 ----------------------------------------------------------------------
 #b3lyp/svp scf=(tight,noincore) Test #IOP(5/87=12) Density=Current Pop
 =(MK,readradii) iop(6/33=2) iop(6/42=6)
 ----------------------------------------------------------------------

 -----------------
 CaMKII_loop3_59.0
 -----------------
 Symbolic Z-matrix:
 Charge =  0 Multiplicity = 1

                         Standard orientation:
 ---------------------------------------------------------------------
 Center     Atomic      Atomic             Coordinates (Angstroms)
 Number     Number       Type             X           Y           Z
 ---------------------------------------------------------------------
      1          6           0        1.860726    1.512804    5.782338
      2          6           0        1.317719    1.640832    4.364293
      3          8           0        2.083913    1.689648    3.400361
      4          1           0        2.725785    2.165863    5.899942
      5          1           0        1.088322    1.801535    6.495494
      6          1           0        2.158334    0.480226    5.965878
      7          7           0       -0.005601    1.640831    4.164985
      8          6           0       -0.624165    1.721715    2.864279
      9          6           0       -0.597559    3.191069    2.442269
     10          8           0       -1.265162    4.061177    2.990920
     11          6           0       -2.066923    1.250019    2.956756
     12          6           0       -2.945751    1.533112    1.735888
     13          8           0       -4.181928    1.473882    1.926833
     14          8           0       -2.471732    1.807041    0.614608
     15          1           0       -0.596448    1.451131    4.955120
     16          1           0       -0.196305    1.070620    2.094141
     17          1           0       -2.576148    1.716388    3.797999
     18          1           0       -1.994994    0.181398    3.123414
     19          7           0        0.254135    3.430748    1.449007
     20          6           0        0.631884    4.748409    0.971433
     21          6           0       -0.419256    5.486756    0.165116
     22          8           0       -0.317476    6.704215    0.031200
     23          6           0        1.979520    4.646552    0.261712
     24          6           0        2.823842    5.890611    0.007279
     25          6           0        4.148189    5.466835   -0.645652
     26          6           0        5.168128    6.599079   -0.764600
     27          7           0        4.720613    7.797090   -1.487579
     28          1           0        0.818212    2.629017    1.166265
     29          1           0        0.806704    5.395059    1.826174
     30          1           0        1.776686    4.146439   -0.685993
     31          1           0        2.547431    3.942071    0.878707
     32          1           0        3.084311    6.427781    0.917501
     33          1           0        2.268536    6.536937   -0.671837
     34          1           0        3.930861    5.117860   -1.647642
     35          1           0        4.605696    4.636317   -0.106924
     36          1           0        6.025880    6.151877   -1.269746
     37          1           0        5.526183    6.808175    0.248798
     38          1           0        4.624433    7.735728   -2.491165
     39          1           0        3.846557    8.112151   -1.095452
     40          1           0        5.219562    8.654470   -1.337418
     41          7           0       -1.392451    4.775219   -0.428691
     42          6           0       -2.383982    5.355979   -1.299142
     43          6           0       -3.840697    5.073745   -0.955449
     44          8           0       -4.678265    5.687553   -1.601839
     45          6           0       -1.997990    5.016434   -2.738072
     46          6           0       -1.722240    3.573261   -3.156536
     47          8           0       -2.001672    2.635878   -2.375939
     48          8           0       -1.351453    3.285155   -4.311877
     49          1           0       -1.290925    3.773349   -0.334616
     50          1           0       -2.305662    6.444930   -1.246684
     51          1           0       -1.149996    5.567535   -3.154356
     52          1           0       -2.890020    5.302886   -3.290274
     53          7           0       -4.092683    4.316565    0.109531
     54          6           0       -5.437192    4.159136    0.634424
     55          6           0       -6.258324    3.259398   -0.277120
     56          8           0       -7.395546    3.574506   -0.617757
     57          1           0       -3.310817    3.786584    0.481020
     58          1           0       -5.873254    5.128661    0.834355
     59          1           0       -5.314074    3.742528    1.633764
     60          7           0       -5.698881    2.097679   -0.621407
     61          6           0       -6.442279    1.013500   -1.238267
     62          6           0       -6.413709   -0.263771   -0.421467
     63          8           0       -6.874309   -1.287017   -0.922082
     64          6           0       -5.848334    0.797352   -2.624957
     65          6           0       -4.642957   -0.135714   -2.707738
     66          7           0       -4.765221   -1.205648   -3.483942
     67          8           0       -3.658995   -0.157056   -1.976189
     68          1           0       -4.803096    1.763209   -0.292320
     69          1           0       -7.495959    1.281749   -1.237986
     70          1           0       -5.554422    1.771080   -3.024543
     71          1           0       -6.595717    0.427892   -3.317719
     72          1           0       -5.376533   -1.170612   -4.287913
     73          1           0       -4.065567   -1.927011   -3.428070
     74          7           0       -6.168924   -0.186774    0.895443
     75          6           0       -6.360257   -1.181364    1.939034
     76          6           0       -5.381780   -2.335761    1.827461
     77          8           0       -5.576676   -3.388626    2.437127
     78          1           0       -5.770968    0.679689    1.219437
     79          1           0       -7.363347   -1.603845    1.918510
     80          1           0       -6.289749   -0.671677    2.900828
     81          7           0       -4.288869   -2.116988    1.091061
     82          6           0       -3.329602   -3.113878    0.649454
     83          6           0       -1.908566   -2.573237    0.618415
     84          8           0       -1.745238   -1.372667    0.421043
     85          6           0       -3.667231   -3.508836   -0.791072
     86          6           0       -4.395464   -4.828598   -0.793139
     87          6           0       -3.735892   -6.063451   -0.700934
     88          6           0       -5.796918   -4.775527   -0.868035
     89          6           0       -4.468658   -7.256024   -0.682941
     90          6           0       -6.509540   -5.975730   -0.946666
     91          6           0       -5.875473   -7.230275   -0.825104
     92          8           0       -6.536084   -8.420090   -0.848174
     93          1           0       -4.135778   -1.196141    0.710794
     94          1           0       -3.393457   -3.978999    1.304732
     95          1           0       -2.788370   -3.667229   -1.407770
     96          1           0       -4.314120   -2.728215   -1.200786
     97          1           0       -2.668951   -6.041934   -0.546427
     98          1           0       -6.266646   -3.812882   -0.766691
     99          1           0       -3.895909   -8.158992   -0.630906
    100          1           0       -7.586751   -5.921815   -0.943679
    101          1           0       -7.499203   -8.354168   -0.860641
    102          7           0       -0.884201   -3.331349    1.030533
    103          6           0        0.491093   -2.985620    1.312731
    104          6           0        1.309740   -3.847265    0.345733
    105          8           0        1.027448   -5.037640    0.242200
    106          6           0        0.891945   -3.212800    2.768996
    107          6           0        0.222502   -2.260908    3.755834
    108          6           0        2.390421   -2.992601    2.937755
    109          6           0        0.278717   -2.658226    5.220954
    110          1           0       -1.107762   -4.310996    1.129594
    111          1           0        0.621997   -1.938417    1.028600
    112          1           0        0.553070   -4.215729    3.014550
    113          1           0       -0.846905   -2.157121    3.564008
    114          1           0        0.526446   -1.225304    3.614261
    115          1           0        2.637083   -3.322820    3.945680
    116          1           0        2.936554   -3.666472    2.278941
    117          1           0        2.635306   -1.958479    2.682561
    118          1           0        1.272748   -2.698244    5.669396
    119          1           0       -0.193726   -1.992083    5.945420
    120          1           0       -0.207003   -3.627191    5.327646
    121          7           0        2.347427   -3.287843   -0.274874
    122          6           0        3.313969   -3.978766   -1.104464
    123          6           0        4.767798   -3.799621   -0.695453
    124          8           0        5.097405   -2.985227    0.157613
    125          6           0        3.213465   -3.430396   -2.520371
    126          8           0        3.719563   -2.114560   -2.543607
    127          1           0        2.531543   -2.306095   -0.107027
    128          1           0        3.133543   -5.054728   -1.052972
    129          1           0        2.135805   -3.496649   -2.652881
    130          1           0        3.700452   -4.013998   -3.306280
    131          1           0        3.525756   -1.787112   -3.422309
    132          7           0        5.639638   -4.568959   -1.353339
    133          6           0        7.047771   -4.370860   -1.059881
    134          6           0        7.445006   -2.907035   -1.098872
    135          8           0        8.051062   -2.472309   -0.124034
    136          6           0        7.961278   -5.160017   -2.001442
    137          1           0        5.443096   -5.146663   -2.146642
    138          1           0        7.196885   -4.698439   -0.025929
    139          1           0        9.036740   -4.959206   -1.910030
    140          1           0        7.829415   -6.229056   -1.903113
    141          1           0        7.643193   -4.880711   -3.006783
    142          7           0        7.074857   -2.135106   -2.118782
    143          6           0        7.512735   -0.769039   -2.341324
    144          6           0        6.967235    0.145821   -1.251205
    145          8           0        7.786070    0.957638   -0.819623
    146          6           0        7.022633   -0.410102   -3.745875
    147          1           0        6.461911   -2.556946   -2.798008
    148          1           0        8.608404   -0.784450   -2.275197
    149          1           0        7.362351    0.569760   -4.074299
    150          1           0        7.273027   -1.171923   -4.482171
    151          1           0        5.939020   -0.293777   -3.696369
    152          7           0        5.724031   -0.052359   -0.818923
    153          6           0        5.263491    0.750347    0.293627
    154          6           0        5.866995    0.400742    1.649672
    155          8           0        6.233427    1.364081    2.314432
    156          6           0        3.745009    0.699522    0.432296
    157          6           0        3.098172    1.212106   -0.845264
    158          6           0        1.573044    1.321369   -0.870691
    159          8           0        1.016460    1.683109   -1.929160
    160          8           0        0.911216    0.916414    0.101726
    161          1           0        5.041464   -0.526343   -1.392631
    162          1           0        5.589802    1.760602    0.038664
    163          1           0        3.448872    1.256524    1.325297
    164          1           0        3.410271   -0.297269    0.719627
    165          1           0        3.440488    0.420976   -1.514542
    166          1           0        3.465773    2.178106   -1.179199
    167          7           0        6.118075   -0.867982    1.974013
    168          6           0        6.929702   -1.297509    3.096184
    169          1           0        7.933150   -0.884191    2.996417
    170          1           0        6.482221   -0.943931    4.025444
    171          1           0        6.985193   -2.385992    3.109880
    172          1           0        5.764791   -1.576550    1.351902
    173         20           0       -1.288749    0.486018   -1.345482
    174          8           0        0.144218   -1.745962   -1.999599
    175          1           0        0.870391   -1.662725   -2.617534
    176          1           0       -0.232213   -2.604800   -2.197583
 ---------------------------------------------------------------------

 SCF Done:  E(RB3LYP) =  -5333.57389491     A.U. after   18 cycles

 The electronic state is 1-A.
 Alpha  occ. eigenvalues -- -145.36049 -19.21685 -19.21449 -19.15694 -19.15007
 Alpha  occ. eigenvalues --  -19.12953 -19.12905 -19.12165 -19.10186 -19.09164
 Alpha  occ. eigenvalues --  -19.07671 -19.07252 -19.07223 -19.07200 -19.06155
 Alpha  occ. eigenvalues --  -19.05974 -19.05688 -19.05643 -19.05209 -19.04626
 Alpha  occ. eigenvalues --  -19.03834 -19.03247 -19.00031 -18.97632 -15.41822
 Alpha  occ. eigenvalues --  -14.57813 -14.40690 -14.39357 -14.38062 -14.37119
 Alpha  occ. eigenvalues --  -14.36311 -14.35191 -14.33859 -14.33760 -14.32363
 Alpha  occ. eigenvalues --  -14.31859 -14.31398 -14.30485 -14.30219 -14.29112
 Alpha  occ. eigenvalues --  -12.55443 -12.55391 -12.55374 -10.33770 -10.33429
 Alpha  occ. eigenvalues --  -10.31378 -10.31306 -10.30544 -10.30440 -10.29284
 Alpha  occ. eigenvalues --  -10.28418 -10.27795 -10.26591 -10.26515 -10.26199
 Alpha  occ. eigenvalues --  -10.26182 -10.25850 -10.25520 -10.25180 -10.24669
 Alpha  occ. eigenvalues --  -10.24592 -10.24576 -10.24166 -10.24162 -10.24110
 Alpha  occ. eigenvalues --  -10.23971 -10.23537 -10.22873 -10.22719 -10.21893
 Alpha  occ. eigenvalues --  -10.21812 -10.21469 -10.21116 -10.21096 -10.20783
 Alpha  occ. eigenvalues --  -10.20670 -10.19777 -10.19645 -10.19568 -10.19493
 Alpha  occ. eigenvalues --  -10.18928 -10.18655 -10.18633 -10.18454 -10.18408
 Alpha  occ. eigenvalues --  -10.18259 -10.18129 -10.18082 -10.18029 -10.17958
 Alpha  occ. eigenvalues --  -10.17946 -10.17607 -10.17509 -10.17112 -10.17066
 Alpha  occ. eigenvalues --  -10.15504 -10.11847  -1.78737  -1.13126  -1.10084
 Alpha  occ. eigenvalues --   -1.08170  -1.07622  -1.06710  -1.06570  -1.06144
 Alpha  occ. eigenvalues --   -1.05940  -1.05336  -1.05050  -1.04015  -1.03752
 Alpha  occ. eigenvalues --   -1.01931  -1.01866  -1.00950  -1.00567  -0.99961
 Alpha  occ. eigenvalues --   -0.99404  -0.98938  -0.98793  -0.98220  -0.97740
 Alpha  occ. eigenvalues --   -0.97579  -0.96334  -0.96162  -0.94728  -0.94115
 Alpha  occ. eigenvalues --   -0.93862  -0.92186  -0.91500  -0.91278  -0.91109
 Alpha  occ. eigenvalues --   -0.90018  -0.89729  -0.89257  -0.89014  -0.88212
 Alpha  occ. eigenvalues --   -0.87883  -0.87741  -0.87205  -0.85569  -0.84242
 Alpha  occ. eigenvalues --   -0.84009  -0.82921  -0.82642  -0.80635  -0.80431
 Alpha  occ. eigenvalues --   -0.79060  -0.78936  -0.77777  -0.76542  -0.76209
 Alpha  occ. eigenvalues --   -0.75688  -0.74138  -0.73479  -0.73250  -0.72535
 Alpha  occ. eigenvalues --   -0.71997  -0.71645  -0.71501  -0.71160  -0.71083
 Alpha  occ. eigenvalues --   -0.70397  -0.69629  -0.69137  -0.68355  -0.67802
 Alpha  occ. eigenvalues --   -0.67710  -0.66782  -0.66005  -0.65793  -0.65087
 Alpha  occ. eigenvalues --   -0.64041  -0.63323  -0.63212  -0.62042  -0.61772
 Alpha  occ. eigenvalues --   -0.61240  -0.61140  -0.60663  -0.60534  -0.60429
 Alpha  occ. eigenvalues --   -0.59898  -0.59852  -0.59745  -0.59597  -0.58968
 Alpha  occ. eigenvalues --   -0.58583  -0.58347  -0.57855  -0.57536  -0.56634
 Alpha  occ. eigenvalues --   -0.56399  -0.55821  -0.55531  -0.55274  -0.55160
 Alpha  occ. eigenvalues --   -0.54970  -0.54249  -0.53710  -0.53521  -0.53382
 Alpha  occ. eigenvalues --   -0.53144  -0.52889  -0.52437  -0.51849  -0.51587
 Alpha  occ. eigenvalues --   -0.51433  -0.51383  -0.51103  -0.50522  -0.50121
 Alpha  occ. eigenvalues --   -0.49837  -0.49689  -0.49532  -0.49174  -0.48904
 Alpha  occ. eigenvalues --   -0.48655  -0.48466  -0.48223  -0.48007  -0.47851
 Alpha  occ. eigenvalues --   -0.47788  -0.47717  -0.47524  -0.47469  -0.47237
 Alpha  occ. eigenvalues --   -0.46216  -0.46148  -0.46024  -0.45956  -0.45740
 Alpha  occ. eigenvalues --   -0.45618  -0.45311  -0.44856  -0.44796  -0.44625
 Alpha  occ. eigenvalues --   -0.44522  -0.44160  -0.44082  -0.43933  -0.43873
 Alpha  occ. eigenvalues --   -0.43770  -0.43718  -0.43434  -0.43335  -0.43163
 Alpha  occ. eigenvalues --   -0.43046  -0.43001  -0.42935  -0.42912  -0.42589
 Alpha  occ. eigenvalues --   -0.42233  -0.41946  -0.41682  -0.41611  -0.41497
 Alpha  occ. eigenvalues --   -0.41425  -0.41136  -0.41055  -0.40942  -0.40861
 Alpha  occ. eigenvalues --   -0.40802  -0.40705  -0.40564  -0.40412  -0.40190
 Alpha  occ. eigenvalues --   -0.40143  -0.39805  -0.39413  -0.39340  -0.39206
 Alpha  occ. eigenvalues --   -0.39058  -0.38982  -0.38950  -0.38835  -0.38783
 Alpha  occ. eigenvalues --   -0.38683  -0.38589  -0.38444  -0.38238  -0.38146
 Alpha  occ. eigenvalues --   -0.38010  -0.37900  -0.37640  -0.37563  -0.37393
 Alpha  occ. eigenvalues --   -0.37192  -0.37094  -0.37057  -0.36861  -0.36598
 Alpha  occ. eigenvalues --   -0.36485  -0.36325  -0.36144  -0.35987  -0.35894
 Alpha  occ. eigenvalues --   -0.35881  -0.35617  -0.35272  -0.34886  -0.34766
 Alpha  occ. eigenvalues --   -0.34674  -0.34424  -0.34386  -0.33957  -0.33816
 Alpha  occ. eigenvalues --   -0.33606  -0.33447  -0.33243  -0.33118  -0.32963
 Alpha  occ. eigenvalues --   -0.32434  -0.32326  -0.32157  -0.31947  -0.31839
 Alpha  occ. eigenvalues --   -0.31724  -0.31537  -0.31077  -0.30849  -0.30046
 Alpha  occ. eigenvalues --   -0.29704  -0.29319  -0.29265  -0.28611  -0.28183
 Alpha  occ. eigenvalues --   -0.28025  -0.27909  -0.27838  -0.26311  -0.25815
 Alpha  occ. eigenvalues --   -0.25743  -0.25655  -0.25079  -0.24925  -0.24645
 Alpha  occ. eigenvalues --   -0.24476  -0.24411  -0.24184  -0.23883  -0.23273
 Alpha  occ. eigenvalues --   -0.22942  -0.22535  -0.22371  -0.22351  -0.22320
 Alpha  occ. eigenvalues --   -0.22131  -0.21745  -0.21372  -0.21253  -0.21164
 Alpha  occ. eigenvalues --   -0.21104  -0.20712  -0.19781  -0.18899  -0.18481
 Alpha  occ. eigenvalues --   -0.17720  -0.16487  -0.13662
 Alpha virt. eigenvalues --   -0.09477  -0.05061  -0.03863  -0.02866  -0.02262
 Alpha virt. eigenvalues --   -0.02214  -0.01477  -0.00840  -0.00559  -0.00318
 Alpha virt. eigenvalues --   -0.00082   0.00040   0.00559   0.01100   0.01701

 Mulliken charges:
               1
     1  C    0.069863
     2  C    0.025401
     3  O   -0.292443
     4  H    0.039804
     5  H    0.001285
     6  H    0.035542
     7  N   -0.112854
     8  C    0.056242
     9  C    0.060075
    10  O   -0.277980
    11  C    0.080992
    12  C    0.162974
    13  O   -0.404403
    14  O   -0.455730
    15  H    0.110949
    16  H    0.039050
    17  H    0.006027
    18  H   -0.004266
    19  N   -0.149358
    20  C    0.187562
    21  C    0.059698
    22  O   -0.319599
    23  C   -0.067915
    24  C    0.030394
    25  C   -0.062748
    26  C    0.045097
    27  N    0.089777
    28  H    0.163027
    29  H   -0.008013
    30  H    0.039394
    31  H    0.036990
    32  H   -0.000221
    33  H    0.008766
    34  H    0.028984
    35  H    0.075657
    36  H    0.070930
    37  H    0.081996
    38  H    0.194063
    39  H    0.180277
    40  H    0.176357
    41  N   -0.148854
    42  C    0.171545
    43  C    0.058084
    44  O   -0.288614
    45  C    0.037304
    46  C    0.099175
    47  O   -0.492552
    48  O   -0.375594
    49  H    0.154729
    50  H    0.012905
    51  H   -0.023772
    52  H    0.018154
    53  N   -0.171172
    54  C    0.257870
    55  C    0.052809
    56  O   -0.275910
    57  H    0.149409
    58  H   -0.001279
    59  H    0.021966
    60  N   -0.172203
    61  C    0.090361
    62  C    0.030790
    63  O   -0.293429
    64  C    0.159039
    65  C    0.089679
    66  N   -0.038964
    67  O   -0.381792
    68  H    0.138996
    69  H    0.046274
    70  H    0.063788
    71  H   -0.007977
    72  H    0.131176
    73  H    0.116634
    74  N   -0.158571
    75  C    0.235738
    76  C    0.026316
    77  O   -0.289831
    78  H    0.144122
    79  H    0.026928
    80  H    0.043380
    81  N   -0.138636
    82  C    0.129613
    83  C    0.093278
    84  O   -0.362333
    85  C    0.121704
    86  C   -0.083919
    87  C   -0.015723
    88  C    0.005840
    89  C   -0.015013
    90  C   -0.035844
    91  C    0.193961
    92  O   -0.206746
    93  H    0.147995
    94  H    0.026301
    95  H   -0.033431
    96  H    0.032429
    97  H   -0.052378
    98  H    0.000601
    99  H   -0.036692
   100  H   -0.040391
   101  H    0.179742
   102  N   -0.118465
   103  C    0.151975
   104  C    0.022816
   105  O   -0.285294
   106  C   -0.056916
   107  C    0.004603
   108  C    0.064419
   109  C    0.021273
   110  H    0.132656
   111  H    0.018571
   112  H   -0.019936
   113  H    0.004025
   114  H    0.015617
   115  H    0.011809
   116  H    0.003815
   117  H    0.042367
   118  H    0.003862
   119  H    0.002978
   120  H    0.008151
   121  N   -0.115653
   122  C    0.100751
   123  C    0.113439
   124  O   -0.244783
   125  C    0.182246
   126  O   -0.289797
   127  H    0.148394
   128  H    0.043312
   129  H   -0.022027
   130  H    0.005286
   131  H    0.188938
   132  N   -0.136032
   133  C    0.096899
   134  C    0.031040
   135  O   -0.254088
   136  C    0.043760
   137  H    0.113284
   138  H    0.021993
   139  H    0.053058
   140  H    0.025214
   141  H   -0.010484
   142  N   -0.125297
   143  C    0.101265
   144  C    0.079027
   145  O   -0.266529
   146  C    0.043271
   147  H    0.085563
   148  H    0.021265
   149  H    0.029933
   150  H    0.017425
   151  H   -0.018557
   152  N   -0.146030
   153  C    0.117717
   154  C    0.065132
   155  O   -0.289023
   156  C   -0.021199
   157  C    0.100802
   158  C    0.094829
   159  O   -0.386135
   160  O   -0.409872
   161  H    0.132895
   162  H   -0.021758
   163  H    0.045882
   164  H   -0.023949
   165  H   -0.053478
   166  H   -0.017688
   167  N   -0.150677
   168  C    0.155949
   169  H    0.028598
   170  H    0.015152
   171  H    0.005974
   172  H    0.126235
   173  Ca   1.275515
   174  O   -0.275596
   175  H    0.182894
   176  H    0.188732
 Sum of Mulliken charges =  -0.00000

 Dipole moment (field-independent basis, Debye):
    X=             27.7038    Y=             -2.7785    Z=            -11.1721  Tot=             30.0006
 Quadrupole moment (field-independent basis, Debye-Ang):
   XX=           -591.8381   YY=           -419.7103   ZZ=           -532.2049
   XY=            148.0244   XZ=            -74.5396   YZ=             19.4574

 ESP charges:
               1
     1  C   -0.477505
     2  C    0.823056
     3  O   -0.652138
     4  H    0.142941
     5  H    0.098784
     6  H    0.136682
     7  N   -0.790443
     8  C    0.537017
     9  C    0.414401
    10  O   -0.540867
    11  C   -0.614760
    12  C    0.879381
    13  O   -0.666996
    14  O   -0.527722
    15  H    0.364000
    16  H   -0.071129
    17  H    0.126199
    18  H    0.126670
    19  N    0.065948
    20  C   -0.732951
    21  C    0.837644
    22  O   -0.620041
    23  C    0.462955
    24  C   -0.306929
    25  C    0.127500
    26  C    0.015426
    27  N   -0.341927
    28  H    0.105486
    29  H    0.186603
    30  H   -0.012151
    31  H   -0.013987
    32  H    0.067617
    33  H    0.057769
    34  H    0.004218
    35  H    0.032440
    36  H    0.062930
    37  H    0.087005
    38  H    0.343436
    39  H    0.314392
    40  H    0.316577
    41  N   -0.551932
    42  C    0.064425
    43  C    0.492243
    44  O   -0.528242
    45  C   -0.205242
    46  C    0.837548
    47  O   -0.801237
    48  O   -0.731134
    49  H    0.245889
    50  H    0.091282
    51  H    0.027776
    52  H    0.049816
    53  N   -0.211603
    54  C   -0.172731
    55  C    0.502221
    56  O   -0.544897
    57  H    0.137501
    58  H    0.106224
    59  H    0.117745
    60  N   -0.177915
    61  C    0.089864
    62  C    0.502459
    63  O   -0.541926
    64  C   -0.217516
    65  C    0.628751
    66  N   -0.760647
    67  O   -0.611936
    68  H    0.002447
    69  H    0.085360
    70  H    0.139070
    71  H    0.062877
    72  H    0.368841
    73  H    0.365423
    74  N   -0.300257
    75  C   -0.197568
    76  C    0.588175
    77  O   -0.558471
    78  H    0.241738
    79  H    0.122214
    80  H    0.142202
    81  N   -0.485082
    82  C    0.349204
    83  C    0.461692
    84  O   -0.533738
    85  C   -0.029235
    86  C   -0.027592
    87  C   -0.213263
    88  C   -0.015420
    89  C   -0.236639
    90  C   -0.393938
    91  C    0.439866
    92  O   -0.582911
    93  H    0.198654
    94  H    0.028873
    95  H    0.014607
    96  H   -0.007811
    97  H    0.130792
    98  H    0.151263
    99  H    0.153715
   100  H    0.153208
   101  H    0.425321
   102  N   -0.656974
   103  C    0.193638
   104  C    0.510887
   105  O   -0.566729
   106  C    0.131737
   107  C    0.041569
   108  C   -0.315593
   109  C   -0.337024
   110  H    0.314411
   111  H    0.049979
   112  H    0.019367
   113  H    0.027883
   114  H    0.064192
   115  H    0.102132
   116  H    0.041957
   117  H    0.053064
   118  H    0.079004
   119  H    0.089213
   120  H    0.081078
   121  N   -0.138790
   122  C   -0.003309
   123  C    0.450503
   124  O   -0.382807
   125  C    0.002852
   126  O   -0.440267
   127  H    0.171324
   128  H    0.080867
   129  H    0.013060
   130  H    0.051719
   131  H    0.380314
   132  N   -0.493885
   133  C    0.192509
   134  C    0.456028
   135  O   -0.527213
   136  C   -0.372435
   137  H    0.315047
   138  H    0.067788
   139  H    0.138656
   140  H    0.115296
   141  H    0.067706
   142  N   -0.329105
   143  C    0.041750
   144  C    0.439386
   145  O   -0.516743
   146  C   -0.336556
   147  H    0.212465
   148  H    0.105412
   149  H    0.121392
   150  H    0.099886
   151  H    0.057439
   152  N   -0.076111
   153  C   -0.248627
   154  C    0.540173
   155  O   -0.554931
   156  C   -0.101186
   157  C   -0.026379
   158  C    0.780037
   159  O   -0.750936
   160  O   -0.692500
   161  H    0.207624
   162  H    0.101952
   163  H    0.129791
   164  H   -0.006425
   165  H   -0.076034
   166  H   -0.026556
   167  N   -0.085189
   168  C   -0.290216
   169  H    0.129728
   170  H    0.088485
   171  H    0.113203
   172  H    0.115856
   173  Ca   1.517902
   174  O   -0.818822
   175  H    0.403705
   176  H    0.413441
 Sum of ESP charges =   0.00000

 Normal termination of Gaussian 16 at Wed Sep 18 17:27:08 2019.
