 Gaussian 16, Revision A.03,
 Gaussian 16:  ES64L-G16RevA.03 25-Dec-2016

 ----------------------------------------------------------------------
 #b3lyp/svp scf=(tight,noincore) Test #IOP(5/87=12) Density=Current Pop
 =(MK,readradii) iop(6/33=2) iop(6/42=6)
 ----------------------------------------------------------------------

 -----------------
 CaMKII_loop3_97.0
 -----------------
 Symbolic Z-matrix:
 Charge =  0 Multiplicity = 1

                         Standard orientation:
 ---------------------------------------------------------------------
 Center     Atomic      Atomic             Coordinates (Angstroms)
 Number     Number       Type             X           Y           Z
 ---------------------------------------------------------------------
      1          6           0        1.817180    4.230035    4.808385
      2          6           0        1.364783    3.629934    3.480109
      3          8           0        2.108413    3.516455    2.510193
      4          1           0        2.904890    4.188028    4.873298
      5          1           0        1.489920    5.267948    4.869358
      6          1           0        1.382703    3.662443    5.631044
      7          7           0        0.081794    3.287878    3.461806
      8          6           0       -0.613575    2.786141    2.296592
      9          6           0       -0.910331    3.934512    1.341982
     10          8           0       -1.717838    4.792970    1.690669
     11          6           0       -1.842284    1.946106    2.627675
     12          6           0       -2.523433    1.278229    1.445272
     13          8           0       -3.091387    0.159298    1.440764
     14          8           0       -2.369254    1.901200    0.374414
     15          1           0       -0.415661    3.225448    4.345968
     16          1           0        0.018131    2.117096    1.705384
     17          1           0       -2.601705    2.497502    3.191539
     18          1           0       -1.467050    1.147041    3.267124
     19          7           0       -0.338955    3.908089    0.132796
     20          6           0       -0.316702    5.023235   -0.801097
     21          6           0       -1.538382    5.128248   -1.698075
     22          8           0       -2.141735    6.191857   -1.726395
     23          6           0        0.930862    4.934122   -1.676906
     24          6           0        2.261444    4.835924   -0.930241
     25          6           0        2.432624    6.067559   -0.051166
     26          6           0        3.764941    6.084509    0.689337
     27          7           0        3.879002    7.272472    1.547670
     28          1           0        0.144431    3.062800   -0.093530
     29          1           0       -0.229954    5.936197   -0.204544
     30          1           0        0.895995    5.801318   -2.326795
     31          1           0        0.978570    4.148820   -2.430381
     32          1           0        3.044462    4.873427   -1.680492
     33          1           0        2.275194    3.931926   -0.308631
     34          1           0        1.619657    6.082819    0.670466
     35          1           0        2.453987    7.006587   -0.592526
     36          1           0        4.596655    6.097981   -0.009425
     37          1           0        3.980670    5.194778    1.293604
     38          1           0        3.766493    8.123583    1.029740
     39          1           0        3.170249    7.131587    2.253233
     40          1           0        4.728860    7.291411    2.108368
     41          7           0       -1.823654    3.987835   -2.348980
     42          6           0       -3.028242    3.888339   -3.151705
     43          6           0       -4.274734    3.527275   -2.362725
     44          8           0       -5.394798    3.642722   -2.857627
     45          6           0       -2.737245    2.736576   -4.112102
     46          6           0       -2.462625    1.415362   -3.407562
     47          8           0       -1.273498    1.055367   -3.243608
     48          8           0       -3.372816    0.827745   -2.797677
     49          1           0       -1.318292    3.132741   -2.200578
     50          1           0       -3.281057    4.777897   -3.720978
     51          1           0       -1.853165    2.977774   -4.711374
     52          1           0       -3.668491    2.567887   -4.654066
     53          7           0       -4.079438    3.215357   -1.077125
     54          6           0       -5.220750    3.195569   -0.177839
     55          6           0       -6.053880    1.930338   -0.069750
     56          8           0       -6.971644    1.847442    0.751795
     57          1           0       -3.172527    2.981308   -0.700118
     58          1           0       -5.802415    4.106801   -0.321098
     59          1           0       -4.829164    3.461230    0.807141
     60          7           0       -5.767889    0.883711   -0.852043
     61          6           0       -6.529720   -0.342802   -0.925386
     62          6           0       -6.631708   -1.149616    0.359896
     63          8           0       -7.478699   -2.044597    0.420843
     64          6           0       -6.265412   -1.043055   -2.251880
     65          6           0       -4.865434   -1.649815   -2.274336
     66          7           0       -4.527632   -2.490012   -3.257881
     67          8           0       -4.066990   -1.579822   -1.342087
     68          1           0       -5.014318    0.927538   -1.524880
     69          1           0       -7.592443   -0.123211   -1.064667
     70          1           0       -6.321476   -0.309125   -3.044914
     71          1           0       -6.971275   -1.872184   -2.332518
     72          1           0       -5.068740   -2.645942   -4.100725
     73          1           0       -3.567705   -2.813887   -3.213771
     74          7           0       -5.878876   -0.843577    1.422151
     75          6           0       -6.051447   -1.495446    2.710555
     76          6           0       -4.973223   -2.499803    3.070970
     77          8           0       -5.226623   -3.300687    3.970066
     78          1           0       -5.075763   -0.241077    1.336110
     79          1           0       -7.006982   -1.978572    2.907130
     80          1           0       -5.960914   -0.824563    3.555671
     81          7           0       -3.808597   -2.417599    2.419596
     82          6           0       -2.611991   -3.168303    2.700982
     83          6           0       -1.353266   -2.523770    2.149268
     84          8           0       -1.207919   -2.025792    1.028424
     85          6           0       -2.663575   -4.622173    2.230451
     86          6           0       -2.883631   -4.784646    0.739083
     87          6           0       -4.180889   -4.824022    0.238513
     88          6           0       -1.807858   -4.876234   -0.150201
     89          6           0       -4.439236   -4.904970   -1.135861
     90          6           0       -2.048966   -4.993407   -1.515059
     91          6           0       -3.362920   -4.999906   -2.038874
     92          8           0       -3.538079   -5.162972   -3.382648
     93          1           0       -3.724779   -1.793768    1.637094
     94          1           0       -2.492373   -3.126690    3.788116
     95          1           0       -3.514978   -5.133071    2.700128
     96          1           0       -1.733931   -5.058387    2.584823
     97          1           0       -5.017316   -4.610347    0.896261
     98          1           0       -0.780646   -4.948940    0.192216
     99          1           0       -5.456319   -4.892698   -1.484990
    100          1           0       -1.195816   -4.996673   -2.179757
    101          1           0       -2.676602   -5.199082   -3.798646
    102          7           0       -0.345930   -2.436764    3.020076
    103          6           0        1.030908   -2.050696    2.783712
    104          6           0        1.737857   -3.169570    2.035686
    105          8           0        1.757777   -4.303494    2.516954
    106          6           0        1.626284   -1.763433    4.164801
    107          6           0        1.063800   -0.502332    4.803734
    108          6           0        3.083014   -1.492767    3.806783
    109          6           0        1.508687   -0.388203    6.250229
    110          1           0       -0.625160   -2.832744    3.899525
    111          1           0        1.116075   -1.115440    2.238511
    112          1           0        1.637955   -2.543210    4.916275
    113          1           0       -0.030980   -0.563601    4.746247
    114          1           0        1.401259    0.398749    4.291412
    115          1           0        3.765809   -2.343042    3.851771
    116          1           0        3.152759   -0.963630    2.857441
    117          1           0        3.431691   -0.817887    4.588295
    118          1           0        2.554687   -0.603644    6.446107
    119          1           0        1.168268    0.559002    6.668581
    120          1           0        0.939935   -1.143307    6.812492
    121          7           0        2.449871   -2.844497    0.942999
    122          6           0        3.374106   -3.692824    0.232274
    123          6           0        4.791036   -3.191032    0.027542
    124          8           0        5.083977   -2.025674    0.286632
    125          6           0        2.811725   -3.874208   -1.173332
    126          8           0        2.758389   -2.713538   -1.975642
    127          1           0        2.259270   -1.895294    0.645704
    128          1           0        3.389618   -4.667504    0.718234
    129          1           0        1.859792   -4.402235   -1.133189
    130          1           0        3.363552   -4.628045   -1.732453
    131          1           0        2.138270   -2.107708   -1.572502
    132          7           0        5.645812   -4.052295   -0.522534
    133          6           0        7.054214   -3.743399   -0.731546
    134          6           0        7.360668   -2.549852   -1.629618
    135          8           0        8.310600   -1.801138   -1.425029
    136          6           0        7.716715   -4.965575   -1.361449
    137          1           0        5.438695   -4.983860   -0.835247
    138          1           0        7.548623   -3.559284    0.219117
    139          1           0        7.272591   -5.441416   -2.231695
    140          1           0        8.676501   -4.620063   -1.742805
    141          1           0        7.919680   -5.681666   -0.566956
    142          7           0        6.447896   -2.174342   -2.529362
    143          6           0        6.507843   -0.980270   -3.357189
    144          6           0        6.306034    0.295830   -2.547410
    145          8           0        6.933002    1.327112   -2.752270
    146          6           0        5.546613   -1.159849   -4.516795
    147          1           0        5.656052   -2.786518   -2.637175
    148          1           0        7.540344   -0.846189   -3.676823
    149          1           0        5.910072   -1.958286   -5.167176
    150          1           0        4.535866   -1.364207   -4.157311
    151          1           0        5.580832   -0.283634   -5.173435
    152          7           0        5.406872    0.287939   -1.568612
    153          6           0        5.051131    1.403897   -0.711298
    154          6           0        5.882448    1.450493    0.555722
    155          8           0        6.189858    2.538910    1.052658
    156          6           0        3.581796    1.274961   -0.337358
    157          6           0        2.653943    0.800705   -1.460198
    158          6           0        1.339715    0.302650   -0.880848
    159          8           0        0.482756    1.152661   -0.590327
    160          8           0        1.048718   -0.916010   -0.820948
    161          1           0        5.102130   -0.625191   -1.256001
    162          1           0        5.105714    2.284435   -1.346336
    163          1           0        3.273989    2.299482   -0.104096
    164          1           0        3.417981    0.641340    0.531773
    165          1           0        3.079312   -0.084742   -1.933953
    166          1           0        2.612429    1.543879   -2.254911
    167          7           0        6.440489    0.350750    1.064502
    168          6           0        7.456721    0.430292    2.090439
    169          1           0        8.438424    0.276843    1.641530
    170          1           0        7.422879    1.412722    2.560396
    171          1           0        7.276378   -0.338386    2.841081
    172          1           0        6.138335   -0.539046    0.694142
    173         20           0       -1.614334   -0.328529   -1.011264
    174          8           0       -1.525788   -2.298186   -3.047562
    175          1           0       -1.433251   -3.155901   -3.453839
    176          1           0       -1.419250   -1.676327   -3.763133
 ---------------------------------------------------------------------

 SCF Done:  E(RB3LYP) =  -5333.62131992     A.U. after   20 cycles

 The electronic state is 1-A.
 Alpha  occ. eigenvalues -- -145.37415 -19.18176 -19.17357 -19.14843 -19.13829
 Alpha  occ. eigenvalues --  -19.12124 -19.11720 -19.10626 -19.10589 -19.10567
 Alpha  occ. eigenvalues --  -19.09432 -19.08746 -19.08169 -19.07814 -19.07674
 Alpha  occ. eigenvalues --  -19.07491 -19.07255 -19.06890 -19.06887 -19.06425
 Alpha  occ. eigenvalues --  -19.06142 -19.04665 -19.04584 -19.03834 -15.43057
 Alpha  occ. eigenvalues --  -14.56731 -14.40296 -14.37416 -14.36753 -14.36681
 Alpha  occ. eigenvalues --  -14.36632 -14.33807 -14.33372 -14.33229 -14.33207
 Alpha  occ. eigenvalues --  -14.32878 -14.32296 -14.30486 -14.30041 -14.29190
 Alpha  occ. eigenvalues --  -12.56681 -12.56646 -12.56639 -10.33141 -10.31773
 Alpha  occ. eigenvalues --  -10.30703 -10.29837 -10.29534 -10.29412 -10.28677
 Alpha  occ. eigenvalues --  -10.27519 -10.27023 -10.26950 -10.26702 -10.26644
 Alpha  occ. eigenvalues --  -10.26151 -10.26148 -10.26030 -10.25588 -10.25483
 Alpha  occ. eigenvalues --  -10.25256 -10.24944 -10.24933 -10.24746 -10.23852
 Alpha  occ. eigenvalues --  -10.23831 -10.23239 -10.23229 -10.23142 -10.22787
 Alpha  occ. eigenvalues --  -10.22614 -10.22250 -10.22226 -10.22224 -10.22078
 Alpha  occ. eigenvalues --  -10.20819 -10.20724 -10.20344 -10.20122 -10.20077
 Alpha  occ. eigenvalues --  -10.19923 -10.19661 -10.19468 -10.19374 -10.18799
 Alpha  occ. eigenvalues --  -10.18730 -10.18640 -10.18501 -10.18468 -10.18405
 Alpha  occ. eigenvalues --  -10.18348 -10.18345 -10.18002 -10.17835 -10.17790
 Alpha  occ. eigenvalues --  -10.17670 -10.16320  -1.79776  -1.12023  -1.07843
 Alpha  occ. eigenvalues --   -1.07483  -1.07464  -1.07213  -1.06131  -1.04916
 Alpha  occ. eigenvalues --   -1.04807  -1.04545  -1.04488  -1.04126  -1.03337
 Alpha  occ. eigenvalues --   -1.02428  -1.02143  -1.02003  -1.01906  -1.01714
 Alpha  occ. eigenvalues --   -1.00818  -1.00739  -1.00025  -0.99162  -0.97888
 Alpha  occ. eigenvalues --   -0.97491  -0.97186  -0.96564  -0.94665  -0.93941
 Alpha  occ. eigenvalues --   -0.93886  -0.93393  -0.93218  -0.92037  -0.91383
 Alpha  occ. eigenvalues --   -0.91269  -0.91151  -0.90129  -0.90032  -0.89112
 Alpha  occ. eigenvalues --   -0.87965  -0.87356  -0.86539  -0.86509  -0.85838
 Alpha  occ. eigenvalues --   -0.84149  -0.84037  -0.82463  -0.80482  -0.79882
 Alpha  occ. eigenvalues --   -0.79015  -0.78892  -0.78068  -0.77495  -0.76261
 Alpha  occ. eigenvalues --   -0.75886  -0.75461  -0.74653  -0.73626  -0.73621
 Alpha  occ. eigenvalues --   -0.73156  -0.72937  -0.72439  -0.70938  -0.70571
 Alpha  occ. eigenvalues --   -0.69337  -0.69023  -0.68827  -0.68363  -0.67856
 Alpha  occ. eigenvalues --   -0.67643  -0.66571  -0.66048  -0.65561  -0.65173
 Alpha  occ. eigenvalues --   -0.64486  -0.63856  -0.62884  -0.62104  -0.61699
 Alpha  occ. eigenvalues --   -0.61620  -0.60708  -0.60409  -0.60327  -0.59313
 Alpha  occ. eigenvalues --   -0.59079  -0.58690  -0.58598  -0.58540  -0.58296
 Alpha  occ. eigenvalues --   -0.57909  -0.57813  -0.57338  -0.57119  -0.56764
 Alpha  occ. eigenvalues --   -0.56121  -0.55916  -0.55686  -0.55011  -0.54647
 Alpha  occ. eigenvalues --   -0.54548  -0.54400  -0.54349  -0.54306  -0.53979
 Alpha  occ. eigenvalues --   -0.53661  -0.53337  -0.52814  -0.52137  -0.52056
 Alpha  occ. eigenvalues --   -0.51519  -0.51342  -0.50756  -0.50369  -0.50184
 Alpha  occ. eigenvalues --   -0.50024  -0.49705  -0.49564  -0.49024  -0.48834
 Alpha  occ. eigenvalues --   -0.48730  -0.48516  -0.48414  -0.48232  -0.48120
 Alpha  occ. eigenvalues --   -0.47854  -0.47609  -0.47551  -0.47259  -0.46899
 Alpha  occ. eigenvalues --   -0.46584  -0.46383  -0.46220  -0.45830  -0.45726
 Alpha  occ. eigenvalues --   -0.45553  -0.45243  -0.45103  -0.45077  -0.44886
 Alpha  occ. eigenvalues --   -0.44613  -0.44396  -0.44225  -0.44104  -0.44030
 Alpha  occ. eigenvalues --   -0.44005  -0.43847  -0.43655  -0.43531  -0.43368
 Alpha  occ. eigenvalues --   -0.43240  -0.43183  -0.43071  -0.42872  -0.42813
 Alpha  occ. eigenvalues --   -0.42607  -0.42501  -0.42269  -0.42051  -0.41993
 Alpha  occ. eigenvalues --   -0.41875  -0.41807  -0.41714  -0.41424  -0.41396
 Alpha  occ. eigenvalues --   -0.41277  -0.41191  -0.41133  -0.40953  -0.40861
 Alpha  occ. eigenvalues --   -0.40721  -0.40634  -0.40468  -0.40225  -0.40080
 Alpha  occ. eigenvalues --   -0.39836  -0.39719  -0.39588  -0.39488  -0.39354
 Alpha  occ. eigenvalues --   -0.39156  -0.38958  -0.38912  -0.38807  -0.38756
 Alpha  occ. eigenvalues --   -0.38463  -0.38231  -0.38044  -0.37986  -0.37800
 Alpha  occ. eigenvalues --   -0.37674  -0.37555  -0.37504  -0.37370  -0.37301
 Alpha  occ. eigenvalues --   -0.37107  -0.36859  -0.36344  -0.36272  -0.36204
 Alpha  occ. eigenvalues --   -0.35947  -0.35705  -0.35622  -0.35510  -0.35270
 Alpha  occ. eigenvalues --   -0.35152  -0.35057  -0.35011  -0.34649  -0.34575
 Alpha  occ. eigenvalues --   -0.34474  -0.34407  -0.34297  -0.33998  -0.33958
 Alpha  occ. eigenvalues --   -0.33901  -0.33803  -0.33795  -0.32850  -0.32211
 Alpha  occ. eigenvalues --   -0.31985  -0.31719  -0.31493  -0.31128  -0.29653
 Alpha  occ. eigenvalues --   -0.29482  -0.29080  -0.28603  -0.28422  -0.28232
 Alpha  occ. eigenvalues --   -0.28019  -0.27917  -0.27191  -0.26788  -0.26521
 Alpha  occ. eigenvalues --   -0.26289  -0.26215  -0.26136  -0.26102  -0.25704
 Alpha  occ. eigenvalues --   -0.25652  -0.25333  -0.24969  -0.24810  -0.24780
 Alpha  occ. eigenvalues --   -0.24586  -0.24435  -0.24009  -0.23814  -0.23718
 Alpha  occ. eigenvalues --   -0.23639  -0.22874  -0.22793  -0.22639  -0.22528
 Alpha  occ. eigenvalues --   -0.22171  -0.21996  -0.21767  -0.21524  -0.20255
 Alpha  occ. eigenvalues --   -0.20064  -0.19418  -0.18851
 Alpha virt. eigenvalues --   -0.09051  -0.03216  -0.02899  -0.02768  -0.01813
 Alpha virt. eigenvalues --   -0.00443  -0.00393  -0.00222  -0.00197   0.00267
 Alpha virt. eigenvalues --    0.00685   0.00802   0.00864   0.01578   0.01985

 Mulliken charges:
               1
     1  C    0.028283
     2  C    0.032634
     3  O   -0.292600
     4  H    0.022931
     5  H    0.030923
     6  H    0.027525
     7  N   -0.106663
     8  C    0.087599
     9  C    0.064518
    10  O   -0.288661
    11  C    0.089219
    12  C    0.117818
    13  O   -0.388392
    14  O   -0.427901
    15  H    0.122635
    16  H   -0.001330
    17  H    0.030511
    18  H   -0.006136
    19  N   -0.134215
    20  C    0.111241
    21  C    0.110196
    22  O   -0.243461
    23  C    0.020538
    24  C    0.030521
    25  C   -0.062186
    26  C    0.020870
    27  N    0.078350
    28  H    0.143435
    29  H   -0.020071
    30  H   -0.007874
    31  H    0.015627
    32  H    0.006015
    33  H    0.083104
    34  H    0.039851
    35  H   -0.003883
    36  H    0.059250
    37  H    0.092870
    38  H    0.187655
    39  H    0.188136
    40  H    0.191280
    41  N   -0.171257
    42  C    0.087721
    43  C    0.071347
    44  O   -0.285384
    45  C    0.142531
    46  C    0.033546
    47  O   -0.434849
    48  O   -0.375168
    49  H    0.139282
    50  H    0.020137
    51  H   -0.002173
    52  H    0.013478
    53  N   -0.173351
    54  C    0.214787
    55  C    0.046804
    56  O   -0.306911
    57  H    0.151435
    58  H    0.021646
    59  H    0.008147
    60  N   -0.142450
    61  C    0.141866
    62  C    0.074435
    63  O   -0.309723
    64  C    0.062304
    65  C    0.071657
    66  N   -0.047018
    67  O   -0.348790
    68  H    0.149207
    69  H    0.018457
    70  H    0.043915
    71  H    0.036134
    72  H    0.110341
    73  H    0.084853
    74  N   -0.143008
    75  C    0.238977
    76  C    0.000085
    77  O   -0.303353
    78  H    0.153381
    79  H    0.032701
    80  H    0.014003
    81  N   -0.125022
    82  C    0.109766
    83  C    0.096553
    84  O   -0.348493
    85  C    0.177986
    86  C   -0.043629
    87  C   -0.009537
    88  C    0.016627
    89  C    0.009009
    90  C   -0.059998
    91  C    0.148140
    92  O   -0.199951
    93  H    0.154217
    94  H   -0.015863
    95  H    0.029355
    96  H   -0.015395
    97  H    0.009683
    98  H   -0.029056
    99  H   -0.025910
   100  H   -0.069411
   101  H    0.155903
   102  N   -0.097016
   103  C    0.180941
   104  C    0.075450
   105  O   -0.291947
   106  C   -0.148869
   107  C    0.008651
   108  C    0.079392
   109  C    0.033790
   110  H    0.126831
   111  H    0.001934
   112  H   -0.000084
   113  H    0.010871
   114  H    0.003965
   115  H    0.019135
   116  H    0.008943
   117  H   -0.016194
   118  H    0.018306
   119  H    0.003277
   120  H    0.003393
   121  N   -0.116833
   122  C    0.102337
   123  C    0.147682
   124  O   -0.288620
   125  C    0.224601
   126  O   -0.338604
   127  H    0.130172
   128  H    0.022092
   129  H    0.002217
   130  H   -0.035819
   131  H    0.181760
   132  N   -0.124170
   133  C    0.081512
   134  C    0.040386
   135  O   -0.262316
   136  C    0.008480
   137  H    0.129239
   138  H    0.024730
   139  H    0.024549
   140  H    0.038763
   141  H    0.033652
   142  N   -0.141577
   143  C    0.119528
   144  C    0.042956
   145  O   -0.271689
   146  C    0.034966
   147  H    0.108988
   148  H    0.016124
   149  H    0.016222
   150  H    0.041074
   151  H    0.028070
   152  N   -0.171605
   153  C    0.169221
   154  C    0.100325
   155  O   -0.327164
   156  C   -0.037082
   157  C    0.109269
   158  C    0.162811
   159  O   -0.402315
   160  O   -0.438277
   161  H    0.135758
   162  H   -0.012378
   163  H    0.005582
   164  H    0.005262
   165  H   -0.027198
   166  H    0.007646
   167  N   -0.157984
   168  C    0.134411
   169  H    0.030890
   170  H    0.029935
   171  H    0.003845
   172  H    0.117572
   173  Ca   1.252834
   174  O   -0.228681
   175  H    0.157075
   176  H    0.184130
 Sum of Mulliken charges =  -0.00000

 Dipole moment (field-independent basis, Debye):
    X=             27.3367    Y=              6.6457    Z=              2.7321  Tot=             28.2653
 Quadrupole moment (field-independent basis, Debye-Ang):
   XX=           -701.8344   YY=           -415.5751   ZZ=           -510.7291
   XY=             66.2008   XZ=             49.3949   YZ=             99.8113

 ESP charges:
               1
     1  C   -0.449441
     2  C    0.799691
     3  O   -0.621818
     4  H    0.113326
     5  H    0.117299
     6  H    0.112895
     7  N   -0.740459
     8  C    0.240329
     9  C    0.524913
    10  O   -0.561982
    11  C   -0.229522
    12  C    0.687145
    13  O   -0.668964
    14  O   -0.548300
    15  H    0.371287
    16  H    0.011328
    17  H    0.090516
    18  H    0.010357
    19  N   -0.267787
    20  C   -0.026838
    21  C    0.519933
    22  O   -0.530675
    23  C   -0.006219
    24  C   -0.007822
    25  C   -0.276463
    26  C    0.349932
    27  N   -0.501297
    28  H    0.308346
    29  H    0.049381
    30  H    0.031946
    31  H    0.026464
    32  H    0.053560
    33  H    0.011496
    34  H    0.085592
    35  H    0.072544
    36  H    0.013781
    37  H    0.006965
    38  H    0.354387
    39  H    0.333506
    40  H    0.356828
    41  N   -0.536408
    42  C    0.345804
    43  C    0.285491
    44  O   -0.532539
    45  C   -0.503525
    46  C    0.883394
    47  O   -0.774163
    48  O   -0.801423
    49  H    0.314277
    50  H    0.055912
    51  H    0.107886
    52  H    0.127011
    53  N    0.013569
    54  C   -0.406881
    55  C    0.609045
    56  O   -0.589313
    57  H    0.091041
    58  H    0.177203
    59  H    0.137383
    60  N   -0.421358
    61  C    0.063587
    62  C    0.512343
    63  O   -0.577957
    64  C   -0.381603
    65  C    0.735156
    66  N   -0.777624
    67  O   -0.514144
    68  H    0.364172
    69  H    0.095891
    70  H    0.135652
    71  H    0.126823
    72  H    0.347406
    73  H    0.324166
    74  N   -0.196075
    75  C   -0.186001
    76  C    0.637657
    77  O   -0.582673
    78  H    0.224099
    79  H    0.125575
    80  H    0.090402
    81  N   -0.426470
    82  C    0.032270
    83  C    0.652275
    84  O   -0.558082
    85  C   -0.316087
    86  C    0.137913
    87  C   -0.195584
    88  C   -0.112211
    89  C   -0.229470
    90  C   -0.349382
    91  C    0.358914
    92  O   -0.525488
    93  H    0.160689
    94  H    0.078668
    95  H    0.144972
    96  H    0.089776
    97  H    0.172367
    98  H    0.129941
    99  H    0.173215
   100  H    0.130761
   101  H    0.380783
   102  N   -0.395078
   103  C   -0.485893
   104  C    0.744323
   105  O   -0.565108
   106  C    0.351191
   107  C    0.113267
   108  C   -0.247485
   109  C   -0.357151
   110  H    0.261071
   111  H    0.199776
   112  H   -0.008587
   113  H   -0.001804
   114  H    0.030280
   115  H    0.080558
   116  H   -0.010109
   117  H    0.041117
   118  H    0.094215
   119  H    0.082132
   120  H    0.073441
   121  N   -0.438409
   122  C   -0.154483
   123  C    0.630712
   124  O   -0.489274
   125  C    0.227258
   126  O   -0.600512
   127  H    0.355878
   128  H    0.095518
   129  H    0.035764
   130  H    0.001595
   131  H    0.386217
   132  N   -0.490331
   133  C    0.148640
   134  C    0.470244
   135  O   -0.532785
   136  C   -0.398604
   137  H    0.302807
   138  H    0.087739
   139  H    0.116442
   140  H    0.128839
   141  H    0.115633
   142  N   -0.383785
   143  C    0.101157
   144  C    0.335933
   145  O   -0.518400
   146  C   -0.394971
   147  H    0.259782
   148  H    0.108486
   149  H    0.111426
   150  H    0.108183
   151  H    0.131562
   152  N    0.084920
   153  C   -0.383765
   154  C    0.624494
   155  O   -0.592337
   156  C   -0.009045
   157  C   -0.213703
   158  C    0.968390
   159  O   -0.915293
   160  O   -0.777273
   161  H    0.144209
   162  H    0.153091
   163  H    0.085220
   164  H    0.003015
   165  H   -0.029423
   166  H    0.092478
   167  N   -0.205120
   168  C   -0.173239
   169  H    0.089586
   170  H    0.094401
   171  H    0.063650
   172  H    0.175611
   173  Ca   1.556705
   174  O   -0.766104
   175  H    0.386875
   176  H    0.389057
 Sum of ESP charges =  -0.00000

 Normal termination of Gaussian 16 at Sun Sep 15 01:21:35 2019.
