 Gaussian 16, Revision A.03,
 Gaussian 16:  ES64L-G16RevA.03 25-Dec-2016

 ----------------------------------------------------------------------
 #b3lyp/svp scf=(tight,noincore) Test #IOP(5/87=12) Density=Current Pop
 =(MK,readradii) iop(6/33=2) iop(6/42=6)
 ----------------------------------------------------------------------

 -----------------
 CaMKII_loop3_85.0
 -----------------
 Symbolic Z-matrix:
 Charge =  0 Multiplicity = 1

                         Standard orientation:
 ---------------------------------------------------------------------
 Center     Atomic      Atomic             Coordinates (Angstroms)
 Number     Number       Type             X           Y           Z
 ---------------------------------------------------------------------
      1          6           0        1.716000    2.774458    5.745559
      2          6           0        1.290686    2.394143    4.337061
      3          8           0        2.081605    2.429100    3.398911
      4          1           0        2.722005    2.400880    5.933695
      5          1           0        1.706754    3.859321    5.848550
      6          1           0        1.025870    2.334861    6.465515
      7          7           0       -0.006742    2.076922    4.244592
      8          6           0       -0.668392    1.845934    2.977326
      9          6           0       -0.829848    3.229670    2.353622
     10          8           0       -1.529029    4.169152    2.748490
     11          6           0       -1.971279    1.092725    3.254566
     12          6           0       -2.696181    0.684837    1.984942
     13          8           0       -2.167610    0.912049    0.870407
     14          8           0       -3.801652    0.130243    2.125512
     15          1           0       -0.604697    1.888372    5.040707
     16          1           0       -0.042398    1.256192    2.311115
     17          1           0       -2.657404    1.727403    3.816540
     18          1           0       -1.817148    0.206303    3.873356
     19          7           0       -0.132378    3.381886    1.232120
     20          6           0        0.128694    4.631245    0.542743
     21          6           0       -1.070681    5.198375   -0.204562
     22          8           0       -1.423157    6.375917   -0.124849
     23          6           0        1.305512    4.352389   -0.393548
     24          6           0        1.863062    5.707391   -0.845774
     25          6           0        3.094700    5.517919   -1.731025
     26          6           0        2.588003    4.889367   -3.028822
     27          7           0        3.758341    4.637755   -3.884392
     28          1           0        0.340584    2.546476    0.921478
     29          1           0        0.460657    5.448602    1.184247
     30          1           0        0.823697    3.880363   -1.251595
     31          1           0        2.055040    3.759726    0.129288
     32          1           0        2.160207    6.324763   -0.000815
     33          1           0        1.111924    6.294520   -1.376783
     34          1           0        3.787341    4.908794   -1.161361
     35          1           0        3.465407    6.511047   -1.999302
     36          1           0        1.829966    5.532818   -3.486481
     37          1           0        2.110951    3.946142   -2.761148
     38          1           0        4.499756    4.139268   -3.423726
     39          1           0        3.539673    4.004243   -4.648229
     40          1           0        4.020803    5.500189   -4.336523
     41          7           0       -1.677164    4.319081   -1.007009
     42          6           0       -2.983928    4.585350   -1.578385
     43          6           0       -4.136532    4.113547   -0.701456
     44          8           0       -5.283730    4.357758   -1.056840
     45          6           0       -3.042587    4.042425   -2.997959
     46          6           0       -2.791004    2.559864   -3.230591
     47          8           0       -2.532954    1.920060   -2.187441
     48          8           0       -2.865881    2.109740   -4.391660
     49          1           0       -1.329656    3.385086   -1.116052
     50          1           0       -3.168884    5.662907   -1.671992
     51          1           0       -2.260850    4.565533   -3.542886
     52          1           0       -4.015078    4.305393   -3.424936
     53          7           0       -3.848056    3.516039    0.466133
     54          6           0       -4.910190    3.235904    1.415711
     55          6           0       -5.946964    2.242928    0.921850
     56          8           0       -7.020819    2.081606    1.499613
     57          1           0       -2.889471    3.276579    0.647440
     58          1           0       -5.475981    4.133413    1.678120
     59          1           0       -4.411592    2.874443    2.308654
     60          7           0       -5.614126    1.387389   -0.057267
     61          6           0       -6.542791    0.468891   -0.684039
     62          6           0       -6.915407   -0.823472    0.031960
     63          8           0       -8.004304   -1.378101   -0.099914
     64          6           0       -5.974131    0.099326   -2.038679
     65          6           0       -5.053936   -1.116226   -2.069902
     66          7           0       -5.423443   -2.312016   -2.533422
     67          8           0       -3.926631   -1.160701   -1.576642
     68          1           0       -4.662936    1.506729   -0.386654
     69          1           0       -7.480558    1.007516   -0.839525
     70          1           0       -5.412070    0.933327   -2.457163
     71          1           0       -6.838628   -0.087365   -2.671917
     72          1           0       -6.344617   -2.597256   -2.819564
     73          1           0       -4.683478   -2.974008   -2.744890
     74          7           0       -5.984443   -1.239725    0.901293
     75          6           0       -6.215826   -2.243492    1.920221
     76          6           0       -4.951141   -3.006549    2.297867
     77          8           0       -4.980887   -3.795946    3.242043
     78          1           0       -5.211311   -0.629702    1.106814
     79          1           0       -7.044401   -2.927286    1.738865
     80          1           0       -6.513000   -1.658039    2.781517
     81          7           0       -3.878653   -2.886676    1.515947
     82          6           0       -2.650453   -3.654316    1.646920
     83          6           0       -1.390787   -2.826070    1.437514
     84          8           0       -1.350785   -1.986167    0.542773
     85          6           0       -2.733581   -4.992488    0.917478
     86          6           0       -3.133460   -5.014496   -0.530628
     87          6           0       -4.413620   -5.525215   -0.776917
     88          6           0       -2.319794   -4.493149   -1.545638
     89          6           0       -4.804385   -5.636710   -2.117279
     90          6           0       -2.763858   -4.533733   -2.874570
     91          6           0       -3.977558   -5.195935   -3.165980
     92          8           0       -4.357533   -5.117774   -4.477815
     93          1           0       -3.932915   -2.339279    0.666529
     94          1           0       -2.615248   -4.060133    2.648954
     95          1           0       -3.323371   -5.696963    1.522923
     96          1           0       -1.767795   -5.485575    1.061082
     97          1           0       -5.096456   -5.808684    0.002301
     98          1           0       -1.351672   -4.099809   -1.256286
     99          1           0       -5.828242   -5.962522   -2.245592
    100          1           0       -2.140267   -4.012957   -3.582544
    101          1           0       -3.674003   -5.027767   -5.138409
    102          7           0       -0.306123   -3.157199    2.145510
    103          6           0        0.963114   -2.496898    1.937809
    104          6           0        1.883600   -3.323198    1.067847
    105          8           0        2.013341   -4.533527    1.237762
    106          6           0        1.632623   -2.268166    3.290709
    107          6           0        0.803785   -1.594582    4.380623
    108          6           0        3.043336   -1.711094    3.088325
    109          6           0        1.178763   -1.791733    5.847430
    110          1           0       -0.355467   -3.848614    2.880364
    111          1           0        0.755480   -1.553029    1.413025
    112          1           0        1.770718   -3.292222    3.638761
    113          1           0       -0.252200   -1.853005    4.384320
    114          1           0        0.819171   -0.521952    4.201936
    115          1           0        3.494011   -1.506442    4.060132
    116          1           0        3.727470   -2.411153    2.607722
    117          1           0        2.863518   -0.735150    2.634234
    118          1           0        0.438904   -1.436061    6.559965
    119          1           0        1.261823   -2.862632    6.054496
    120          1           0        2.168918   -1.492991    6.196495
    121          7           0        2.455138   -2.723192    0.010569
    122          6           0        3.501582   -3.318382   -0.795969
    123          6           0        4.906720   -3.049161   -0.288416
    124          8           0        5.029592   -2.100628    0.489007
    125          6           0        3.426497   -2.935054   -2.264377
    126          8           0        4.123301   -1.729207   -2.471733
    127          1           0        2.205078   -1.752608   -0.107907
    128          1           0        3.388185   -4.398734   -0.886417
    129          1           0        2.357901   -2.950670   -2.496022
    130          1           0        4.019856   -3.629476   -2.853276
    131          1           0        3.781609   -1.294641   -3.261543
    132          7           0        5.961653   -3.757771   -0.701681
    133          6           0        7.321175   -3.426732   -0.300418
    134          6           0        7.716698   -2.020136   -0.743422
    135          8           0        8.214096   -1.252928    0.070756
    136          6           0        8.235090   -4.466479   -0.926666
    137          1           0        5.805945   -4.428994   -1.427914
    138          1           0        7.420306   -3.420736    0.789507
    139          1           0        9.180576   -4.430847   -0.378408
    140          1           0        7.840384   -5.463309   -0.712336
    141          1           0        8.439908   -4.333384   -1.987107
    142          7           0        7.322206   -1.602948   -1.951574
    143          6           0        7.447808   -0.222233   -2.372822
    144          6           0        6.774561    0.773078   -1.433517
    145          8           0        7.339455    1.835118   -1.223838
    146          6           0        7.067049   -0.151756   -3.850609
    147          1           0        6.762125   -2.140922   -2.590474
    148          1           0        8.504389    0.053495   -2.376117
    149          1           0        6.012068   -0.365945   -4.011662
    150          1           0        7.223887    0.890110   -4.158697
    151          1           0        7.669485   -0.846742   -4.428679
    152          7           0        5.523617    0.563322   -0.996089
    153          6           0        4.926108    1.380505    0.036672
    154          6           0        5.733366    1.322872    1.323844
    155          8           0        5.925186    2.413377    1.856951
    156          6           0        3.425104    1.073603    0.050741
    157          6           0        2.668801    1.297632   -1.261248
    158          6           0        1.198693    0.938110   -1.266582
    159          8           0        0.627777    0.678400   -0.182882
    160          8           0        0.494887    1.020912   -2.297503
    161          1           0        5.027606   -0.274448   -1.261068
    162          1           0        4.889653    2.450278   -0.191050
    163          1           0        2.990359    1.635896    0.869169
    164          1           0        3.387099    0.022261    0.341835
    165          1           0        3.115438    0.758461   -2.097675
    166          1           0        2.831496    2.327867   -1.574852
    167          7           0        6.164034    0.174938    1.844971
    168          6           0        6.971496    0.130769    3.049569
    169          1           0        7.925172   -0.348840    2.829129
    170          1           0        7.149194    1.144960    3.405863
    171          1           0        6.447665   -0.438188    3.818234
    172          1           0        5.988621   -0.662080    1.320538
    173         20           0       -1.638360   -0.286740   -1.297702
    174          8           0       -1.788083   -0.428996   -3.912840
    175          1           0       -2.170618    0.426647   -4.110935
    176          1           0       -1.457362   -0.750319   -4.751575
 ---------------------------------------------------------------------

 SCF Done:  E(RB3LYP) =  -5333.59847334     A.U. after   21 cycles

 The electronic state is 1-A.
 Alpha  occ. eigenvalues -- -145.35810 -19.21371 -19.17462 -19.14856 -19.13909
 Alpha  occ. eigenvalues --  -19.12666 -19.12488 -19.12178 -19.11194 -19.10064
 Alpha  occ. eigenvalues --  -19.08384 -19.08112 -19.08101 -19.07177 -19.06758
 Alpha  occ. eigenvalues --  -19.06732 -19.06081 -19.05934 -19.05567 -19.05112
 Alpha  occ. eigenvalues --  -19.04781 -19.04503 -19.03916 -19.03172 -15.41605
 Alpha  occ. eigenvalues --  -14.57406 -14.41178 -14.38962 -14.38614 -14.38547
 Alpha  occ. eigenvalues --  -14.35614 -14.35075 -14.33981 -14.33455 -14.32317
 Alpha  occ. eigenvalues --  -14.32290 -14.32200 -14.30729 -14.30332 -14.30121
 Alpha  occ. eigenvalues --  -12.55224 -12.55173 -12.55153 -10.33442 -10.33007
 Alpha  occ. eigenvalues --  -10.31883 -10.31123 -10.30765 -10.30623 -10.30116
 Alpha  occ. eigenvalues --  -10.29013 -10.28485 -10.27754 -10.27541 -10.27495
 Alpha  occ. eigenvalues --  -10.26842 -10.25987 -10.25748 -10.25726 -10.25648
 Alpha  occ. eigenvalues --  -10.25316 -10.25144 -10.24698 -10.24324 -10.24073
 Alpha  occ. eigenvalues --  -10.23885 -10.23596 -10.23469 -10.23464 -10.23271
 Alpha  occ. eigenvalues --  -10.22905 -10.22489 -10.22001 -10.21749 -10.21211
 Alpha  occ. eigenvalues --  -10.21151 -10.20852 -10.20770 -10.20653 -10.20594
 Alpha  occ. eigenvalues --  -10.20531 -10.20461 -10.20440 -10.20299 -10.20125
 Alpha  occ. eigenvalues --  -10.19541 -10.19252 -10.19216 -10.19213 -10.19002
 Alpha  occ. eigenvalues --  -10.18735 -10.18175 -10.18069 -10.17733 -10.17495
 Alpha  occ. eigenvalues --  -10.16205 -10.14904  -1.78633  -1.12655  -1.09797
 Alpha  occ. eigenvalues --   -1.08038  -1.07056  -1.06515  -1.06211  -1.06144
 Alpha  occ. eigenvalues --   -1.05800  -1.05670  -1.05089  -1.04257  -1.03517
 Alpha  occ. eigenvalues --   -1.03272  -1.00963  -1.00236  -0.99991  -0.99722
 Alpha  occ. eigenvalues --   -0.99420  -0.99190  -0.98676  -0.98604  -0.98380
 Alpha  occ. eigenvalues --   -0.98194  -0.97857  -0.96872  -0.95422  -0.95393
 Alpha  occ. eigenvalues --   -0.95140  -0.92567  -0.92470  -0.90873  -0.90646
 Alpha  occ. eigenvalues --   -0.90605  -0.90122  -0.89335  -0.88929  -0.88848
 Alpha  occ. eigenvalues --   -0.88570  -0.88246  -0.87764  -0.87208  -0.86575
 Alpha  occ. eigenvalues --   -0.86228  -0.84244  -0.82601  -0.81350  -0.80477
 Alpha  occ. eigenvalues --   -0.80086  -0.79489  -0.79287  -0.76834  -0.76499
 Alpha  occ. eigenvalues --   -0.76371  -0.76072  -0.75094  -0.74205  -0.73597
 Alpha  occ. eigenvalues --   -0.73281  -0.72966  -0.71580  -0.70878  -0.70652
 Alpha  occ. eigenvalues --   -0.70309  -0.70168  -0.69723  -0.68914  -0.68339
 Alpha  occ. eigenvalues --   -0.67652  -0.66817  -0.66606  -0.65760  -0.64679
 Alpha  occ. eigenvalues --   -0.64123  -0.63786  -0.63649  -0.63583  -0.62518
 Alpha  occ. eigenvalues --   -0.62413  -0.62278  -0.61738  -0.61662  -0.61303
 Alpha  occ. eigenvalues --   -0.61159  -0.61038  -0.60273  -0.59589  -0.59039
 Alpha  occ. eigenvalues --   -0.58393  -0.57978  -0.57304  -0.57051  -0.56887
 Alpha  occ. eigenvalues --   -0.56524  -0.56077  -0.55888  -0.55733  -0.55597
 Alpha  occ. eigenvalues --   -0.54653  -0.54417  -0.54349  -0.53893  -0.53545
 Alpha  occ. eigenvalues --   -0.53308  -0.52881  -0.52872  -0.52790  -0.52613
 Alpha  occ. eigenvalues --   -0.52496  -0.51651  -0.51052  -0.50755  -0.50624
 Alpha  occ. eigenvalues --   -0.50534  -0.50289  -0.50205  -0.49822  -0.49676
 Alpha  occ. eigenvalues --   -0.49519  -0.49269  -0.48850  -0.48561  -0.48421
 Alpha  occ. eigenvalues --   -0.48105  -0.47695  -0.47498  -0.47321  -0.46990
 Alpha  occ. eigenvalues --   -0.46932  -0.46861  -0.46680  -0.46618  -0.46534
 Alpha  occ. eigenvalues --   -0.46352  -0.46019  -0.45823  -0.45342  -0.45243
 Alpha  occ. eigenvalues --   -0.44897  -0.44692  -0.44661  -0.44433  -0.44287
 Alpha  occ. eigenvalues --   -0.44221  -0.44054  -0.43866  -0.43835  -0.43638
 Alpha  occ. eigenvalues --   -0.43416  -0.43172  -0.43044  -0.42918  -0.42894
 Alpha  occ. eigenvalues --   -0.42691  -0.42474  -0.42313  -0.42255  -0.42215
 Alpha  occ. eigenvalues --   -0.42159  -0.41816  -0.41650  -0.41488  -0.41379
 Alpha  occ. eigenvalues --   -0.41221  -0.41173  -0.40958  -0.40806  -0.40638
 Alpha  occ. eigenvalues --   -0.40447  -0.40325  -0.40299  -0.40053  -0.39877
 Alpha  occ. eigenvalues --   -0.39752  -0.39501  -0.39381  -0.39197  -0.39157
 Alpha  occ. eigenvalues --   -0.39052  -0.38856  -0.38714  -0.38657  -0.38595
 Alpha  occ. eigenvalues --   -0.38489  -0.38425  -0.38298  -0.38100  -0.37807
 Alpha  occ. eigenvalues --   -0.37733  -0.37550  -0.37308  -0.37197  -0.36980
 Alpha  occ. eigenvalues --   -0.36867  -0.36606  -0.36555  -0.36359  -0.36336
 Alpha  occ. eigenvalues --   -0.36305  -0.35871  -0.35791  -0.35567  -0.35442
 Alpha  occ. eigenvalues --   -0.35435  -0.35219  -0.34975  -0.34714  -0.34563
 Alpha  occ. eigenvalues --   -0.34422  -0.34112  -0.34040  -0.33849  -0.33748
 Alpha  occ. eigenvalues --   -0.33198  -0.32948  -0.32919  -0.32575  -0.32424
 Alpha  occ. eigenvalues --   -0.32332  -0.32044  -0.31905  -0.30775  -0.30608
 Alpha  occ. eigenvalues --   -0.30504  -0.30201  -0.29834  -0.29511  -0.29283
 Alpha  occ. eigenvalues --   -0.28087  -0.27916  -0.27756  -0.27544  -0.27453
 Alpha  occ. eigenvalues --   -0.26928  -0.26838  -0.26358  -0.25707  -0.25641
 Alpha  occ. eigenvalues --   -0.25182  -0.24647  -0.24528  -0.24084  -0.23955
 Alpha  occ. eigenvalues --   -0.23727  -0.23625  -0.23420  -0.23037  -0.22779
 Alpha  occ. eigenvalues --   -0.22674  -0.22253  -0.22237  -0.22110  -0.21974
 Alpha  occ. eigenvalues --   -0.21564  -0.21356  -0.21302  -0.21144  -0.20168
 Alpha  occ. eigenvalues --   -0.19908  -0.19262  -0.19123
 Alpha virt. eigenvalues --   -0.09626  -0.04573  -0.03896  -0.03713  -0.03435
 Alpha virt. eigenvalues --   -0.03234  -0.02467  -0.01967  -0.01692  -0.01287
 Alpha virt. eigenvalues --   -0.00667  -0.00222   0.00096   0.00203   0.00697

 Mulliken charges:
               1
     1  C    0.061084
     2  C    0.051422
     3  O   -0.280352
     4  H    0.028002
     5  H    0.048350
     6  H   -0.008512
     7  N   -0.143432
     8  C    0.078912
     9  C    0.067227
    10  O   -0.285418
    11  C    0.049039
    12  C    0.140353
    13  O   -0.466767
    14  O   -0.369415
    15  H    0.125341
    16  H    0.021390
    17  H    0.018939
    18  H    0.001256
    19  N   -0.120775
    20  C    0.154745
    21  C    0.051687
    22  O   -0.260804
    23  C   -0.073720
    24  C    0.001582
    25  C    0.001168
    26  C   -0.043446
    27  N    0.100418
    28  H    0.148774
    29  H   -0.001925
    30  H    0.020637
    31  H    0.053141
    32  H    0.028141
    33  H    0.022698
    34  H    0.057287
    35  H    0.014518
    36  H    0.082679
    37  H    0.102061
    38  H    0.197207
    39  H    0.179092
    40  H    0.192221
    41  N   -0.193777
    42  C    0.169960
    43  C    0.037629
    44  O   -0.282334
    45  C    0.067151
    46  C    0.156835
    47  O   -0.473267
    48  O   -0.397045
    49  H    0.149791
    50  H    0.020181
    51  H   -0.024417
    52  H    0.026830
    53  N   -0.188489
    54  C    0.264288
    55  C    0.033037
    56  O   -0.295705
    57  H    0.158475
    58  H    0.023433
    59  H    0.032341
    60  N   -0.146877
    61  C    0.137325
    62  C    0.051934
    63  O   -0.274878
    64  C    0.103383
    65  C    0.073310
    66  N   -0.049665
    67  O   -0.403405
    68  H    0.141270
    69  H    0.027431
    70  H    0.058800
    71  H    0.005475
    72  H    0.124508
    73  H    0.150153
    74  N   -0.211605
    75  C    0.241605
    76  C    0.021324
    77  O   -0.303929
    78  H    0.151542
    79  H    0.040098
    80  H    0.033655
    81  N   -0.126650
    82  C    0.124772
    83  C    0.177407
    84  O   -0.381117
    85  C    0.120330
    86  C   -0.027502
    87  C   -0.005504
    88  C    0.007801
    89  C   -0.052170
    90  C   -0.067778
    91  C    0.207193
    92  O   -0.228513
    93  H    0.146458
    94  H   -0.009809
    95  H    0.012817
    96  H   -0.016930
    97  H   -0.001890
    98  H   -0.033742
    99  H   -0.009814
   100  H   -0.039735
   101  H    0.181773
   102  N   -0.105395
   103  C    0.135534
   104  C    0.046130
   105  O   -0.274035
   106  C   -0.127381
   107  C    0.031155
   108  C    0.068474
   109  C    0.008758
   110  H    0.138713
   111  H    0.035706
   112  H   -0.023144
   113  H   -0.000630
   114  H    0.013195
   115  H   -0.001419
   116  H    0.033131
   117  H    0.039420
   118  H    0.014440
   119  H   -0.014339
   120  H    0.009554
   121  N   -0.118921
   122  C    0.113013
   123  C    0.096686
   124  O   -0.279815
   125  C    0.190059
   126  O   -0.310295
   127  H    0.140246
   128  H    0.023067
   129  H    0.044572
   130  H   -0.009688
   131  H    0.201117
   132  N   -0.109496
   133  C    0.092971
   134  C    0.068514
   135  O   -0.238046
   136  C    0.028212
   137  H    0.111920
   138  H    0.032335
   139  H    0.041626
   140  H    0.027107
   141  H    0.020206
   142  N   -0.130013
   143  C    0.103014
   144  C    0.052469
   145  O   -0.261804
   146  C    0.036374
   147  H    0.094196
   148  H    0.018230
   149  H   -0.031021
   150  H    0.018063
   151  H    0.032182
   152  N   -0.170009
   153  C    0.132015
   154  C    0.054960
   155  O   -0.279310
   156  C   -0.007361
   157  C    0.102137
   158  C    0.087907
   159  O   -0.394918
   160  O   -0.390091
   161  H    0.130567
   162  H   -0.031659
   163  H    0.058193
   164  H   -0.012408
   165  H   -0.073668
   166  H   -0.075575
   167  N   -0.148607
   168  C    0.131786
   169  H    0.019707
   170  H    0.040382
   171  H    0.007039
   172  H    0.125544
   173  Ca   1.299142
   174  O   -0.326641
   175  H    0.153384
   176  H    0.163965
 Sum of Mulliken charges =  -0.00000

 Dipole moment (field-independent basis, Debye):
    X=             28.8996    Y=             -9.3659    Z=            -22.6623  Tot=             37.9010
 Quadrupole moment (field-independent basis, Debye-Ang):
   XX=           -671.1434   YY=           -525.7421   ZZ=           -473.0842
   XY=             36.5901   XZ=            -67.3522   YZ=            -32.3219

 ESP charges:
               1
     1  C   -0.416389
     2  C    0.796564
     3  O   -0.627178
     4  H    0.110498
     5  H    0.131821
     6  H    0.072335
     7  N   -0.660167
     8  C    0.058140
     9  C    0.412629
    10  O   -0.513851
    11  C   -0.311770
    12  C    0.842904
    13  O   -0.804564
    14  O   -0.724366
    15  H    0.362154
    16  H    0.167503
    17  H    0.102173
    18  H    0.081981
    19  N    0.368740
    20  C   -0.740655
    21  C    0.740512
    22  O   -0.559433
    23  C    0.234087
    24  C   -0.085795
    25  C   -0.161240
    26  C    0.222827
    27  N   -0.681923
    28  H   -0.139098
    29  H    0.193826
    30  H   -0.009807
    31  H    0.082515
    32  H    0.077640
    33  H    0.052958
    34  H    0.063676
    35  H    0.055910
    36  H    0.091818
    37  H   -0.007234
    38  H    0.412061
    39  H    0.388550
    40  H    0.406814
    41  N   -0.598590
    42  C    0.207451
    43  C    0.425115
    44  O   -0.546602
    45  C   -0.312753
    46  C    0.748972
    47  O   -0.609862
    48  O   -0.686640
    49  H    0.373061
    50  H    0.069366
    51  H    0.047685
    52  H    0.088087
    53  N   -0.055777
    54  C   -0.264694
    55  C    0.550504
    56  O   -0.566218
    57  H    0.033490
    58  H    0.125641
    59  H    0.145876
    60  N   -0.169883
    61  C    0.001577
    62  C    0.461770
    63  O   -0.553394
    64  C   -0.278016
    65  C    0.669557
    66  N   -0.880174
    67  O   -0.707162
    68  H    0.095829
    69  H    0.100588
    70  H    0.130800
    71  H    0.103461
    72  H    0.394397
    73  H    0.463873
    74  N   -0.066275
    75  C   -0.361199
    76  C    0.628294
    77  O   -0.572799
    78  H    0.227036
    79  H    0.157032
    80  H    0.153800
    81  N   -0.440825
    82  C    0.093831
    83  C    0.662293
    84  O   -0.596811
    85  C   -0.002269
    86  C   -0.077542
    87  C   -0.115345
    88  C    0.019770
    89  C   -0.271351
    90  C   -0.453503
    91  C    0.433935
    92  O   -0.610408
    93  H    0.252538
    94  H    0.042764
    95  H    0.066004
    96  H    0.015079
    97  H    0.153583
    98  H    0.086607
    99  H    0.164679
   100  H    0.171747
   101  H    0.436964
   102  N   -0.631231
   103  C   -0.037217
   104  C    0.738344
   105  O   -0.575648
   106  C    0.345104
   107  C    0.001184
   108  C   -0.406127
   109  C   -0.286161
   110  H    0.334305
   111  H    0.080362
   112  H   -0.055016
   113  H    0.035732
   114  H    0.016971
   115  H    0.115720
   116  H    0.104850
   117  H    0.039430
   118  H    0.091122
   119  H    0.051662
   120  H    0.070217
   121  N   -0.745883
   122  C    0.533646
   123  C    0.240997
   124  O   -0.286022
   125  C   -0.167747
   126  O   -0.337213
   127  H    0.334200
   128  H   -0.012873
   129  H    0.103879
   130  H    0.050081
   131  H    0.365457
   132  N   -0.493718
   133  C    0.271785
   134  C    0.437305
   135  O   -0.498258
   136  C   -0.291877
   137  H    0.300967
   138  H    0.058054
   139  H    0.093696
   140  H    0.084324
   141  H    0.074693
   142  N   -0.417686
   143  C    0.156371
   144  C    0.450364
   145  O   -0.536246
   146  C   -0.337738
   147  H    0.253249
   148  H    0.077998
   149  H    0.041870
   150  H    0.098526
   151  H    0.113173
   152  N   -0.156627
   153  C   -0.290108
   154  C    0.672597
   155  O   -0.575238
   156  C   -0.346151
   157  C   -0.013305
   158  C    0.723751
   159  O   -0.727124
   160  O   -0.790882
   161  H    0.082937
   162  H    0.114519
   163  H    0.233903
   164  H    0.062065
   165  H   -0.049210
   166  H    0.091846
   167  N   -0.186722
   168  C   -0.146282
   169  H    0.069804
   170  H    0.096874
   171  H    0.048822
   172  H    0.161448
   173  Ca   1.634734
   174  O   -0.845770
   175  H    0.390962
   176  H    0.402053
 Sum of ESP charges =   0.00000

 Normal termination of Gaussian 16 at Sun Sep 15 01:09:23 2019.
