 Gaussian 09, Revision D.01,
 Gaussian 09:  ES64L-G09RevD.01 24-Apr-2013

 ----------------------------------------------------------------------
 #maxdisk=50GB #B3LYP/SVP Density=Current scf=(tight) #IOP(5/87=12)Pop=
 (MK,readradii) iop(6/33=2) iop(6/42=6)
 ----------------------------------------------------------------------

 ------------
 SOL molecule
 ------------
 Symbolic Z-matrix:
 Charge =  0 Multiplicity = 1

                         Standard orientation:
 ---------------------------------------------------------------------
 Center     Atomic      Atomic             Coordinates (Angstroms)
 Number     Number       Type             X           Y           Z
 ---------------------------------------------------------------------
      1          6           0        2.164456    1.316552    5.969160
      2          6           0        1.581951    1.240086    4.560707
      3          8           0        2.402174    0.983093    3.685043
      4          1           0        2.883085    0.509149    6.108316
      5          1           0        2.665586    2.275348    6.104503
      6          1           0        1.362022    1.218313    6.700710
      7          7           0        0.279492    1.299211    4.267099
      8          6           0       -0.304222    1.518550    2.956615
      9          6           0       -0.164574    2.986636    2.587129
     10          8           0       -0.638500    3.908851    3.248880
     11          6           0       -1.748259    1.024088    2.927199
     12          6           0       -2.358892    1.175139    1.539824
     13          8           0       -1.811263    1.776316    0.582698
     14          8           0       -3.575545    0.880241    1.472058
     15          1           0       -0.335776    1.481954    5.045913
     16          1           0        0.219841    0.800101    2.330445
     17          1           0       -2.388825    1.487079    3.674068
     18          1           0       -1.736993   -0.009457    3.276709
     19          7           0        0.601521    3.220022    1.517302
     20          6           0        1.106191    4.500033    1.055696
     21          6           0        0.037599    5.449795    0.517400
     22          8           0        0.081472    6.644688    0.810328
     23          6           0        2.202893    4.238231    0.031584
     24          6           0        3.070034    5.452292   -0.287666
     25          6           0        4.379585    5.077979   -0.989853
     26          6           0        5.123036    6.220260   -1.662442
     27          7           0        6.220802    5.730513   -2.520905
     28          1           0        0.907370    2.448301    0.947211
     29          1           0        1.640298    4.987327    1.874338
     30          1           0        1.764903    3.923647   -0.919469
     31          1           0        2.836555    3.453472    0.442954
     32          1           0        3.222607    5.840412    0.717512
     33          1           0        2.480670    6.170500   -0.860927
     34          1           0        4.077122    4.369701   -1.751862
     35          1           0        5.028366    4.621093   -0.240294
     36          1           0        5.502083    6.869290   -0.879829
     37          1           0        4.406629    6.696955   -2.331787
     38          1           0        6.494390    6.477247   -3.132900
     39          1           0        7.057325    5.560108   -1.970548
     40          1           0        5.905432    4.922256   -3.032239
     41          7           0       -0.947001    4.837484   -0.136540
     42          6           0       -1.996167    5.442571   -0.937365
     43          6           0       -3.387627    5.330322   -0.334920
     44          8           0       -4.248480    6.071960   -0.797526
     45          6           0       -2.004018    4.926666   -2.367428
     46          6           0       -2.006735    3.416757   -2.564069
     47          8           0       -2.825627    2.751865   -1.888470
     48          8           0       -1.065380    2.787039   -3.083498
     49          1           0       -0.789506    3.848961   -0.205944
     50          1           0       -1.712898    6.498707   -0.943162
     51          1           0       -1.123912    5.398733   -2.820381
     52          1           0       -2.908836    5.294507   -2.853327
     53          7           0       -3.653352    4.350312    0.528313
     54          6           0       -4.887078    4.031192    1.216340
     55          6           0       -5.911700    3.320939    0.342159
     56          8           0       -7.102668    3.497283    0.597305
     57          1           0       -2.865537    3.729630    0.707485
     58          1           0       -5.263088    4.936436    1.708019
     59          1           0       -4.564049    3.354165    2.004938
     60          7           0       -5.490253    2.465118   -0.603384
     61          6           0       -6.406328    1.605925   -1.314364
     62          6           0       -6.846347    0.321233   -0.616329
     63          8           0       -7.769521   -0.298170   -1.130711
     64          6           0       -5.778369    1.299729   -2.660362
     65          6           0       -4.816721    0.115085   -2.632941
     66          7           0       -5.061299   -0.836132   -3.546706
     67          8           0       -3.960969   -0.117834   -1.785394
     68          1           0       -4.496312    2.345641   -0.729507
     69          1           0       -7.277645    2.251895   -1.484159
     70          1           0       -5.299876    2.186513   -3.073108
     71          1           0       -6.559471    0.929131   -3.327097
     72          1           0       -5.864821   -0.649448   -4.124375
     73          1           0       -4.489066   -1.651497   -3.674492
     74          7           0       -6.217031   -0.114020    0.466776
     75          6           0       -6.571295   -1.311667    1.203144
     76          6           0       -5.392944   -2.177242    1.638651
     77          8           0       -5.683546   -3.034472    2.471783
     78          1           0       -5.396554    0.387297    0.790346
     79          1           0       -6.981680   -1.970769    0.435245
     80          1           0       -7.333521   -1.121883    1.966029
     81          7           0       -4.182497   -1.945027    1.126992
     82          6           0       -3.190118   -2.990545    0.988885
     83          6           0       -1.755058   -2.485933    0.910987
     84          8           0       -1.605428   -1.381506    0.395378
     85          6           0       -3.359914   -3.849031   -0.266214
     86          6           0       -4.721967   -4.442848   -0.556029
     87          6           0       -5.085163   -5.708207   -0.068529
     88          6           0       -5.651293   -3.668628   -1.257695
     89          6           0       -6.355977   -6.236673   -0.329975
     90          6           0       -6.909724   -4.214117   -1.565584
     91          6           0       -7.176705   -5.561229   -1.248551
     92          8           0       -8.303227   -6.188039   -1.698168
     93          1           0       -4.024289   -1.064899    0.652815
     94          1           0       -3.219611   -3.721694    1.791600
     95          1           0       -2.729965   -4.732324   -0.134087
     96          1           0       -2.892122   -3.348333   -1.108754
     97          1           0       -4.337952   -6.193090    0.545282
     98          1           0       -5.302246   -2.666924   -1.480080
     99          1           0       -6.578479   -7.221016    0.044676
    100          1           0       -7.648131   -3.602073   -2.060009
    101          1           0       -8.723695   -5.563647   -2.295363
    102          7           0       -0.826742   -3.208809    1.550502
    103          6           0        0.602547   -2.985387    1.539673
    104          6           0        1.173101   -3.783619    0.380236
    105          8           0        0.772941   -4.916867    0.118283
    106          6           0        1.270525   -3.261200    2.889018
    107          6           0        0.416486   -3.039466    4.123867
    108          6           0        2.602564   -2.533064    3.050545
    109          6           0        0.869085   -3.716723    5.405731
    110          1           0       -1.104145   -4.064080    2.005319
    111          1           0        0.848294   -1.935017    1.375261
    112          1           0        1.453799   -4.335110    2.788880
    113          1           0       -0.583094   -3.434766    3.892398
    114          1           0        0.324414   -1.958781    4.239381
    115          1           0        3.095588   -2.807904    3.980379
    116          1           0        3.228001   -2.786584    2.190571
    117          1           0        2.475415   -1.453836    3.049580
    118          1           0        1.743446   -3.156694    5.741530
    119          1           0        0.082861   -3.660521    6.155193
    120          1           0        1.191774   -4.731870    5.194192
    121          7           0        2.251401   -3.321895   -0.242163
    122          6           0        3.092437   -4.054514   -1.174808
    123          6           0        4.514775   -3.621464   -0.853060
    124          8           0        4.742521   -2.790025    0.031215
    125          6           0        2.677584   -3.723102   -2.606228
    126          8           0        2.891252   -2.357864   -2.881677
    127          1           0        2.654618   -2.449828    0.058195
    128          1           0        3.036754   -5.117849   -0.967883
    129          1           0        1.653751   -4.095387   -2.710488
    130          1           0        3.274548   -4.139853   -3.407509
    131          1           0        2.141750   -1.832052   -2.602448
    132          7           0        5.508910   -4.287567   -1.454893
    133          6           0        6.889360   -4.243137   -1.012647
    134          6           0        7.435634   -2.839691   -1.138049
    135          8           0        8.090974   -2.450652   -0.169247
    136          6           0        7.720170   -5.257309   -1.799609
    137          1           0        5.237280   -5.073485   -2.020888
    138          1           0        6.871588   -4.511514    0.043458
    139          1           0        8.643843   -5.343592   -1.243926
    140          1           0        7.279240   -6.253888   -1.769400
    141          1           0        7.739910   -4.915018   -2.834910
    142          7           0        7.158475   -2.104983   -2.217626
    143          6           0        7.661604   -0.754190   -2.382605
    144          6           0        7.203538    0.170957   -1.256915
    145          8           0        7.959921    1.026669   -0.806867
    146          6           0        7.234231   -0.209868   -3.742519
    147          1           0        6.608200   -2.488778   -2.979465
    148          1           0        8.742190   -0.877256   -2.292674
    149          1           0        6.139790   -0.184009   -3.778985
    150          1           0        7.570813    0.828144   -3.789900
    151          1           0        7.597775   -0.852038   -4.542802
    152          7           0        5.944849   -0.043797   -0.870026
    153          6           0        5.249164    0.763438    0.110633
    154          6           0        5.728584    0.408932    1.507444
    155          8           0        5.906976    1.299173    2.326862
    156          6           0        3.748058    0.530895   -0.098899
    157          6           0        3.107880    0.883099   -1.438685
    158          6           0        1.627482    0.565832   -1.512596
    159          8           0        0.812516    1.115045   -0.738324
    160          8           0        1.154467   -0.191277   -2.392620
    161          1           0        5.423742   -0.775905   -1.339244
    162          1           0        5.442995    1.829011   -0.045203
    163          1           0        3.188642    1.110729    0.628938
    164          1           0        3.481979   -0.514358    0.073289
    165          1           0        3.642114    0.358339   -2.230026
    166          1           0        3.217143    1.937439   -1.666784
    167          7           0        6.065302   -0.873085    1.713977
    168          6           0        6.587892   -1.282090    3.002315
    169          1           0        7.587366   -1.696369    2.873748
    170          1           0        6.635997   -0.418660    3.665904
    171          1           0        5.934985   -2.039546    3.435919
    172          1           0        6.029010   -1.583972    0.993754
    173         20           0       -1.458630    0.614957   -1.602043
    174          8           0       -1.194740   -2.030978   -2.450272
    175          1           0       -0.598316   -2.329551   -3.137827
    176          1           0       -1.928995   -2.642883   -2.475621
 ---------------------------------------------------------------------

 SCF Done:  E(RB3LYP) =  -5333.60046668     A.U. after   19 cycles

 The electronic state is 1-A.
 Alpha  occ. eigenvalues -- -145.34995 -19.17569 -19.15641 -19.15158 -19.13823
 Alpha  occ. eigenvalues --  -19.12257 -19.11925 -19.11506 -19.10798 -19.10758
 Alpha  occ. eigenvalues --  -19.07888 -19.07745 -19.06940 -19.06685 -19.06639
 Alpha  occ. eigenvalues --  -19.06553 -19.05813 -19.05794 -19.04777 -19.04773
 Alpha  occ. eigenvalues --  -19.04340 -19.03811 -19.03557 -19.03119 -15.40772
 Alpha  occ. eigenvalues --  -14.58665 -14.40185 -14.39141 -14.37152 -14.36950
 Alpha  occ. eigenvalues --  -14.36896 -14.36334 -14.33591 -14.32324 -14.32299
 Alpha  occ. eigenvalues --  -14.31972 -14.31666 -14.31083 -14.29503 -14.29343
 Alpha  occ. eigenvalues --  -12.54376 -12.54356 -12.54322 -10.34781 -10.33082
 Alpha  occ. eigenvalues --  -10.31080 -10.30480 -10.29795 -10.29425 -10.29327
 Alpha  occ. eigenvalues --  -10.27187 -10.26809 -10.26802 -10.26402 -10.26287
 Alpha  occ. eigenvalues --  -10.26125 -10.25787 -10.25671 -10.25200 -10.25198
 Alpha  occ. eigenvalues --  -10.25106 -10.24420 -10.24364 -10.24066 -10.24039
 Alpha  occ. eigenvalues --  -10.23993 -10.23234 -10.23225 -10.23018 -10.22724
 Alpha  occ. eigenvalues --  -10.22705 -10.22453 -10.22364 -10.21309 -10.20376
 Alpha  occ. eigenvalues --  -10.20353 -10.20003 -10.19671 -10.19629 -10.19304
 Alpha  occ. eigenvalues --  -10.19234 -10.19182 -10.19155 -10.19060 -10.18737
 Alpha  occ. eigenvalues --  -10.18284 -10.18272 -10.18139 -10.18077 -10.17910
 Alpha  occ. eigenvalues --  -10.17909 -10.17830 -10.17753 -10.17572 -10.16943
 Alpha  occ. eigenvalues --  -10.15997 -10.15717  -1.77760  -1.13969  -1.08181
 Alpha  occ. eigenvalues --   -1.05823  -1.05445  -1.05419  -1.05336  -1.04586
 Alpha  occ. eigenvalues --   -1.04545  -1.04424  -1.03736  -1.03470  -1.03342
 Alpha  occ. eigenvalues --   -1.02760  -1.02253  -1.00536  -1.00135  -1.00009
 Alpha  occ. eigenvalues --   -0.99592  -0.99382  -0.98882  -0.98620  -0.98562
 Alpha  occ. eigenvalues --   -0.97350  -0.97039  -0.96377  -0.95856  -0.94190
 Alpha  occ. eigenvalues --   -0.93500  -0.93358  -0.91888  -0.91769  -0.90251
 Alpha  occ. eigenvalues --   -0.89942  -0.89884  -0.88950  -0.88664  -0.88556
 Alpha  occ. eigenvalues --   -0.88445  -0.88142  -0.88040  -0.87005  -0.85820
 Alpha  occ. eigenvalues --   -0.83974  -0.83091  -0.82217  -0.81059  -0.80617
 Alpha  occ. eigenvalues --   -0.79081  -0.78425  -0.78109  -0.76545  -0.76345
 Alpha  occ. eigenvalues --   -0.75105  -0.74867  -0.74707  -0.73522  -0.73396
 Alpha  occ. eigenvalues --   -0.73346  -0.72528  -0.71977  -0.70765  -0.70472
 Alpha  occ. eigenvalues --   -0.70381  -0.69555  -0.68539  -0.68426  -0.67607
 Alpha  occ. eigenvalues --   -0.67288  -0.66871  -0.65299  -0.64999  -0.64245
 Alpha  occ. eigenvalues --   -0.63508  -0.63354  -0.63113  -0.62902  -0.62043
 Alpha  occ. eigenvalues --   -0.61832  -0.61471  -0.60793  -0.60434  -0.60223
 Alpha  occ. eigenvalues --   -0.60132  -0.59393  -0.58073  -0.58028  -0.57826
 Alpha  occ. eigenvalues --   -0.57474  -0.57114  -0.56975  -0.56554  -0.56260
 Alpha  occ. eigenvalues --   -0.56083  -0.56022  -0.55704  -0.55117  -0.54854
 Alpha  occ. eigenvalues --   -0.54726  -0.54374  -0.54155  -0.53775  -0.53458
 Alpha  occ. eigenvalues --   -0.52831  -0.52691  -0.52436  -0.52083  -0.51814
 Alpha  occ. eigenvalues --   -0.51704  -0.51255  -0.50879  -0.50355  -0.50120
 Alpha  occ. eigenvalues --   -0.49763  -0.49382  -0.49042  -0.48837  -0.48813
 Alpha  occ. eigenvalues --   -0.48645  -0.48583  -0.48258  -0.47948  -0.47478
 Alpha  occ. eigenvalues --   -0.47396  -0.47129  -0.46844  -0.46810  -0.46461
 Alpha  occ. eigenvalues --   -0.46428  -0.46001  -0.45936  -0.45780  -0.45722
 Alpha  occ. eigenvalues --   -0.45473  -0.44956  -0.44858  -0.44661  -0.44529
 Alpha  occ. eigenvalues --   -0.44261  -0.44138  -0.44020  -0.43888  -0.43847
 Alpha  occ. eigenvalues --   -0.43622  -0.43346  -0.43294  -0.43184  -0.42966
 Alpha  occ. eigenvalues --   -0.42929  -0.42764  -0.42655  -0.42428  -0.42401
 Alpha  occ. eigenvalues --   -0.42112  -0.42088  -0.41972  -0.41941  -0.41807
 Alpha  occ. eigenvalues --   -0.41571  -0.41475  -0.41371  -0.41300  -0.41080
 Alpha  occ. eigenvalues --   -0.40791  -0.40471  -0.40424  -0.40299  -0.40122
 Alpha  occ. eigenvalues --   -0.40090  -0.39959  -0.39771  -0.39725  -0.39526
 Alpha  occ. eigenvalues --   -0.39422  -0.39212  -0.39082  -0.38771  -0.38679
 Alpha  occ. eigenvalues --   -0.38648  -0.38547  -0.38527  -0.38346  -0.38215
 Alpha  occ. eigenvalues --   -0.38081  -0.37890  -0.37710  -0.37552  -0.37432
 Alpha  occ. eigenvalues --   -0.37250  -0.37175  -0.36869  -0.36719  -0.36503
 Alpha  occ. eigenvalues --   -0.36442  -0.36390  -0.35904  -0.35665  -0.35555
 Alpha  occ. eigenvalues --   -0.35357  -0.35040  -0.34878  -0.34796  -0.34772
 Alpha  occ. eigenvalues --   -0.34671  -0.34478  -0.34313  -0.34248  -0.34149
 Alpha  occ. eigenvalues --   -0.33970  -0.33901  -0.33681  -0.33215  -0.32879
 Alpha  occ. eigenvalues --   -0.32517  -0.32403  -0.32338  -0.32041  -0.31896
 Alpha  occ. eigenvalues --   -0.31840  -0.31594  -0.31454  -0.30962  -0.30631
 Alpha  occ. eigenvalues --   -0.30219  -0.29916  -0.29727  -0.28143  -0.28117
 Alpha  occ. eigenvalues --   -0.27717  -0.27500  -0.27309  -0.27161  -0.26843
 Alpha  occ. eigenvalues --   -0.26405  -0.26067  -0.25433  -0.25317  -0.24843
 Alpha  occ. eigenvalues --   -0.24505  -0.24211  -0.23986  -0.23514  -0.23384
 Alpha  occ. eigenvalues --   -0.23311  -0.22918  -0.22850  -0.22763  -0.22675
 Alpha  occ. eigenvalues --   -0.22542  -0.22203  -0.21914  -0.21824  -0.21542
 Alpha  occ. eigenvalues --   -0.21343  -0.21014  -0.20975  -0.20206  -0.19596
 Alpha  occ. eigenvalues --   -0.19057  -0.18750  -0.18317
 Alpha virt. eigenvalues --   -0.10510  -0.04698  -0.04229  -0.03194  -0.01665
 Alpha virt. eigenvalues --   -0.01540  -0.00988  -0.00679  -0.00313  -0.00037
 Alpha virt. eigenvalues --    0.00378   0.00440   0.00802   0.01216   0.01686

 Mulliken charges:
               1
     1  C    0.083285
     2  C    0.016121
     3  O   -0.302925
     4  H    0.034254
     5  H    0.045998
     6  H   -0.011762
     7  N   -0.126073
     8  C    0.099108
     9  C    0.106229
    10  O   -0.275311
    11  C    0.054140
    12  C    0.184856
    13  O   -0.474411
    14  O   -0.394448
    15  H    0.114497
    16  H    0.008535
    17  H    0.012174
    18  H    0.002631
    19  N   -0.141539
    20  C    0.119794
    21  C    0.050400
    22  O   -0.277026
    23  C   -0.054054
    24  C    0.033260
    25  C   -0.065985
    26  C    0.026125
    27  N    0.089203
    28  H    0.152677
    29  H   -0.001642
    30  H    0.023277
    31  H    0.033493
    32  H    0.016141
    33  H    0.023946
    34  H    0.019786
    35  H    0.063564
    36  H    0.085843
    37  H    0.069360
    38  H    0.186872
    39  H    0.202410
    40  H    0.195933
    41  N   -0.143922
    42  C    0.106401
    43  C    0.070697
    44  O   -0.296355
    45  C    0.139261
    46  C    0.075587
    47  O   -0.434666
    48  O   -0.412363
    49  H    0.158867
    50  H    0.009493
    51  H   -0.027905
    52  H    0.018204
    53  N   -0.162005
    54  C    0.230673
    55  C    0.050740
    56  O   -0.294916
    57  H    0.150818
    58  H    0.017817
    59  H    0.026928
    60  N   -0.168892
    61  C    0.131784
    62  C    0.058430
    63  O   -0.305737
    64  C    0.096064
    65  C    0.059886
    66  N   -0.040143
    67  O   -0.352126
    68  H    0.156913
    69  H    0.031790
    70  H    0.059482
    71  H   -0.006670
    72  H    0.127030
    73  H    0.118022
    74  N   -0.176017
    75  C    0.238385
    76  C    0.007666
    77  O   -0.289839
    78  H    0.152977
    79  H    0.030003
    80  H    0.037749
    81  N   -0.114149
    82  C    0.128712
    83  C    0.129716
    84  O   -0.323132
    85  C    0.128221
    86  C   -0.028222
    87  C    0.010754
    88  C   -0.023095
    89  C    0.008978
    90  C   -0.028157
    91  C    0.153647
    92  O   -0.188377
    93  H    0.159986
    94  H   -0.019063
    95  H   -0.011482
    96  H   -0.084487
    97  H   -0.035574
    98  H   -0.036789
    99  H   -0.021469
   100  H   -0.021567
   101  H    0.169455
   102  N   -0.103802
   103  C    0.102556
   104  C    0.080892
   105  O   -0.299037
   106  C   -0.073174
   107  C    0.012491
   108  C    0.027953
   109  C    0.050759
   110  H    0.137615
   111  H    0.018075
   112  H   -0.031813
   113  H   -0.026347
   114  H    0.009605
   115  H    0.008104
   116  H   -0.007723
   117  H    0.044934
   118  H    0.009471
   119  H    0.021172
   120  H    0.002654
   121  N   -0.136522
   122  C    0.084782
   123  C    0.093961
   124  O   -0.294650
   125  C    0.258705
   126  O   -0.352970
   127  H    0.163287
   128  H    0.025327
   129  H    0.010433
   130  H   -0.015248
   131  H    0.162961
   132  N   -0.124261
   133  C    0.078105
   134  C    0.061469
   135  O   -0.260882
   136  C    0.060724
   137  H    0.114333
   138  H    0.018267
   139  H    0.048553
   140  H    0.022266
   141  H    0.012842
   142  N   -0.140962
   143  C    0.081037
   144  C    0.052913
   145  O   -0.270115
   146  C    0.053364
   147  H    0.117570
   148  H    0.017822
   149  H    0.020013
   150  H    0.012366
   151  H    0.029541
   152  N   -0.160250
   153  C    0.172147
   154  C    0.098709
   155  O   -0.268659
   156  C   -0.038205
   157  C    0.121379
   158  C    0.146979
   159  O   -0.435262
   160  O   -0.421919
   161  H    0.134519
   162  H   -0.042953
   163  H    0.046343
   164  H   -0.021970
   165  H   -0.032093
   166  H   -0.029880
   167  N   -0.189170
   168  C    0.122866
   169  H    0.018103
   170  H    0.039787
   171  H    0.006624
   172  H    0.146858
   173  Ca   1.287171
   174  O   -0.257694
   175  H    0.180544
   176  H    0.153857
 Sum of Mulliken charges =   0.00000

 Dipole moment (field-independent basis, Debye):
    X=             33.5176    Y=             -3.4903    Z=            -20.5401  Tot=             39.4652
 Quadrupole moment (field-independent basis, Debye-Ang):
   XX=           -564.1409   YY=           -503.7519   ZZ=           -498.4068
   XY=            131.1943   XZ=            -60.2644   YZ=            -39.7464

 ESP charges:
               1
     1  C   -0.436579
     2  C    0.789535
     3  O   -0.620670
     4  H    0.137849
     5  H    0.133461
     6  H    0.073169
     7  N   -0.652989
     8  C    0.091642
     9  C    0.469576
    10  O   -0.534987
    11  C   -0.128613
    12  C    0.867093
    13  O   -0.758099
    14  O   -0.744090
    15  H    0.327312
    16  H    0.126547
    17  H    0.061920
    18  H    0.025450
    19  N    0.035344
    20  C   -0.584761
    21  C    0.806104
    22  O   -0.590817
    23  C    0.407002
    24  C   -0.382238
    25  C    0.212600
    26  C   -0.076945
    27  N   -0.461711
    28  H   -0.098525
    29  H    0.183944
    30  H   -0.016031
    31  H    0.032981
    32  H    0.077055
    33  H    0.080092
    34  H    0.007747
    35  H    0.029937
    36  H    0.114187
    37  H    0.112341
    38  H    0.359101
    39  H    0.368600
    40  H    0.354961
    41  N   -0.572719
    42  C    0.135318
    43  C    0.440868
    44  O   -0.543001
    45  C   -0.391040
    46  C    0.781516
    47  O   -0.711040
    48  O   -0.766736
    49  H    0.398651
    50  H    0.077765
    51  H    0.088165
    52  H    0.127286
    53  N   -0.175327
    54  C   -0.198598
    55  C    0.549845
    56  O   -0.572299
    57  H    0.143740
    58  H    0.122378
    59  H    0.111628
    60  N   -0.237996
    61  C   -0.072384
    62  C    0.448299
    63  O   -0.546921
    64  C   -0.217648
    65  C    0.490816
    66  N   -0.732160
    67  O   -0.496086
    68  H    0.211929
    69  H    0.140404
    70  H    0.133619
    71  H    0.068165
    72  H    0.369430
    73  H    0.348537
    74  N   -0.089868
    75  C   -0.337761
    76  C    0.873664
    77  O   -0.604043
    78  H    0.175605
    79  H    0.145039
    80  H    0.127263
    81  N   -0.925569
    82  C    0.309265
    83  C    0.974057
    84  O   -0.769499
    85  C    0.052500
    86  C    0.092992
    87  C   -0.292344
    88  C   -0.380504
    89  C   -0.036959
    90  C   -0.184530
    91  C    0.248158
    92  O   -0.518370
    93  H    0.452991
    94  H    0.009872
    95  H   -0.016813
    96  H   -0.052068
    97  H    0.149579
    98  H    0.269915
    99  H    0.116444
   100  H    0.129149
   101  H    0.400451
   102  N   -1.054244
   103  C    0.356602
   104  C    0.526537
   105  O   -0.554012
   106  C    0.245941
   107  C    0.230122
   108  C   -0.273476
   109  C   -0.353335
   110  H    0.394882
   111  H    0.017697
   112  H   -0.085625
   113  H   -0.044365
   114  H   -0.045876
   115  H    0.089761
   116  H   -0.024917
   117  H    0.067573
   118  H    0.067037
   119  H    0.099375
   120  H    0.073403
   121  N   -0.178406
   122  C   -0.203201
   123  C    0.560101
   124  O   -0.399792
   125  C    0.059732
   126  O   -0.554648
   127  H    0.091955
   128  H    0.122098
   129  H    0.070962
   130  H    0.062005
   131  H    0.380871
   132  N   -0.492816
   133  C    0.237295
   134  C    0.489822
   135  O   -0.515257
   136  C   -0.351843
   137  H    0.284557
   138  H    0.045181
   139  H    0.120158
   140  H    0.112847
   141  H    0.077976
   142  N   -0.471609
   143  C    0.206289
   144  C    0.298962
   145  O   -0.514806
   146  C   -0.432376
   147  H    0.305219
   148  H    0.072531
   149  H    0.117076
   150  H    0.119428
   151  H    0.127083
   152  N   -0.057799
   153  C    0.066090
   154  C    0.491833
   155  O   -0.535532
   156  C   -0.552394
   157  C    0.023318
   158  C    0.746098
   159  O   -0.657973
   160  O   -0.722085
   161  H    0.176616
   162  H   -0.012084
   163  H    0.234663
   164  H    0.153440
   165  H   -0.026597
   166  H   -0.023299
   167  N   -0.103291
   168  C   -0.170287
   169  H    0.066375
   170  H    0.097520
   171  H    0.056702
   172  H    0.136900
   173  Ca   1.561189
   174  O   -0.812611
   175  H    0.435802
   176  H    0.375421
 Sum of ESP charges =   0.00000

 Normal termination of Gaussian 09 at Mon Sep 16 13:35:22 2019.
