 Gaussian 16, Revision A.03,
 Gaussian 16:  ES64L-G16RevA.03 25-Dec-2016

 ----------------------------------------------------------------------
 #b3lyp/svp scf=(tight,noincore) Test #IOP(5/87=12) Density=Current Pop
 =(MK,readradii) iop(6/33=2) iop(6/42=6)
 ----------------------------------------------------------------------

 -----------------
 CaMKII_loop3_70.0
 -----------------
 Symbolic Z-matrix:
 Charge =  0 Multiplicity = 1

                         Standard orientation:
 ---------------------------------------------------------------------
 Center     Atomic      Atomic             Coordinates (Angstroms)
 Number     Number       Type             X           Y           Z
 ---------------------------------------------------------------------
      1          6           0        2.706036    1.027836    5.433815
      2          6           0        2.046355    1.353597    4.102350
      3          8           0        2.743812    1.646582    3.142238
      4          1           0        3.713030    1.445336    5.452059
      5          1           0        2.120260    1.458668    6.245923
      6          1           0        2.759510   -0.053001    5.558121
      7          7           0        0.718296    1.301183    3.922037
      8          6           0        0.038521    1.577651    2.675815
      9          6           0        0.225386    3.049466    2.327469
     10          8           0       -0.179508    3.925518    3.091728
     11          6           0       -1.435772    1.213893    2.831181
     12          6           0       -2.206947    1.374376    1.520977
     13          8           0       -1.467813    1.649793    0.553492
     14          8           0       -3.442718    1.238863    1.531393
     15          1           0        0.249866    1.151177    4.805311
     16          1           0        0.524507    1.019616    1.883468
     17          1           0       -1.897525    1.805073    3.627291
     18          1           0       -1.526115    0.142900    2.987106
     19          7           0        0.815604    3.399832    1.180523
     20          6           0        1.234883    4.727039    0.795130
     21          6           0        0.208264    5.399944   -0.114734
     22          8           0        0.114052    6.623050   -0.103025
     23          6           0        2.620140    4.649514    0.157124
     24          6           0        3.414867    5.920281    0.455217
     25          6           0        4.553988    6.055068   -0.547398
     26          6           0        5.481685    7.161297   -0.055021
     27          7           0        6.240342    7.577817   -1.248357
     28          1           0        0.977748    2.695681    0.465484
     29          1           0        1.365910    5.302728    1.710288
     30          1           0        2.595574    4.466409   -0.915335
     31          1           0        3.183829    3.847219    0.643722
     32          1           0        3.778966    5.875555    1.480660
     33          1           0        2.746798    6.768982    0.285244
     34          1           0        4.077198    6.463903   -1.449853
     35          1           0        4.933937    5.059234   -0.760358
     36          1           0        6.040784    6.739977    0.772806
     37          1           0        5.007621    8.063880    0.336396
     38          1           0        6.743874    8.445764   -1.107554
     39          1           0        6.898911    6.856817   -1.504180
     40          1           0        5.669815    7.675460   -2.074834
     41          7           0       -0.627918    4.648510   -0.840232
     42          6           0       -1.692678    5.251978   -1.610369
     43          6           0       -3.036208    5.225414   -0.908926
     44          8           0       -3.887311    6.025564   -1.306147
     45          6           0       -1.679948    4.567701   -2.973235
     46          6           0       -1.892347    3.069928   -2.843004
     47          8           0       -1.116360    2.288712   -3.430923
     48          8           0       -2.734336    2.628180   -2.033490
     49          1           0       -0.638574    3.639764   -0.789071
     50          1           0       -1.472029    6.295541   -1.832384
     51          1           0       -0.779326    4.908228   -3.481391
     52          1           0       -2.535962    4.913681   -3.563860
     53          7           0       -3.224827    4.384857    0.109055
     54          6           0       -4.445639    4.297194    0.903810
     55          6           0       -5.584005    3.433073    0.379772
     56          8           0       -6.731989    3.659507    0.729286
     57          1           0       -2.572680    3.633379    0.269321
     58          1           0       -4.775806    5.315915    1.099508
     59          1           0       -4.151956    3.986693    1.906775
     60          7           0       -5.312972    2.472571   -0.505936
     61          6           0       -6.345501    1.731294   -1.199113
     62          6           0       -6.752683    0.474987   -0.453127
     63          8           0       -7.604829   -0.317745   -0.844949
     64          6           0       -5.883692    1.242417   -2.577747
     65          6           0       -4.871416    0.108229   -2.535127
     66          7           0       -5.060852   -0.973581   -3.293348
     67          8           0       -3.936499    0.085640   -1.740068
     68          1           0       -4.358689    2.368372   -0.817523
     69          1           0       -7.175897    2.426552   -1.310730
     70          1           0       -5.407244    2.064050   -3.103594
     71          1           0       -6.799577    0.925097   -3.079208
     72          1           0       -5.878983   -1.009627   -3.898874
     73          1           0       -4.430232   -1.756792   -3.219856
     74          7           0       -6.161191    0.275845    0.733709
     75          6           0       -6.538072   -0.712985    1.718938
     76          6           0       -5.584336   -1.894847    1.761247
     77          8           0       -5.925505   -2.860550    2.445661
     78          1           0       -5.366079    0.856456    0.969479
     79          1           0       -7.515682   -1.136479    1.460615
     80          1           0       -6.690993   -0.338809    2.729832
     81          7           0       -4.432802   -1.796435    1.105363
     82          6           0       -3.464816   -2.862467    0.965793
     83          6           0       -2.046352   -2.309870    1.021432
     84          8           0       -1.717234   -1.242340    0.500988
     85          6           0       -3.615464   -3.665464   -0.318887
     86          6           0       -5.029571   -4.168443   -0.441001
     87          6           0       -5.306554   -5.514240   -0.197052
     88          6           0       -6.015111   -3.348860   -1.020565
     89          6           0       -6.607669   -5.992240   -0.336742
     90          6           0       -7.312737   -3.839417   -1.178426
     91          6           0       -7.657484   -5.103809   -0.657021
     92          8           0       -8.967686   -5.475179   -0.640996
     93          1           0       -4.167848   -0.857245    0.826398
     94          1           0       -3.536926   -3.515865    1.843786
     95          1           0       -2.904841   -4.493702   -0.364019
     96          1           0       -3.423125   -3.008810   -1.176040
     97          1           0       -4.482745   -6.191368   -0.016674
     98          1           0       -5.775239   -2.306106   -1.199804
     99          1           0       -6.896073   -6.978543    0.003301
    100          1           0       -8.050803   -3.088738   -1.442698
    101          1           0       -9.486816   -4.761792   -1.030075
    102          7           0       -1.165175   -3.131338    1.598766
    103          6           0        0.283856   -3.027261    1.634521
    104          6           0        0.867459   -3.988890    0.605990
    105          8           0        0.536326   -5.170078    0.599198
    106          6           0        0.962576   -3.256934    2.980289
    107          6           0        0.158893   -2.522464    4.051992
    108          6           0        2.411658   -2.791308    2.887272
    109          6           0        0.537461   -3.046631    5.433562
    110          1           0       -1.534555   -3.949674    2.043833
    111          1           0        0.568637   -2.018024    1.354984
    112          1           0        1.008330   -4.323299    3.175664
    113          1           0       -0.900090   -2.758934    3.945987
    114          1           0        0.217368   -1.443837    3.901181
    115          1           0        2.403696   -1.710896    2.749986
    116          1           0        2.830526   -2.966005    3.880967
    117          1           0        2.914955   -3.389679    2.126125
    118          1           0        0.051410   -4.015593    5.591574
    119          1           0        1.585061   -3.208288    5.691441
    120          1           0        0.125882   -2.439550    6.244829
    121          7           0        1.776093   -3.459013   -0.213103
    122          6           0        2.631858   -4.125983   -1.178359
    123          6           0        4.102666   -3.962636   -0.821648
    124          8           0        4.450628   -3.079767   -0.049596
    125          6           0        2.377743   -3.538564   -2.563229
    126          8           0        2.498991   -2.129238   -2.523258
    127          1           0        2.072283   -2.525878    0.024446
    128          1           0        2.419986   -5.193048   -1.257626
    129          1           0        1.376710   -3.834433   -2.864717
    130          1           0        3.121438   -4.019756   -3.194079
    131          1           0        1.907185   -1.742337   -1.880628
    132          7           0        4.974435   -4.851579   -1.316721
    133          6           0        6.419431   -4.916468   -1.308065
    134          6           0        7.301764   -3.693277   -1.527139
    135          8           0        8.353324   -3.539083   -0.914404
    136          6           0        6.781116   -6.044493   -2.258719
    137          1           0        4.463921   -5.481443   -1.915091
    138          1           0        6.666033   -5.236371   -0.291134
    139          1           0        7.817458   -6.389611   -2.305496
    140          1           0        6.172342   -6.940282   -2.114305
    141          1           0        6.622484   -5.706715   -3.282117
    142          7           0        6.873296   -2.723489   -2.340174
    143          6           0        7.577325   -1.457924   -2.501696
    144          6           0        7.090712   -0.462311   -1.467016
    145          8           0        7.879989    0.407865   -1.113271
    146          6           0        7.375222   -0.915367   -3.906113
    147          1           0        6.105448   -2.940820   -2.948349
    148          1           0        8.660632   -1.584381   -2.464919
    149          1           0        7.883852    0.050605   -3.997184
    150          1           0        7.537422   -1.718112   -4.630055
    151          1           0        6.299497   -0.743168   -4.022578
    152          7           0        5.866296   -0.575331   -0.930610
    153          6           0        5.432010    0.280219    0.150376
    154          6           0        6.075353   -0.128147    1.464243
    155          8           0        6.485005    0.710304    2.256825
    156          6           0        3.906336    0.206916    0.177698
    157          6           0        3.204149    0.885837   -0.987720
    158          6           0        1.698288    0.671625   -1.095868
    159          8           0        0.977635    1.656997   -1.386902
    160          8           0        1.111553   -0.420749   -1.009493
    161          1           0        5.311366   -1.351705   -1.254641
    162          1           0        5.770846    1.285816   -0.099754
    163          1           0        3.560115    0.672197    1.099514
    164          1           0        3.582473   -0.833328    0.025366
    165          1           0        3.680958    0.583329   -1.925399
    166          1           0        3.399504    1.955123   -1.034240
    167          7           0        6.258885   -1.427082    1.731230
    168          6           0        6.994688   -1.778330    2.929820
    169          1           0        7.985006   -1.323854    2.894541
    170          1           0        6.458836   -1.412360    3.805698
    171          1           0        7.095081   -2.861830    2.990678
    172          1           0        5.869785   -2.098789    1.091533
    173         20           0       -1.319845    0.389474   -1.629121
    174          8           0       -1.805518   -1.999094   -2.575834
    175          1           0       -1.617409   -2.085607   -3.503589
    176          1           0       -1.916724   -2.894455   -2.264608
 ---------------------------------------------------------------------

 SCF Done:  E(RB3LYP) =  -5333.60976036     A.U. after   18 cycles

 The electronic state is 1-A.
 Alpha  occ. eigenvalues -- -145.35057 -19.20527 -19.14833 -19.14221 -19.13266
 Alpha  occ. eigenvalues --  -19.11695 -19.11400 -19.10893 -19.10428 -19.08846
 Alpha  occ. eigenvalues --  -19.08639 -19.07012 -19.06526 -19.06433 -19.06233
 Alpha  occ. eigenvalues --  -19.06187 -19.05718 -19.05164 -19.04476 -19.03964
 Alpha  occ. eigenvalues --  -19.03840 -19.03792 -19.03703 -19.03362 -15.40829
 Alpha  occ. eigenvalues --  -14.58337 -14.40206 -14.37671 -14.37031 -14.37024
 Alpha  occ. eigenvalues --  -14.36189 -14.34507 -14.33236 -14.32561 -14.32112
 Alpha  occ. eigenvalues --  -14.31376 -14.30716 -14.30667 -14.29388 -14.29155
 Alpha  occ. eigenvalues --  -12.54434 -12.54399 -12.54393 -10.34654 -10.32534
 Alpha  occ. eigenvalues --  -10.30613 -10.29954 -10.29477 -10.29332 -10.27347
 Alpha  occ. eigenvalues --  -10.27310 -10.26780 -10.26536 -10.26461 -10.26352
 Alpha  occ. eigenvalues --  -10.26125 -10.24867 -10.24805 -10.24765 -10.24733
 Alpha  occ. eigenvalues --  -10.24114 -10.23997 -10.23538 -10.23525 -10.23353
 Alpha  occ. eigenvalues --  -10.23247 -10.23098 -10.22751 -10.22662 -10.22298
 Alpha  occ. eigenvalues --  -10.21717 -10.21575 -10.20751 -10.20723 -10.20690
 Alpha  occ. eigenvalues --  -10.20035 -10.19765 -10.19719 -10.19434 -10.19212
 Alpha  occ. eigenvalues --  -10.18950 -10.18868 -10.18274 -10.18214 -10.18145
 Alpha  occ. eigenvalues --  -10.17773 -10.17763 -10.17690 -10.17399 -10.17341
 Alpha  occ. eigenvalues --  -10.17308 -10.17116 -10.17075 -10.17069 -10.16835
 Alpha  occ. eigenvalues --  -10.14969 -10.14646  -1.77820  -1.13668  -1.07674
 Alpha  occ. eigenvalues --   -1.07198  -1.05646  -1.05450  -1.05084  -1.04818
 Alpha  occ. eigenvalues --   -1.04435  -1.03707  -1.03633  -1.03487  -1.03043
 Alpha  occ. eigenvalues --   -1.02006  -1.01804  -1.00874  -0.99685  -0.99612
 Alpha  occ. eigenvalues --   -0.99592  -0.99148  -0.98720  -0.98708  -0.97995
 Alpha  occ. eigenvalues --   -0.97399  -0.97258  -0.95986  -0.94185  -0.93835
 Alpha  occ. eigenvalues --   -0.93797  -0.91734  -0.91477  -0.90549  -0.90169
 Alpha  occ. eigenvalues --   -0.89743  -0.89499  -0.89036  -0.88698  -0.88424
 Alpha  occ. eigenvalues --   -0.88213  -0.88039  -0.87515  -0.86499  -0.85272
 Alpha  occ. eigenvalues --   -0.83469  -0.83198  -0.82356  -0.80610  -0.79525
 Alpha  occ. eigenvalues --   -0.78544  -0.78229  -0.77579  -0.76356  -0.75916
 Alpha  occ. eigenvalues --   -0.74794  -0.74654  -0.73637  -0.72627  -0.72434
 Alpha  occ. eigenvalues --   -0.72245  -0.71807  -0.71519  -0.70801  -0.70679
 Alpha  occ. eigenvalues --   -0.69969  -0.69460  -0.67962  -0.67832  -0.67353
 Alpha  occ. eigenvalues --   -0.66374  -0.66116  -0.65128  -0.64316  -0.64174
 Alpha  occ. eigenvalues --   -0.63466  -0.62973  -0.62865  -0.61495  -0.61149
 Alpha  occ. eigenvalues --   -0.60871  -0.60598  -0.60389  -0.60163  -0.60060
 Alpha  occ. eigenvalues --   -0.59824  -0.58992  -0.58455  -0.58090  -0.57812
 Alpha  occ. eigenvalues --   -0.57446  -0.56984  -0.56105  -0.55949  -0.55861
 Alpha  occ. eigenvalues --   -0.55519  -0.55312  -0.55258  -0.54899  -0.54813
 Alpha  occ. eigenvalues --   -0.54413  -0.54026  -0.53872  -0.53198  -0.53000
 Alpha  occ. eigenvalues --   -0.52946  -0.52775  -0.52229  -0.51481  -0.51398
 Alpha  occ. eigenvalues --   -0.51156  -0.50943  -0.50413  -0.49580  -0.49420
 Alpha  occ. eigenvalues --   -0.49241  -0.49072  -0.49011  -0.48776  -0.48633
 Alpha  occ. eigenvalues --   -0.48088  -0.47923  -0.47748  -0.47457  -0.47332
 Alpha  occ. eigenvalues --   -0.47252  -0.46834  -0.46797  -0.46597  -0.46319
 Alpha  occ. eigenvalues --   -0.46220  -0.46028  -0.45663  -0.45554  -0.45217
 Alpha  occ. eigenvalues --   -0.45070  -0.44721  -0.44559  -0.44476  -0.44401
 Alpha  occ. eigenvalues --   -0.43928  -0.43916  -0.43775  -0.43552  -0.43501
 Alpha  occ. eigenvalues --   -0.43342  -0.43267  -0.43110  -0.42868  -0.42817
 Alpha  occ. eigenvalues --   -0.42565  -0.42514  -0.42379  -0.42256  -0.42022
 Alpha  occ. eigenvalues --   -0.41806  -0.41578  -0.41416  -0.41268  -0.41134
 Alpha  occ. eigenvalues --   -0.40993  -0.40874  -0.40739  -0.40511  -0.40293
 Alpha  occ. eigenvalues --   -0.40278  -0.40245  -0.40053  -0.39851  -0.39753
 Alpha  occ. eigenvalues --   -0.39609  -0.39488  -0.39293  -0.39145  -0.39028
 Alpha  occ. eigenvalues --   -0.38990  -0.38850  -0.38700  -0.38693  -0.38601
 Alpha  occ. eigenvalues --   -0.38475  -0.38218  -0.38156  -0.38104  -0.37923
 Alpha  occ. eigenvalues --   -0.37681  -0.37622  -0.37491  -0.37303  -0.37281
 Alpha  occ. eigenvalues --   -0.36923  -0.36791  -0.36397  -0.36348  -0.36233
 Alpha  occ. eigenvalues --   -0.36170  -0.35896  -0.35688  -0.35500  -0.35476
 Alpha  occ. eigenvalues --   -0.35106  -0.34961  -0.34786  -0.34592  -0.34426
 Alpha  occ. eigenvalues --   -0.34332  -0.34298  -0.34080  -0.33639  -0.33149
 Alpha  occ. eigenvalues --   -0.33041  -0.32936  -0.32865  -0.32709  -0.32649
 Alpha  occ. eigenvalues --   -0.32377  -0.32359  -0.32183  -0.31968  -0.31774
 Alpha  occ. eigenvalues --   -0.31623  -0.31000  -0.30809  -0.30483  -0.30423
 Alpha  occ. eigenvalues --   -0.29509  -0.29012  -0.28574  -0.28534  -0.27671
 Alpha  occ. eigenvalues --   -0.27564  -0.27205  -0.26809  -0.26374  -0.26313
 Alpha  occ. eigenvalues --   -0.25874  -0.25460  -0.24808  -0.24480  -0.24159
 Alpha  occ. eigenvalues --   -0.24090  -0.24027  -0.23603  -0.23501  -0.23420
 Alpha  occ. eigenvalues --   -0.23012  -0.22930  -0.22770  -0.22661  -0.22413
 Alpha  occ. eigenvalues --   -0.22233  -0.21810  -0.21643  -0.21015  -0.20650
 Alpha  occ. eigenvalues --   -0.20595  -0.20378  -0.20203  -0.20048  -0.19672
 Alpha  occ. eigenvalues --   -0.19349  -0.18820  -0.18154
 Alpha virt. eigenvalues --   -0.10286  -0.04517  -0.04355  -0.03126  -0.02329
 Alpha virt. eigenvalues --   -0.00740  -0.00679  -0.00473  -0.00201   0.00055
 Alpha virt. eigenvalues --    0.01063   0.01377   0.01939   0.02054   0.02091

 Mulliken charges:
               1
     1  C    0.070074
     2  C    0.009669
     3  O   -0.290863
     4  H    0.039712
     5  H    0.013947
     6  H    0.031077
     7  N   -0.123682
     8  C    0.170733
     9  C    0.053904
    10  O   -0.297639
    11  C    0.055366
    12  C    0.180249
    13  O   -0.485414
    14  O   -0.374088
    15  H    0.110986
    16  H   -0.019151
    17  H    0.019357
    18  H   -0.004376
    19  N   -0.147126
    20  C    0.142046
    21  C    0.084142
    22  O   -0.296341
    23  C    0.011193
    24  C   -0.017858
    25  C   -0.086671
    26  C    0.053044
    27  N    0.082198
    28  H    0.154058
    29  H    0.005294
    30  H    0.017375
    31  H    0.040178
    32  H    0.022839
    33  H    0.027529
    34  H    0.018452
    35  H    0.061806
    36  H    0.095574
    37  H    0.073996
    38  H    0.185857
    39  H    0.191770
    40  H    0.184469
    41  N   -0.152200
    42  C    0.078699
    43  C    0.093589
    44  O   -0.298376
    45  C    0.155641
    46  C    0.051096
    47  O   -0.415298
    48  O   -0.408161
    49  H    0.171754
    50  H    0.007051
    51  H   -0.019571
    52  H    0.005446
    53  N   -0.158420
    54  C    0.214308
    55  C    0.050789
    56  O   -0.291804
    57  H    0.142497
    58  H    0.013048
    59  H    0.024205
    60  N   -0.173925
    61  C    0.125056
    62  C    0.053356
    63  O   -0.299520
    64  C    0.111439
    65  C    0.054124
    66  N   -0.045138
    67  O   -0.338487
    68  H    0.163920
    69  H    0.032564
    70  H    0.047851
    71  H    0.008272
    72  H    0.130368
    73  H    0.113464
    74  N   -0.173853
    75  C    0.231381
    76  C    0.020272
    77  O   -0.300311
    78  H    0.168174
    79  H    0.030235
    80  H    0.034674
    81  N   -0.152449
    82  C    0.117018
    83  C    0.109442
    84  O   -0.329332
    85  C    0.129468
    86  C   -0.027278
    87  C    0.001760
    88  C   -0.017563
    89  C   -0.026474
    90  C   -0.051804
    91  C    0.160478
    92  O   -0.190858
    93  H    0.157348
    94  H   -0.004001
    95  H   -0.011996
    96  H   -0.032267
    97  H   -0.037227
    98  H   -0.011065
    99  H   -0.021350
   100  H   -0.013651
   101  H    0.176219
   102  N   -0.109416
   103  C    0.125258
   104  C    0.045891
   105  O   -0.280756
   106  C   -0.115847
   107  C    0.045732
   108  C    0.053549
   109  C    0.025715
   110  H    0.128732
   111  H    0.015138
   112  H   -0.018216
   113  H   -0.009822
   114  H   -0.001237
   115  H    0.032463
   116  H   -0.002177
   117  H    0.024681
   118  H    0.002238
   119  H    0.007761
   120  H    0.002635
   121  N   -0.127357
   122  C    0.029828
   123  C    0.065279
   124  O   -0.275942
   125  C    0.309556
   126  O   -0.344948
   127  H    0.169987
   128  H    0.015638
   129  H   -0.012016
   130  H   -0.035341
   131  H    0.167316
   132  N   -0.089480
   133  C    0.109964
   134  C    0.071879
   135  O   -0.248987
   136  C    0.002563
   137  H    0.115847
   138  H    0.036687
   139  H    0.046078
   140  H    0.030740
   141  H    0.002970
   142  N   -0.157663
   143  C    0.103050
   144  C    0.063781
   145  O   -0.284716
   146  C    0.045364
   147  H    0.110002
   148  H    0.032138
   149  H    0.041231
   150  H    0.014315
   151  H   -0.006173
   152  N   -0.157445
   153  C    0.169616
   154  C    0.069539
   155  O   -0.281722
   156  C   -0.023192
   157  C    0.086061
   158  C    0.170209
   159  O   -0.409305
   160  O   -0.448039
   161  H    0.116148
   162  H   -0.021821
   163  H    0.052731
   164  H    0.000300
   165  H   -0.006782
   166  H   -0.043777
   167  N   -0.175420
   168  C    0.166083
   169  H    0.024319
   170  H    0.015519
   171  H   -0.002763
   172  H    0.114459
   173  Ca   1.268115
   174  O   -0.267420
   175  H    0.182303
   176  H    0.182058
 Sum of Mulliken charges =  -0.00000

 Dipole moment (field-independent basis, Debye):
    X=             30.1625    Y=              3.1609    Z=            -14.2565  Tot=             33.5114
 Quadrupole moment (field-independent basis, Debye-Ang):
   XX=           -573.2062   YY=           -413.9459   ZZ=           -516.8719
   XY=            184.4985   XZ=            -25.2790   YZ=             -3.3091

 ESP charges:
               1
     1  C   -0.493095
     2  C    0.921611
     3  O   -0.680780
     4  H    0.151466
     5  H    0.100972
     6  H    0.128346
     7  N   -0.936721
     8  C    0.645157
     9  C    0.421406
    10  O   -0.568894
    11  C   -0.487296
    12  C    0.979723
    13  O   -0.762114
    14  O   -0.744701
    15  H    0.377244
    16  H   -0.051853
    17  H    0.110708
    18  H    0.072830
    19  N    0.103148
    20  C   -0.506042
    21  C    0.712395
    22  O   -0.582310
    23  C    0.483598
    24  C   -0.255408
    25  C    0.052532
    26  C    0.137292
    27  N   -0.418135
    28  H   -0.138845
    29  H    0.160057
    30  H   -0.067891
    31  H   -0.018840
    32  H    0.068014
    33  H    0.044125
    34  H    0.011676
    35  H   -0.006231
    36  H    0.065508
    37  H    0.070254
    38  H    0.338821
    39  H    0.321789
    40  H    0.332228
    41  N   -0.554688
    42  C    0.140582
    43  C    0.465270
    44  O   -0.558485
    45  C   -0.287336
    46  C    0.788942
    47  O   -0.784351
    48  O   -0.713800
    49  H    0.411892
    50  H    0.072661
    51  H    0.082702
    52  H    0.075133
    53  N   -0.198962
    54  C   -0.173560
    55  C    0.550728
    56  O   -0.591133
    57  H    0.085719
    58  H    0.117269
    59  H    0.107033
    60  N   -0.242328
    61  C   -0.010242
    62  C    0.394610
    63  O   -0.537655
    64  C   -0.323109
    65  C    0.637795
    66  N   -0.777334
    67  O   -0.600479
    68  H    0.243290
    69  H    0.143180
    70  H    0.143292
    71  H    0.098562
    72  H    0.371383
    73  H    0.346409
    74  N   -0.133778
    75  C   -0.226438
    76  C    0.682218
    77  O   -0.576411
    78  H    0.211200
    79  H    0.130862
    80  H    0.105322
    81  N   -0.670843
    82  C    0.265472
    83  C    0.755275
    84  O   -0.698174
    85  C   -0.129951
    86  C   -0.100371
    87  C    0.023532
    88  C   -0.003863
    89  C   -0.449635
    90  C   -0.533312
    91  C    0.620958
    92  O   -0.593552
    93  H    0.353697
    94  H    0.031101
    95  H    0.062782
    96  H   -0.018052
    97  H    0.085955
    98  H    0.217636
    99  H    0.191429
   100  H    0.178315
   101  H    0.417513
   102  N   -0.768777
   103  C    0.020607
   104  C    0.628089
   105  O   -0.573821
   106  C    0.396764
   107  C   -0.026359
   108  C   -0.393099
   109  C   -0.259489
   110  H    0.332056
   111  H    0.141847
   112  H   -0.066056
   113  H    0.041879
   114  H    0.025706
   115  H    0.060770
   116  H    0.097313
   117  H    0.069669
   118  H    0.060191
   119  H    0.060318
   120  H    0.063184
   121  N   -0.419942
   122  C    0.070736
   123  C    0.393915
   124  O   -0.346143
   125  C    0.280878
   126  O   -0.575525
   127  H    0.261003
   128  H    0.036540
   129  H   -0.025063
   130  H   -0.026284
   131  H    0.318434
   132  N   -0.364663
   133  C   -0.002785
   134  C    0.536756
   135  O   -0.535616
   136  C   -0.259824
   137  H    0.259408
   138  H    0.106598
   139  H    0.117235
   140  H    0.095304
   141  H    0.054185
   142  N   -0.424645
   143  C    0.169116
   144  C    0.347488
   145  O   -0.522435
   146  C   -0.355499
   147  H    0.306956
   148  H    0.099637
   149  H    0.128959
   150  H    0.089459
   151  H    0.073348
   152  N    0.005581
   153  C   -0.386417
   154  C    0.561124
   155  O   -0.544247
   156  C    0.064557
   157  C   -0.009375
   158  C    0.801593
   159  O   -0.706655
   160  O   -0.761297
   161  H    0.108782
   162  H    0.163542
   163  H    0.134641
   164  H   -0.181549
   165  H   -0.011552
   166  H   -0.002146
   167  N   -0.133209
   168  C   -0.273626
   169  H    0.120722
   170  H    0.096580
   171  H    0.098163
   172  H    0.155505
   173  Ca   1.624357
   174  O   -0.737570
   175  H    0.400364
   176  H    0.400184
 Sum of ESP charges =  -0.00000

 Normal termination of Gaussian 16 at Sat Sep 14 23:55:53 2019.
