 Gaussian 16, Revision A.03,
 Gaussian 16:  ES64L-G16RevA.03 25-Dec-2016

 ----------------------------------------------------------------------
 #b3lyp/svp scf=(tight,noincore) Test #IOP(5/87=12) Density=Current Pop
 =(MK,readradii) iop(6/33=2) iop(6/42=6)
 ----------------------------------------------------------------------

 -----------------
 CaMKII_loop3_52.0
 -----------------
 Symbolic Z-matrix:
 Charge =  0 Multiplicity = 1

                         Standard orientation:
 ---------------------------------------------------------------------
 Center     Atomic      Atomic             Coordinates (Angstroms)
 Number     Number       Type             X           Y           Z
 ---------------------------------------------------------------------
      1          6           0        2.247374    1.134398    5.933782
      2          6           0        1.779223    1.286170    4.494094
      3          8           0        2.526780    1.106548    3.538587
      4          1           0        1.624812    1.748121    6.584526
      5          1           0        2.167221    0.090218    6.234574
      6          1           0        3.284880    1.457509    6.015097
      7          7           0        0.525811    1.690360    4.218431
      8          6           0       -0.051025    1.847868    2.906238
      9          6           0        0.325853    3.223644    2.391451
     10          8           0       -0.131080    4.218785    2.966609
     11          6           0       -1.561689    1.616796    2.906550
     12          6           0       -2.252476    1.710374    1.547154
     13          8           0       -3.489959    1.574510    1.498400
     14          8           0       -1.688421    2.052562    0.484681
     15          1           0       -0.100147    1.771965    5.000426
     16          1           0        0.334658    1.066547    2.247386
     17          1           0       -1.920956    2.396814    3.575428
     18          1           0       -1.808570    0.642590    3.330545
     19          7           0        1.232002    3.336629    1.415220
     20          6           0        1.816693    4.587278    0.974978
     21          6           0        0.807158    5.251484    0.050765
     22          8           0        0.358933    6.355521    0.357845
     23          6           0        3.068343    4.285329    0.171547
     24          6           0        3.841286    5.525680   -0.247366
     25          6           0        5.200039    5.071758   -0.794217
     26          6           0        6.244635    6.178902   -0.908892
     27          7           0        7.414658    5.517679   -1.484158
     28          1           0        1.489152    2.481865    0.945803
     29          1           0        2.034676    5.306749    1.770808
     30          1           0        2.820194    3.743443   -0.741131
     31          1           0        3.669714    3.583457    0.769901
     32          1           0        4.013934    6.229967    0.566189
     33          1           0        3.205523    5.899033   -1.057127
     34          1           0        5.094594    4.470697   -1.691607
     35          1           0        5.588583    4.394393   -0.030928
     36          1           0        6.526481    6.668001    0.027828
     37          1           0        5.900525    6.948873   -1.597684
     38          1           0        7.165895    5.247223   -2.419770
     39          1           0        8.161518    6.191518   -1.608820
     40          1           0        7.637956    4.672634   -0.965567
     41          7           0        0.216520    4.546744   -0.918300
     42          6           0       -0.765510    5.155817   -1.802465
     43          6           0       -2.125375    5.421076   -1.177481
     44          8           0       -2.721349    6.400765   -1.614316
     45          6           0       -1.082653    4.285608   -3.014883
     46          6           0       -1.137642    2.796759   -2.704553
     47          8           0       -2.287026    2.304485   -2.652755
     48          8           0       -0.096052    2.175298   -2.417714
     49          1           0        0.531236    3.623619   -1.169285
     50          1           0       -0.409777    6.137778   -2.133234
     51          1           0       -0.231343    4.419972   -3.684299
     52          1           0       -1.933207    4.722441   -3.529795
     53          7           0       -2.509760    4.675424   -0.142130
     54          6           0       -3.770819    4.821944    0.566151
     55          6           0       -4.985971    4.239275   -0.158004
     56          8           0       -5.766001    5.000453   -0.716808
     57          1           0       -2.035003    3.795768   -0.031179
     58          1           0       -3.981341    5.876514    0.739251
     59          1           0       -3.706847    4.370005    1.555574
     60          7           0       -4.920574    2.945340   -0.478559
     61          6           0       -5.989536    2.175700   -1.073600
     62          6           0       -6.584633    1.039035   -0.252045
     63          8           0       -7.599619    0.493186   -0.680942
     64          6           0       -5.549534    1.684830   -2.456114
     65          6           0       -4.684720    0.430968   -2.424068
     66          7           0       -4.878420   -0.394340   -3.457193
     67          8           0       -3.946563    0.111509   -1.498071
     68          1           0       -4.166516    2.365330   -0.146919
     69          1           0       -6.785365    2.903059   -1.256097
     70          1           0       -5.040449    2.435045   -3.061431
     71          1           0       -6.371439    1.335723   -3.068892
     72          1           0       -5.537459   -0.156928   -4.183419
     73          1           0       -4.351611   -1.251059   -3.560169
     74          7           0       -6.076707    0.741152    0.944189
     75          6           0       -6.692346   -0.261200    1.777484
     76          6           0       -5.890962   -1.552076    1.892031
     77          8           0       -6.327949   -2.511355    2.519588
     78          1           0       -5.252528    1.255394    1.213419
     79          1           0       -7.724922   -0.471166    1.478485
     80          1           0       -6.777594    0.171532    2.776371
     81          7           0       -4.729927   -1.604165    1.240122
     82          6           0       -3.852390   -2.741506    1.094232
     83          6           0       -2.398967   -2.312709    1.150742
     84          8           0       -2.067735   -1.156225    0.867316
     85          6           0       -4.149685   -3.532535   -0.180126
     86          6           0       -5.567581   -4.028849   -0.339005
     87          6           0       -5.981745   -5.292077    0.109127
     88          6           0       -6.460184   -3.191423   -1.030148
     89          6           0       -7.236084   -5.777772   -0.259838
     90          6           0       -7.708677   -3.684221   -1.435380
     91          6           0       -8.097118   -4.967652   -1.017748
     92          8           0       -9.323259   -5.489580   -1.306140
     93          1           0       -4.450044   -0.831659    0.643129
     94          1           0       -4.066520   -3.348872    1.978288
     95          1           0       -3.462019   -4.378763   -0.206844
     96          1           0       -4.028136   -2.766351   -0.939262
     97          1           0       -5.228213   -5.877495    0.620962
     98          1           0       -6.208248   -2.181242   -1.303212
     99          1           0       -7.584933   -6.738487    0.095451
    100          1           0       -8.397955   -3.067132   -1.992694
    101          1           0       -9.811768   -4.902342   -1.877637
    102          7           0       -1.485728   -3.244047    1.436231
    103          6           0       -0.051968   -3.000851    1.520412
    104          6           0        0.555973   -4.003558    0.546457
    105          8           0        0.335891   -5.209444    0.490759
    106          6           0        0.483283   -3.117433    2.947477
    107          6           0       -0.081954   -2.069370    3.894615
    108          6           0        2.000994   -3.214029    3.045568
    109          6           0       -0.003645   -2.640435    5.309483
    110          1           0       -1.796871   -4.147545    1.739517
    111          1           0        0.101536   -1.954762    1.252022
    112          1           0        0.061726   -4.062442    3.276942
    113          1           0       -1.119422   -1.837033    3.646057
    114          1           0        0.460790   -1.132115    3.823323
    115          1           0        2.353401   -3.422435    4.044806
    116          1           0        2.307807   -4.074269    2.444608
    117          1           0        2.360206   -2.257485    2.662437
    118          1           0        1.005232   -2.866188    5.654162
    119          1           0       -0.499852   -1.866281    5.899538
    120          1           0       -0.623402   -3.531223    5.370291
    121          7           0        1.555536   -3.562315   -0.214319
    122          6           0        2.374317   -4.328264   -1.134493
    123          6           0        3.879937   -4.105531   -0.963035
    124          8           0        4.226486   -3.274883   -0.132416
    125          6           0        1.892426   -4.078869   -2.565186
    126          8           0        2.256415   -2.833106   -3.122759
    127          1           0        1.771125   -2.581654   -0.255850
    128          1           0        2.186054   -5.360016   -0.852456
    129          1           0        0.809446   -4.090066   -2.585886
    130          1           0        2.271542   -4.779707   -3.296005
    131          1           0        1.854041   -2.155730   -2.573071
    132          7           0        4.680710   -4.937754   -1.624977
    133          6           0        6.073983   -5.042232   -1.220042
    134          6           0        6.901943   -3.782134   -1.402348
    135          8           0        7.736876   -3.429637   -0.584098
    136          6           0        6.652810   -6.276155   -1.908006
    137          1           0        4.265369   -5.683093   -2.163552
    138          1           0        6.110850   -5.149361   -0.134333
    139          1           0        7.711906   -6.231850   -1.660517
    140          1           0        6.284831   -7.157037   -1.392216
    141          1           0        6.396919   -6.276879   -2.969288
    142          7           0        6.588092   -2.916955   -2.377879
    143          6           0        7.187887   -1.606217   -2.491072
    144          6           0        6.952152   -0.695727   -1.292933
    145          8           0        7.834478    0.035789   -0.869396
    146          6           0        6.798608   -1.013121   -3.841812
    147          1           0        6.005776   -3.282423   -3.125303
    148          1           0        8.269086   -1.792482   -2.531244
    149          1           0        5.746506   -0.708118   -3.822965
    150          1           0        7.399970   -0.133412   -4.055063
    151          1           0        7.065047   -1.705747   -4.633758
    152          7           0        5.734804   -0.745629   -0.765228
    153          6           0        5.286710    0.146941    0.291906
    154          6           0        5.849146   -0.256516    1.649952
    155          8           0        6.416946    0.594527    2.319227
    156          6           0        3.773683    0.259961    0.422961
    157          6           0        3.038782    0.492677   -0.901865
    158          6           0        1.613667   -0.006697   -0.782826
    159          8           0        1.145382   -0.845099   -1.592944
    160          8           0        0.872299    0.407664    0.147002
    161          1           0        5.094598   -1.461702   -1.086594
    162          1           0        5.670375    1.141153    0.048714
    163          1           0        3.456433    0.964058    1.190686
    164          1           0        3.431504   -0.713201    0.779006
    165          1           0        3.558472   -0.009463   -1.717878
    166          1           0        2.948682    1.547502   -1.125752
    167          7           0        5.998748   -1.558788    1.904323
    168          6           0        6.719082   -2.050943    3.054281
    169          1           0        7.783827   -1.857762    2.925279
    170          1           0        6.363653   -1.542646    3.950982
    171          1           0        6.555289   -3.123988    3.154791
    172          1           0        5.561135   -2.217062    1.276174
    173         20           0       -1.363010    0.207086   -1.290657
    174          8           0       -1.516662   -0.308357   -3.924838
    175          1           0       -1.145216   -1.089742   -4.326790
    176          1           0       -1.974243    0.150497   -4.634396
 ---------------------------------------------------------------------

 SCF Done:  E(RB3LYP) =  -5333.61605236     A.U. after   17 cycles

 The electronic state is 1-A.
 Alpha  occ. eigenvalues -- -145.36048 -19.17558 -19.14804 -19.14189 -19.12285
 Alpha  occ. eigenvalues --  -19.11833 -19.11760 -19.11156 -19.10292 -19.09443
 Alpha  occ. eigenvalues --  -19.09166 -19.07663 -19.06845 -19.06483 -19.06008
 Alpha  occ. eigenvalues --  -19.05840 -19.05656 -19.05233 -19.05174 -19.04451
 Alpha  occ. eigenvalues --  -19.04333 -19.03474 -19.03341 -19.02217 -15.41746
 Alpha  occ. eigenvalues --  -14.58525 -14.39831 -14.37392 -14.37129 -14.36866
 Alpha  occ. eigenvalues --  -14.35523 -14.35049 -14.33057 -14.32524 -14.32383
 Alpha  occ. eigenvalues --  -14.31888 -14.31039 -14.30743 -14.28543 -14.28004
 Alpha  occ. eigenvalues --  -12.55361 -12.55325 -12.55314 -10.35174 -10.32114
 Alpha  occ. eigenvalues --  -10.30525 -10.30076 -10.29786 -10.29085 -10.28159
 Alpha  occ. eigenvalues --  -10.27428 -10.27351 -10.26419 -10.26343 -10.25254
 Alpha  occ. eigenvalues --  -10.25147 -10.24555 -10.24487 -10.24399 -10.24364
 Alpha  occ. eigenvalues --  -10.24035 -10.24028 -10.23949 -10.23797 -10.23751
 Alpha  occ. eigenvalues --  -10.23531 -10.23417 -10.22914 -10.22493 -10.22032
 Alpha  occ. eigenvalues --  -10.21888 -10.21513 -10.21315 -10.20995 -10.20603
 Alpha  occ. eigenvalues --  -10.20055 -10.19764 -10.19463 -10.19302 -10.19132
 Alpha  occ. eigenvalues --  -10.19103 -10.18383 -10.18325 -10.18086 -10.17989
 Alpha  occ. eigenvalues --  -10.17907 -10.17891 -10.17688 -10.17627 -10.17583
 Alpha  occ. eigenvalues --  -10.17520 -10.17482 -10.17445 -10.17238 -10.16137
 Alpha  occ. eigenvalues --  -10.15732 -10.14577  -1.78679  -1.14239  -1.07276
 Alpha  occ. eigenvalues --   -1.06463  -1.06337  -1.06242  -1.05025  -1.04915
 Alpha  occ. eigenvalues --   -1.04292  -1.03784  -1.03669  -1.03421  -1.02972
 Alpha  occ. eigenvalues --   -1.02619  -1.00622  -1.00462  -0.99893  -0.99826
 Alpha  occ. eigenvalues --   -0.99682  -0.99530  -0.98898  -0.98836  -0.97682
 Alpha  occ. eigenvalues --   -0.96993  -0.96548  -0.95129  -0.94106  -0.93819
 Alpha  occ. eigenvalues --   -0.92428  -0.92167  -0.91860  -0.91741  -0.90143
 Alpha  occ. eigenvalues --   -0.90083  -0.89487  -0.89077  -0.88719  -0.88698
 Alpha  occ. eigenvalues --   -0.88412  -0.87950  -0.87217  -0.86420  -0.84665
 Alpha  occ. eigenvalues --   -0.83476  -0.82368  -0.81807  -0.81657  -0.79475
 Alpha  occ. eigenvalues --   -0.78162  -0.77966  -0.77074  -0.76532  -0.75511
 Alpha  occ. eigenvalues --   -0.75304  -0.74357  -0.74066  -0.73067  -0.72963
 Alpha  occ. eigenvalues --   -0.72459  -0.72450  -0.72083  -0.71108  -0.70712
 Alpha  occ. eigenvalues --   -0.69586  -0.69346  -0.68077  -0.67539  -0.67107
 Alpha  occ. eigenvalues --   -0.66696  -0.65995  -0.65070  -0.64492  -0.64242
 Alpha  occ. eigenvalues --   -0.63611  -0.62814  -0.62738  -0.61562  -0.61478
 Alpha  occ. eigenvalues --   -0.60936  -0.60798  -0.60361  -0.60258  -0.59528
 Alpha  occ. eigenvalues --   -0.59316  -0.59161  -0.57788  -0.57631  -0.57470
 Alpha  occ. eigenvalues --   -0.57330  -0.56894  -0.56430  -0.56347  -0.55835
 Alpha  occ. eigenvalues --   -0.55627  -0.55469  -0.55236  -0.54825  -0.54793
 Alpha  occ. eigenvalues --   -0.54318  -0.53771  -0.53416  -0.53215  -0.53062
 Alpha  occ. eigenvalues --   -0.52449  -0.51971  -0.51764  -0.51681  -0.51618
 Alpha  occ. eigenvalues --   -0.51179  -0.50471  -0.50132  -0.49488  -0.49316
 Alpha  occ. eigenvalues --   -0.49191  -0.48972  -0.48655  -0.48383  -0.48329
 Alpha  occ. eigenvalues --   -0.48224  -0.48123  -0.47893  -0.47699  -0.47612
 Alpha  occ. eigenvalues --   -0.47231  -0.47024  -0.46776  -0.46572  -0.46328
 Alpha  occ. eigenvalues --   -0.46052  -0.45939  -0.45499  -0.45218  -0.45070
 Alpha  occ. eigenvalues --   -0.44835  -0.44763  -0.44499  -0.44425  -0.44026
 Alpha  occ. eigenvalues --   -0.43838  -0.43783  -0.43633  -0.43548  -0.43470
 Alpha  occ. eigenvalues --   -0.43180  -0.43132  -0.43011  -0.42883  -0.42701
 Alpha  occ. eigenvalues --   -0.42695  -0.42565  -0.42385  -0.42193  -0.42086
 Alpha  occ. eigenvalues --   -0.41860  -0.41761  -0.41731  -0.41553  -0.41514
 Alpha  occ. eigenvalues --   -0.41358  -0.41119  -0.40864  -0.40775  -0.40577
 Alpha  occ. eigenvalues --   -0.40542  -0.40475  -0.40361  -0.40218  -0.40064
 Alpha  occ. eigenvalues --   -0.39745  -0.39576  -0.39498  -0.39440  -0.39225
 Alpha  occ. eigenvalues --   -0.39099  -0.39014  -0.38769  -0.38628  -0.38443
 Alpha  occ. eigenvalues --   -0.38301  -0.38189  -0.38039  -0.38025  -0.37877
 Alpha  occ. eigenvalues --   -0.37816  -0.37777  -0.37303  -0.37234  -0.37082
 Alpha  occ. eigenvalues --   -0.36870  -0.36758  -0.36508  -0.36290  -0.36189
 Alpha  occ. eigenvalues --   -0.36032  -0.35578  -0.35326  -0.35083  -0.35000
 Alpha  occ. eigenvalues --   -0.34981  -0.34835  -0.34727  -0.34568  -0.34487
 Alpha  occ. eigenvalues --   -0.34054  -0.33964  -0.33794  -0.33632  -0.33470
 Alpha  occ. eigenvalues --   -0.33191  -0.33010  -0.32907  -0.32869  -0.32834
 Alpha  occ. eigenvalues --   -0.32628  -0.32481  -0.32172  -0.31679  -0.31474
 Alpha  occ. eigenvalues --   -0.31457  -0.31176  -0.30568  -0.29907  -0.29567
 Alpha  occ. eigenvalues --   -0.29183  -0.28883  -0.28471  -0.28046  -0.27907
 Alpha  occ. eigenvalues --   -0.27225  -0.27103  -0.26997  -0.26737  -0.26450
 Alpha  occ. eigenvalues --   -0.25945  -0.25553  -0.25033  -0.24970  -0.24459
 Alpha  occ. eigenvalues --   -0.24354  -0.23914  -0.23701  -0.23425  -0.23283
 Alpha  occ. eigenvalues --   -0.23160  -0.22991  -0.22898  -0.22810  -0.22526
 Alpha  occ. eigenvalues --   -0.22291  -0.21943  -0.21914  -0.21133  -0.20934
 Alpha  occ. eigenvalues --   -0.20775  -0.20598  -0.20392  -0.19927  -0.19481
 Alpha  occ. eigenvalues --   -0.18679  -0.18024  -0.17089
 Alpha virt. eigenvalues --   -0.10398  -0.05067  -0.03846  -0.02125  -0.01623
 Alpha virt. eigenvalues --   -0.01082  -0.00983  -0.00857   0.00002   0.00825
 Alpha virt. eigenvalues --    0.00965   0.01211   0.01305   0.01806   0.01906

 Mulliken charges:
               1
     1  C    0.071883
     2  C    0.021929
     3  O   -0.290262
     4  H    0.009091
     5  H    0.031641
     6  H    0.039664
     7  N   -0.123853
     8  C    0.081802
     9  C    0.091932
    10  O   -0.294474
    11  C    0.073492
    12  C    0.185572
    13  O   -0.390677
    14  O   -0.467875
    15  H    0.102985
    16  H    0.026203
    17  H    0.016972
    18  H    0.000622
    19  N   -0.120608
    20  C    0.190786
    21  C    0.025995
    22  O   -0.255323
    23  C   -0.088235
    24  C    0.080911
    25  C   -0.119327
    26  C    0.059786
    27  N    0.087166
    28  H    0.139674
    29  H    0.001908
    30  H    0.015443
    31  H    0.029244
    32  H    0.020274
    33  H    0.040055
    34  H    0.023689
    35  H    0.041065
    36  H    0.085394
    37  H    0.071858
    38  H    0.183751
    39  H    0.190031
    40  H    0.211883
    41  N   -0.122622
    42  C    0.069215
    43  C    0.056607
    44  O   -0.286588
    45  C    0.153914
    46  C    0.100109
    47  O   -0.415608
    48  O   -0.433378
    49  H    0.115534
    50  H   -0.008313
    51  H   -0.034293
    52  H    0.008303
    53  N   -0.151233
    54  C    0.249775
    55  C    0.018942
    56  O   -0.274703
    57  H    0.165866
    58  H    0.007278
    59  H    0.009292
    60  N   -0.155625
    61  C    0.138300
    62  C    0.034016
    63  O   -0.307348
    64  C    0.101921
    65  C    0.104124
    66  N   -0.055910
    67  O   -0.367745
    68  H    0.135151
    69  H    0.024591
    70  H    0.061024
    71  H   -0.012086
    72  H    0.126573
    73  H    0.111210
    74  N   -0.147633
    75  C    0.229492
    76  C    0.031451
    77  O   -0.291924
    78  H    0.133237
    79  H    0.046763
    80  H    0.021662
    81  N   -0.154046
    82  C    0.091030
    83  C    0.118319
    84  O   -0.346244
    85  C    0.168302
    86  C   -0.019808
    87  C    0.035412
    88  C   -0.009688
    89  C   -0.011481
    90  C   -0.040744
    91  C    0.162792
    92  O   -0.194875
    93  H    0.155160
    94  H    0.001416
    95  H   -0.010736
    96  H   -0.040256
    97  H   -0.041933
    98  H   -0.034343
    99  H   -0.025554
   100  H   -0.038717
   101  H    0.166942
   102  N   -0.118849
   103  C    0.118852
   104  C    0.086186
   105  O   -0.292705
   106  C   -0.103059
   107  C   -0.006733
   108  C    0.076445
   109  C    0.030986
   110  H    0.128129
   111  H    0.037284
   112  H   -0.034418
   113  H    0.010187
   114  H    0.028499
   115  H    0.000402
   116  H    0.012621
   117  H    0.040855
   118  H    0.017432
   119  H    0.004525
   120  H    0.002582
   121  N   -0.138707
   122  C    0.051299
   123  C    0.112773
   124  O   -0.277051
   125  C    0.265621
   126  O   -0.356445
   127  H    0.128337
   128  H    0.021395
   129  H   -0.007210
   130  H   -0.022622
   131  H    0.158594
   132  N   -0.117544
   133  C    0.070570
   134  C    0.047227
   135  O   -0.252205
   136  C    0.048013
   137  H    0.129301
   138  H    0.024395
   139  H    0.038868
   140  H    0.030913
   141  H    0.024032
   142  N   -0.146117
   143  C    0.099219
   144  C    0.064750
   145  O   -0.272528
   146  C    0.039656
   147  H    0.111049
   148  H    0.008437
   149  H    0.031481
   150  H    0.006048
   151  H    0.019148
   152  N   -0.150634
   153  C    0.141413
   154  C    0.084146
   155  O   -0.286950
   156  C   -0.039584
   157  C    0.131923
   158  C    0.136999
   159  O   -0.451358
   160  O   -0.382444
   161  H    0.138666
   162  H   -0.047597
   163  H    0.054828
   164  H    0.002820
   165  H   -0.030434
   166  H   -0.010927
   167  N   -0.167714
   168  C    0.152256
   169  H    0.025266
   170  H    0.022956
   171  H    0.002038
   172  H    0.126100
   173  Ca   1.263012
   174  O   -0.273349
   175  H    0.172289
   176  H    0.184002
 Sum of Mulliken charges =  -0.00000

 Dipole moment (field-independent basis, Debye):
    X=             32.1911    Y=             -3.6892    Z=            -15.4010  Tot=             35.8757
 Quadrupole moment (field-independent basis, Debye-Ang):
   XX=           -498.7176   YY=           -531.6417   ZZ=           -495.6517
   XY=            173.2623   XZ=            -45.6942   YZ=             -4.6207

 ESP charges:
               1
     1  C   -0.454381
     2  C    0.884608
     3  O   -0.684123
     4  H    0.097537
     5  H    0.116207
     6  H    0.138872
     7  N   -0.849350
     8  C    0.348588
     9  C    0.686382
    10  O   -0.570410
    11  C   -0.476241
    12  C    0.895142
    13  O   -0.659083
    14  O   -0.783560
    15  H    0.372081
    16  H    0.047648
    17  H    0.116541
    18  H    0.102768
    19  N   -0.409326
    20  C   -0.066760
    21  C    0.422985
    22  O   -0.535186
    23  C    0.225991
    24  C   -0.374386
    25  C    0.061985
    26  C    0.119905
    27  N   -0.409156
    28  H    0.159669
    29  H    0.112891
    30  H    0.033727
    31  H   -0.003628
    32  H    0.110678
    33  H    0.109168
    34  H    0.018814
    35  H    0.033361
    36  H    0.079211
    37  H    0.051815
    38  H    0.327391
    39  H    0.339038
    40  H    0.341079
    41  N   -0.331882
    42  C    0.090661
    43  C    0.562035
    44  O   -0.567172
    45  C   -0.389291
    46  C    0.804604
    47  O   -0.711141
    48  O   -0.777173
    49  H    0.238016
    50  H    0.057214
    51  H    0.067849
    52  H    0.126111
    53  N   -0.169125
    54  C   -0.132896
    55  C    0.423171
    56  O   -0.523006
    57  H    0.180168
    58  H    0.093403
    59  H    0.081378
    60  N   -0.015865
    61  C   -0.149452
    62  C    0.465216
    63  O   -0.538543
    64  C    0.019187
    65  C    0.645584
    66  N   -0.811252
    67  O   -0.658525
    68  H   -0.058406
    69  H    0.112383
    70  H    0.075655
    71  H   -0.004729
    72  H    0.381929
    73  H    0.358579
    74  N   -0.203369
    75  C   -0.201964
    76  C    0.638712
    77  O   -0.569798
    78  H    0.222807
    79  H    0.135764
    80  H    0.094227
    81  N   -0.622672
    82  C    0.643954
    83  C    0.316951
    84  O   -0.531270
    85  C   -0.157485
    86  C   -0.182388
    87  C    0.086731
    88  C    0.129041
    89  C   -0.456258
    90  C   -0.574867
    91  C    0.600031
    92  O   -0.587999
    93  H    0.303299
    94  H   -0.063339
    95  H    0.050192
    96  H   -0.017067
    97  H    0.071381
    98  H    0.129959
    99  H    0.196753
   100  H    0.193113
   101  H    0.408988
   102  N   -0.525217
   103  C   -0.220176
   104  C    0.582149
   105  O   -0.559662
   106  C    0.408785
   107  C    0.058316
   108  C   -0.440547
   109  C   -0.423183
   110  H    0.319626
   111  H    0.065508
   112  H   -0.045799
   113  H    0.056280
   114  H    0.064948
   115  H    0.125368
   116  H    0.097089
   117  H    0.065778
   118  H    0.107383
   119  H    0.085998
   120  H    0.098549
   121  N   -0.087664
   122  C   -0.493013
   123  C    0.742427
   124  O   -0.531144
   125  C    0.183052
   126  O   -0.651302
   127  H    0.257246
   128  H    0.161636
   129  H    0.031491
   130  H    0.054442
   131  H    0.490545
   132  N   -0.554818
   133  C    0.259345
   134  C    0.451729
   135  O   -0.520888
   136  C   -0.454261
   137  H    0.332230
   138  H    0.049452
   139  H    0.135495
   140  H    0.133609
   141  H    0.125910
   142  N   -0.372094
   143  C    0.077310
   144  C    0.342218
   145  O   -0.517152
   146  C   -0.364392
   147  H    0.250391
   148  H    0.096380
   149  H    0.093439
   150  H    0.107614
   151  H    0.119506
   152  N    0.029586
   153  C   -0.116824
   154  C    0.522156
   155  O   -0.548347
   156  C   -0.245868
   157  C    0.005825
   158  C    0.888507
   159  O   -0.909302
   160  O   -0.702425
   161  H    0.131044
   162  H    0.027526
   163  H    0.195419
   164  H    0.007342
   165  H   -0.034654
   166  H   -0.020530
   167  N   -0.101065
   168  C   -0.312435
   169  H    0.124679
   170  H    0.108416
   171  H    0.109981
   172  H    0.168716
   173  Ca   1.722818
   174  O   -0.835355
   175  H    0.414210
   176  H    0.424041
 Sum of ESP charges =  -0.00000

 Normal termination of Gaussian 16 at Wed Sep 18 16:10:51 2019.
