 Gaussian 16, Revision A.03,
 Gaussian 16:  ES64L-G16RevA.03 25-Dec-2016

 ----------------------------------------------------------------------
 #b3lyp/svp scf=(tight,noincore) Test #IOP(5/87=12) Density=Current Pop
 =(MK,readradii) iop(6/33=2) iop(6/42=6)
 ----------------------------------------------------------------------

 -----------------
 CaMKII_loop3_71.0
 -----------------
 Symbolic Z-matrix:
 Charge =  0 Multiplicity = 1

                         Standard orientation:
 ---------------------------------------------------------------------
 Center     Atomic      Atomic             Coordinates (Angstroms)
 Number     Number       Type             X           Y           Z
 ---------------------------------------------------------------------
      1          6           0        2.790287    2.166245    4.456079
      2          6           0        1.999856    2.229496    3.164135
      3          8           0        2.505369    2.307689    2.044250
      4          1           0        3.852817    2.089241    4.227727
      5          1           0        2.609200    3.069729    5.037732
      6          1           0        2.478057    1.294126    5.031262
      7          7           0        0.680806    2.262788    3.386842
      8          6           0       -0.261513    2.160471    2.291412
      9          6           0       -0.465404    3.567960    1.754381
     10          8           0       -1.530575    4.163782    1.940946
     11          6           0       -1.528018    1.422467    2.720615
     12          6           0       -2.433329    1.123159    1.536163
     13          8           0       -1.968617    1.303361    0.389267
     14          8           0       -3.605143    0.750873    1.781833
     15          1           0        0.310312    2.354934    4.324095
     16          1           0        0.127867    1.515083    1.516843
     17          1           0       -2.067212    2.052481    3.426486
     18          1           0       -1.362145    0.486204    3.258386
     19          7           0        0.580020    4.212748    1.218249
     20          6           0        0.616927    5.616924    0.838079
     21          6           0       -0.394020    6.056504   -0.210042
     22          8           0       -0.814452    7.204357   -0.186182
     23          6           0        2.036240    6.029969    0.461325
     24          6           0        2.281490    7.471127    0.883481
     25          6           0        3.646426    7.817119    0.276407
     26          6           0        4.112505    9.216114    0.650018
     27          7           0        4.349939   10.035501   -0.553323
     28          1           0        1.423459    3.657519    1.223745
     29          1           0        0.397758    6.224737    1.717129
     30          1           0        2.220067    5.876699   -0.602496
     31          1           0        2.779298    5.452422    1.008047
     32          1           0        2.326916    7.573039    1.969782
     33          1           0        1.500048    8.150723    0.543188
     34          1           0        3.539041    7.618072   -0.786959
     35          1           0        4.363043    7.120476    0.709476
     36          1           0        4.908787    9.230375    1.396565
     37          1           0        3.317827    9.728599    1.179494
     38          1           0        4.746407   10.946664   -0.406373
     39          1           0        4.819896    9.448662   -1.228497
     40          1           0        3.452280   10.282883   -0.958306
     41          7           0       -0.912271    5.142111   -1.044129
     42          6           0       -1.945735    5.297332   -2.036278
     43          6           0       -3.241288    4.659590   -1.539965
     44          8           0       -4.288333    4.797853   -2.160996
     45          6           0       -1.519017    4.642851   -3.345845
     46          6           0       -1.172396    3.175537   -3.191108
     47          8           0       -0.124457    2.721023   -3.706512
     48          8           0       -2.010792    2.357644   -2.732913
     49          1           0       -0.471793    4.241619   -0.934158
     50          1           0       -2.256989    6.327608   -2.206726
     51          1           0       -0.590863    5.100484   -3.700812
     52          1           0       -2.302790    4.876990   -4.061722
     53          7           0       -3.245383    4.046439   -0.354499
     54          6           0       -4.478199    3.927533    0.407095
     55          6           0       -5.502159    2.838469    0.091900
     56          8           0       -6.584924    2.704598    0.659172
     57          1           0       -2.381463    3.806656    0.100524
     58          1           0       -4.970386    4.894448    0.477994
     59          1           0       -4.217854    3.556935    1.398295
     60          7           0       -5.238910    1.945090   -0.865949
     61          6           0       -6.142927    1.024554   -1.525546
     62          6           0       -6.593943   -0.070368   -0.566260
     63          8           0       -7.491949   -0.840255   -0.902949
     64          6           0       -5.511303    0.519422   -2.817557
     65          6           0       -4.654576   -0.687175   -2.478379
     66          7           0       -4.889746   -1.887754   -3.014201
     67          8           0       -3.653379   -0.517729   -1.781104
     68          1           0       -4.266561    1.847187   -1.134744
     69          1           0       -7.032724    1.612843   -1.721194
     70          1           0       -4.834967    1.216701   -3.308750
     71          1           0       -6.307656    0.300540   -3.537079
     72          1           0       -5.603745   -2.064396   -3.698601
     73          1           0       -4.195747   -2.589059   -2.801511
     74          7           0       -6.109339   -0.095617    0.679582
     75          6           0       -6.374306   -0.972266    1.797115
     76          6           0       -5.301557   -2.045664    1.927982
     77          8           0       -5.580947   -3.055988    2.562480
     78          1           0       -5.265095    0.450068    0.754274
     79          1           0       -7.331505   -1.483685    1.667042
     80          1           0       -6.396673   -0.529562    2.791958
     81          7           0       -4.195712   -1.977534    1.166428
     82          6           0       -3.223930   -3.050697    1.095290
     83          6           0       -1.787311   -2.572395    0.998075
     84          8           0       -1.440962   -1.857752    0.063929
     85          6           0       -3.480915   -3.972725   -0.103052
     86          6           0       -4.856315   -4.592369   -0.098975
     87          6           0       -5.093172   -5.908124    0.324803
     88          6           0       -5.940452   -3.809754   -0.511116
     89          6           0       -6.406820   -6.378898    0.323930
     90          6           0       -7.281386   -4.206300   -0.397772
     91          6           0       -7.499605   -5.547025   -0.007596
     92          8           0       -8.795929   -5.940870    0.137414
     93          1           0       -3.947235   -1.066932    0.823992
     94          1           0       -3.233301   -3.577966    2.050330
     95          1           0       -2.836677   -4.854984   -0.054311
     96          1           0       -3.351034   -3.467146   -1.055481
     97          1           0       -4.268207   -6.519294    0.680054
     98          1           0       -5.714365   -2.783994   -0.740249
     99          1           0       -6.584083   -7.404608    0.597964
    100          1           0       -8.091927   -3.617448   -0.799862
    101          1           0       -9.438666   -5.225860    0.047134
    102          7           0       -0.926169   -3.021514    1.910669
    103          6           0        0.505482   -2.788761    1.841393
    104          6           0        1.138701   -3.746675    0.851022
    105          8           0        0.968048   -4.946551    1.020066
    106          6           0        1.248439   -2.774624    3.171512
    107          6           0        0.585706   -1.805929    4.158332
    108          6           0        2.732944   -2.479124    3.022428
    109          6           0        1.096814   -2.173059    5.553891
    110          1           0       -1.278470   -3.689965    2.583988
    111          1           0        0.608624   -1.753024    1.509865
    112          1           0        1.171268   -3.782691    3.568307
    113          1           0       -0.498756   -1.869029    4.166151
    114          1           0        0.867279   -0.763280    3.998018
    115          1           0        3.298707   -3.250288    2.483802
    116          1           0        2.835632   -1.523142    2.508859
    117          1           0        3.218942   -2.395815    3.994932
    118          1           0        0.839653   -3.215683    5.736655
    119          1           0        2.166634   -2.043686    5.699999
    120          1           0        0.599780   -1.561781    6.303022
    121          7           0        1.982802   -3.262456   -0.076246
    122          6           0        2.749438   -4.106854   -0.957927
    123          6           0        4.204896   -4.214861   -0.513767
    124          8           0        4.700715   -3.370481    0.237888
    125          6           0        2.720918   -3.526544   -2.366233
    126          8           0        3.292872   -2.235068   -2.410511
    127          1           0        1.893922   -2.256424   -0.141043
    128          1           0        2.360919   -5.122527   -1.037686
    129          1           0        1.693564   -3.502316   -2.736849
    130          1           0        3.260112   -4.156558   -3.072104
    131          1           0        2.627142   -1.743740   -1.918778
    132          7           0        4.914823   -5.259781   -0.941604
    133          6           0        6.358358   -5.289020   -0.863168
    134          6           0        7.105675   -4.012859   -1.200555
    135          8           0        7.958467   -3.584511   -0.426822
    136          6           0        6.925787   -6.464338   -1.657052
    137          1           0        4.512308   -5.841166   -1.670283
    138          1           0        6.637606   -5.541428    0.160801
    139          1           0        6.311788   -7.347286   -1.487325
    140          1           0        6.876212   -6.362868   -2.739062
    141          1           0        7.958448   -6.553052   -1.301045
    142          7           0        6.781075   -3.343811   -2.300377
    143          6           0        7.308453   -2.031695   -2.643631
    144          6           0        7.011534   -0.928042   -1.640490
    145          8           0        7.858744   -0.082380   -1.355550
    146          6           0        6.753612   -1.683200   -4.013887
    147          1           0        6.168403   -3.815163   -2.947649
    148          1           0        8.399096   -2.050960   -2.586815
    149          1           0        5.686551   -1.460861   -3.931761
    150          1           0        7.351185   -0.879499   -4.428461
    151          1           0        6.917877   -2.488394   -4.726124
    152          7           0        5.816960   -0.896532   -1.049813
    153          6           0        5.420342    0.072390   -0.049471
    154          6           0        6.274641   -0.168335    1.186581
    155          8           0        6.681716    0.765960    1.878739
    156          6           0        3.911686   -0.081919    0.165808
    157          6           0        3.223580    0.726075   -0.926417
    158          6           0        1.720251    0.520895   -0.881678
    159          8           0        1.281721   -0.653174   -0.773262
    160          8           0        0.971948    1.517706   -0.844114
    161          1           0        5.071691   -1.536237   -1.303289
    162          1           0        5.641550    1.068891   -0.411345
    163          1           0        3.621843    0.275342    1.153156
    164          1           0        3.736448   -1.146497    0.023447
    165          1           0        3.567831    0.457262   -1.928481
    166          1           0        3.469616    1.777068   -0.794212
    167          7           0        6.495685   -1.421874    1.597893
    168          6           0        7.269195   -1.673303    2.797087
    169          1           0        8.331773   -1.608240    2.563184
    170          1           0        7.018323   -0.930768    3.554569
    171          1           0        7.040905   -2.669808    3.175570
    172          1           0        5.983239   -2.133883    1.104697
    173         20           0       -1.069479    0.093203   -1.718450
    174          8           0       -0.795993   -2.121861   -2.944336
    175          1           0       -0.864244   -3.030190   -2.628614
    176          1           0       -0.385996   -2.202446   -3.808748
 ---------------------------------------------------------------------

 SCF Done:  E(RB3LYP) =  -5333.57693055     A.U. after   20 cycles

 The electronic state is 1-A.
 Alpha  occ. eigenvalues -- -145.35881 -19.20441 -19.15570 -19.12974 -19.12340
 Alpha  occ. eigenvalues --  -19.10641 -19.10635 -19.10494 -19.09189 -19.09001
 Alpha  occ. eigenvalues --  -19.08608 -19.07908 -19.07816 -19.06545 -19.06238
 Alpha  occ. eigenvalues --  -19.04679 -19.04355 -19.04041 -19.03812 -19.03527
 Alpha  occ. eigenvalues --  -19.02922 -19.02859 -19.02373 -19.00962 -15.41643
 Alpha  occ. eigenvalues --  -14.59736 -14.38551 -14.36140 -14.36039 -14.35902
 Alpha  occ. eigenvalues --  -14.35451 -14.34443 -14.33528 -14.32890 -14.31906
 Alpha  occ. eigenvalues --  -14.30753 -14.29832 -14.29056 -14.28677 -14.28364
 Alpha  occ. eigenvalues --  -12.55257 -12.55227 -12.55191 -10.35797 -10.30645
 Alpha  occ. eigenvalues --  -10.29438 -10.28767 -10.28689 -10.28095 -10.27922
 Alpha  occ. eigenvalues --  -10.27385 -10.26626 -10.26562 -10.26434 -10.25781
 Alpha  occ. eigenvalues --  -10.25348 -10.25236 -10.24607 -10.24027 -10.23490
 Alpha  occ. eigenvalues --  -10.23471 -10.23201 -10.23037 -10.22756 -10.22556
 Alpha  occ. eigenvalues --  -10.22215 -10.22183 -10.22047 -10.22042 -10.22028
 Alpha  occ. eigenvalues --  -10.21637 -10.21247 -10.21110 -10.20436 -10.20117
 Alpha  occ. eigenvalues --  -10.19617 -10.19268 -10.19127 -10.19012 -10.18909
 Alpha  occ. eigenvalues --  -10.18536 -10.18217 -10.17970 -10.17878 -10.17837
 Alpha  occ. eigenvalues --  -10.17110 -10.17078 -10.16644 -10.16388 -10.16273
 Alpha  occ. eigenvalues --  -10.15747 -10.15723 -10.15704 -10.15443 -10.15284
 Alpha  occ. eigenvalues --  -10.14888 -10.14467  -1.78508  -1.14954  -1.06878
 Alpha  occ. eigenvalues --   -1.06238  -1.05966  -1.05709  -1.05055  -1.04145
 Alpha  occ. eigenvalues --   -1.03717  -1.03501  -1.03194  -1.02519  -1.02083
 Alpha  occ. eigenvalues --   -1.01916  -1.01509  -1.01460  -1.00477  -0.99718
 Alpha  occ. eigenvalues --   -0.98311  -0.97694  -0.97560  -0.97148  -0.97075
 Alpha  occ. eigenvalues --   -0.96305  -0.96046  -0.95146  -0.92667  -0.92355
 Alpha  occ. eigenvalues --   -0.92285  -0.92190  -0.91587  -0.91105  -0.90580
 Alpha  occ. eigenvalues --   -0.89955  -0.89451  -0.89198  -0.88650  -0.88003
 Alpha  occ. eigenvalues --   -0.86715  -0.85805  -0.85540  -0.85434  -0.84822
 Alpha  occ. eigenvalues --   -0.82903  -0.81721  -0.81582  -0.80772  -0.78059
 Alpha  occ. eigenvalues --   -0.77617  -0.77173  -0.76381  -0.76347  -0.75970
 Alpha  occ. eigenvalues --   -0.75605  -0.75320  -0.73996  -0.73808  -0.72237
 Alpha  occ. eigenvalues --   -0.71660  -0.71151  -0.70862  -0.69771  -0.69606
 Alpha  occ. eigenvalues --   -0.68743  -0.68486  -0.68049  -0.67515  -0.66601
 Alpha  occ. eigenvalues --   -0.65774  -0.64787  -0.64514  -0.64317  -0.63777
 Alpha  occ. eigenvalues --   -0.63327  -0.63204  -0.63145  -0.61755  -0.61652
 Alpha  occ. eigenvalues --   -0.60096  -0.59729  -0.59508  -0.59302  -0.59245
 Alpha  occ. eigenvalues --   -0.59127  -0.58749  -0.58065  -0.57395  -0.57014
 Alpha  occ. eigenvalues --   -0.56916  -0.56237  -0.56187  -0.56119  -0.55480
 Alpha  occ. eigenvalues --   -0.55340  -0.54781  -0.54404  -0.54050  -0.53938
 Alpha  occ. eigenvalues --   -0.53362  -0.53021  -0.52579  -0.52550  -0.52455
 Alpha  occ. eigenvalues --   -0.52303  -0.51786  -0.51698  -0.51511  -0.50738
 Alpha  occ. eigenvalues --   -0.50699  -0.50452  -0.50238  -0.49872  -0.49561
 Alpha  occ. eigenvalues --   -0.49180  -0.48809  -0.48716  -0.48170  -0.48131
 Alpha  occ. eigenvalues --   -0.47975  -0.47432  -0.47309  -0.47264  -0.47014
 Alpha  occ. eigenvalues --   -0.46813  -0.46796  -0.46619  -0.46339  -0.45527
 Alpha  occ. eigenvalues --   -0.45376  -0.45266  -0.45082  -0.44961  -0.44756
 Alpha  occ. eigenvalues --   -0.44602  -0.44239  -0.44178  -0.43936  -0.43786
 Alpha  occ. eigenvalues --   -0.43491  -0.43336  -0.43151  -0.42930  -0.42740
 Alpha  occ. eigenvalues --   -0.42618  -0.42467  -0.42078  -0.41939  -0.41817
 Alpha  occ. eigenvalues --   -0.41740  -0.41638  -0.41451  -0.41385  -0.41092
 Alpha  occ. eigenvalues --   -0.40943  -0.40704  -0.40550  -0.40433  -0.40286
 Alpha  occ. eigenvalues --   -0.40277  -0.40136  -0.39965  -0.39816  -0.39479
 Alpha  occ. eigenvalues --   -0.39424  -0.39316  -0.39293  -0.39190  -0.39106
 Alpha  occ. eigenvalues --   -0.38926  -0.38762  -0.38648  -0.38637  -0.38476
 Alpha  occ. eigenvalues --   -0.38452  -0.38431  -0.38373  -0.38100  -0.37927
 Alpha  occ. eigenvalues --   -0.37865  -0.37691  -0.37650  -0.37555  -0.37507
 Alpha  occ. eigenvalues --   -0.37412  -0.37323  -0.37122  -0.36962  -0.36846
 Alpha  occ. eigenvalues --   -0.36631  -0.36514  -0.36365  -0.35952  -0.35696
 Alpha  occ. eigenvalues --   -0.35649  -0.35456  -0.35387  -0.35232  -0.35185
 Alpha  occ. eigenvalues --   -0.34824  -0.34376  -0.34315  -0.34056  -0.33977
 Alpha  occ. eigenvalues --   -0.33718  -0.33519  -0.33429  -0.33297  -0.32991
 Alpha  occ. eigenvalues --   -0.32882  -0.32621  -0.32559  -0.32450  -0.31651
 Alpha  occ. eigenvalues --   -0.31315  -0.31285  -0.31085  -0.30915  -0.30514
 Alpha  occ. eigenvalues --   -0.30290  -0.30114  -0.29949  -0.29481  -0.29340
 Alpha  occ. eigenvalues --   -0.28315  -0.27988  -0.27750  -0.27586  -0.26912
 Alpha  occ. eigenvalues --   -0.26701  -0.26385  -0.26138  -0.25866  -0.25771
 Alpha  occ. eigenvalues --   -0.25374  -0.25094  -0.24856  -0.24818  -0.24415
 Alpha  occ. eigenvalues --   -0.23704  -0.23330  -0.23241  -0.23037  -0.22717
 Alpha  occ. eigenvalues --   -0.22503  -0.22364  -0.22319  -0.22141  -0.21508
 Alpha  occ. eigenvalues --   -0.20935  -0.20738  -0.20601  -0.20411  -0.19540
 Alpha  occ. eigenvalues --   -0.19238  -0.19192  -0.19039  -0.18917  -0.18730
 Alpha  occ. eigenvalues --   -0.18205  -0.17556  -0.16367
 Alpha virt. eigenvalues --   -0.11399  -0.05664  -0.05076  -0.02989  -0.02280
 Alpha virt. eigenvalues --   -0.01142  -0.00071   0.00408   0.00952   0.01029
 Alpha virt. eigenvalues --    0.01137   0.01429   0.01692   0.01821   0.02412

 Mulliken charges:
               1
     1  C    0.040348
     2  C    0.052945
     3  O   -0.295251
     4  H    0.048668
     5  H    0.024231
     6  H    0.030690
     7  N   -0.138646
     8  C    0.081877
     9  C    0.071559
    10  O   -0.300868
    11  C    0.075439
    12  C    0.160268
    13  O   -0.445985
    14  O   -0.396650
    15  H    0.120323
    16  H    0.054805
    17  H   -0.002653
    18  H   -0.004346
    19  N   -0.125524
    20  C    0.157173
    21  C    0.041931
    22  O   -0.288802
    23  C    0.021314
    24  C   -0.026898
    25  C   -0.081034
    26  C    0.093472
    27  N    0.062550
    28  H    0.143357
    29  H    0.002695
    30  H    0.020853
    31  H    0.016133
    32  H    0.017597
    33  H    0.024219
    34  H    0.027653
    35  H    0.050999
    36  H    0.085022
    37  H    0.053625
    38  H    0.187587
    39  H    0.201558
    40  H    0.196866
    41  N   -0.137981
    42  C    0.091635
    43  C    0.066652
    44  O   -0.292349
    45  C    0.145585
    46  C    0.060452
    47  O   -0.373507
    48  O   -0.446249
    49  H    0.156300
    50  H    0.014780
    51  H   -0.028256
    52  H    0.019473
    53  N   -0.149642
    54  C    0.238148
    55  C    0.023329
    56  O   -0.302595
    57  H    0.142318
    58  H    0.018424
    59  H    0.028564
    60  N   -0.177203
    61  C    0.135694
    62  C    0.015278
    63  O   -0.314734
    64  C    0.158761
    65  C    0.011640
    66  N   -0.011874
    67  O   -0.344231
    68  H    0.150676
    69  H    0.023832
    70  H    0.062076
    71  H   -0.009359
    72  H    0.130909
    73  H    0.120794
    74  N   -0.131578
    75  C    0.270753
    76  C    0.016211
    77  O   -0.299314
    78  H    0.158645
    79  H    0.027929
    80  H    0.028069
    81  N   -0.162173
    82  C    0.167962
    83  C    0.119606
    84  O   -0.355363
    85  C    0.173881
    86  C   -0.059544
    87  C   -0.006517
    88  C    0.000092
    89  C   -0.013838
    90  C   -0.038498
    91  C    0.167358
    92  O   -0.212191
    93  H    0.150678
    94  H   -0.025728
    95  H   -0.022572
    96  H   -0.048428
    97  H   -0.044300
    98  H   -0.012608
    99  H   -0.041693
   100  H   -0.024339
   101  H    0.178776
   102  N   -0.112728
   103  C    0.150144
   104  C    0.047424
   105  O   -0.290079
   106  C   -0.102370
   107  C    0.015694
   108  C    0.061217
   109  C    0.026450
   110  H    0.133330
   111  H    0.013116
   112  H   -0.018165
   113  H    0.009872
   114  H   -0.003418
   115  H    0.034081
   116  H    0.003058
   117  H   -0.004935
   118  H    0.002340
   119  H    0.010920
   120  H   -0.002423
   121  N   -0.138478
   122  C    0.086018
   123  C    0.096315
   124  O   -0.270386
   125  C    0.259699
   126  O   -0.318005
   127  H    0.166885
   128  H    0.009479
   129  H   -0.045250
   130  H   -0.022917
   131  H    0.165682
   132  N   -0.079400
   133  C    0.079163
   134  C    0.043850
   135  O   -0.251324
   136  C    0.021844
   137  H    0.111385
   138  H    0.019308
   139  H    0.018440
   140  H    0.002487
   141  H    0.053968
   142  N   -0.121026
   143  C    0.107213
   144  C    0.059263
   145  O   -0.271512
   146  C    0.037896
   147  H    0.097375
   148  H    0.015782
   149  H    0.032539
   150  H    0.025840
   151  H    0.000366
   152  N   -0.166401
   153  C    0.146023
   154  C    0.047614
   155  O   -0.302345
   156  C   -0.027172
   157  C    0.085972
   158  C    0.126844
   159  O   -0.461956
   160  O   -0.357487
   161  H    0.130109
   162  H   -0.018537
   163  H    0.053645
   164  H   -0.015063
   165  H    0.002109
   166  H   -0.005821
   167  N   -0.162921
   168  C    0.162438
   169  H    0.022466
   170  H    0.011312
   171  H   -0.004845
   172  H    0.126699
   173  Ca   1.292142
   174  O   -0.296503
   175  H    0.204237
   176  H    0.193702
 Sum of Mulliken charges =  -0.00000

 Dipole moment (field-independent basis, Debye):
    X=             25.0190    Y=             20.3544    Z=             -7.1341  Tot=             33.0326
 Quadrupole moment (field-independent basis, Debye-Ang):
   XX=           -687.7322   YY=           -197.4987   ZZ=           -517.6130
   XY=            170.4879   XZ=             -1.0381   YZ=             50.0221

 ESP charges:
               1
     1  C   -0.468074
     2  C    0.820280
     3  O   -0.613896
     4  H    0.135206
     5  H    0.118119
     6  H    0.126564
     7  N   -0.889766
     8  C    0.342205
     9  C    0.654876
    10  O   -0.564514
    11  C   -0.340878
    12  C    0.840689
    13  O   -0.798542
    14  O   -0.684474
    15  H    0.406269
    16  H    0.075351
    17  H    0.073376
    18  H    0.066850
    19  N   -0.476725
    20  C    0.083168
    21  C    0.514562
    22  O   -0.560866
    23  C   -0.176005
    24  C    0.277848
    25  C   -0.277286
    26  C    0.278244
    27  N   -0.525481
    28  H    0.309129
    29  H    0.040141
    30  H    0.069284
    31  H    0.075123
    32  H   -0.022730
    33  H   -0.055278
    34  H    0.073130
    35  H    0.075509
    36  H    0.051070
    37  H    0.015062
    38  H    0.363734
    39  H    0.356546
    40  H    0.374225
    41  N   -0.457209
    42  C    0.175773
    43  C    0.439805
    44  O   -0.570724
    45  C   -0.274385
    46  C    0.838380
    47  O   -0.727479
    48  O   -0.799812
    49  H    0.264605
    50  H    0.065905
    51  H    0.034141
    52  H    0.089728
    53  N   -0.016102
    54  C   -0.393978
    55  C    0.664959
    56  O   -0.620310
    57  H    0.117060
    58  H    0.152806
    59  H    0.137547
    60  N   -0.339964
    61  C    0.008857
    62  C    0.380707
    63  O   -0.563991
    64  C   -0.240537
    65  C    0.602128
    66  N   -0.837529
    67  O   -0.556456
    68  H    0.217676
    69  H    0.126629
    70  H    0.140319
    71  H    0.084274
    72  H    0.401229
    73  H    0.385885
    74  N    0.025732
    75  C   -0.409166
    76  C    0.626739
    77  O   -0.539500
    78  H    0.218872
    79  H    0.172621
    80  H    0.151099
    81  N   -0.518545
    82  C    0.343350
    83  C    0.703513
    84  O   -0.637856
    85  C   -0.111380
    86  C    0.139827
    87  C   -0.267437
    88  C   -0.412717
    89  C   -0.162878
    90  C   -0.178897
    91  C    0.362526
    92  O   -0.592449
    93  H    0.185739
    94  H   -0.022833
    95  H    0.017132
    96  H   -0.003722
    97  H    0.150754
    98  H    0.344853
    99  H    0.127575
   100  H    0.110347
   101  H    0.432734
   102  N   -0.775736
   103  C    0.131989
   104  C    0.502213
   105  O   -0.565085
   106  C    0.262381
   107  C    0.117475
   108  C   -0.419882
   109  C   -0.291421
   110  H    0.357733
   111  H    0.059207
   112  H   -0.022246
   113  H    0.012252
   114  H    0.014500
   115  H    0.115168
   116  H    0.059526
   117  H    0.109564
   118  H    0.055299
   119  H    0.070517
   120  H    0.055577
   121  N   -0.126385
   122  C   -0.102131
   123  C    0.547135
   124  O   -0.411694
   125  C    0.212545
   126  O   -0.456164
   127  H    0.081769
   128  H    0.070110
   129  H   -0.026034
   130  H    0.013182
   131  H    0.268718
   132  N   -0.561121
   133  C    0.259956
   134  C    0.485108
   135  O   -0.522296
   136  C   -0.350803
   137  H    0.313931
   138  H    0.049713
   139  H    0.103400
   140  H    0.072489
   141  H    0.114998
   142  N   -0.485811
   143  C    0.179930
   144  C    0.310504
   145  O   -0.503080
   146  C   -0.297765
   147  H    0.290102
   148  H    0.070783
   149  H    0.074156
   150  H    0.100894
   151  H    0.076419
   152  N    0.167394
   153  C   -0.681761
   154  C    0.652872
   155  O   -0.578179
   156  C    0.464479
   157  C   -0.103376
   158  C    0.692384
   159  O   -0.646237
   160  O   -0.755271
   161  H    0.055395
   162  H    0.192765
   163  H    0.014049
   164  H   -0.266260
   165  H    0.009895
   166  H    0.044963
   167  N   -0.138804
   168  C   -0.254402
   169  H    0.109948
   170  H    0.088045
   171  H    0.086924
   172  H    0.161902
   173  Ca   1.604684
   174  O   -0.822129
   175  H    0.417977
   176  H    0.433143
 Sum of ESP charges =   0.00000

 Normal termination of Gaussian 16 at Sat Sep 14 23:57:14 2019.
