 Gaussian 09, Revision D.01,
 Gaussian 09:  ES64L-G09RevD.01 24-Apr-2013

 ----------------------------------------------------------------------
 #maxdisk=50GB #B3LYP/SVP Density=Current scf=(tight) #IOP(5/87=12)Pop=
 (MK,readradii) iop(6/33=2) iop(6/42=6)
 ----------------------------------------------------------------------

 ------------
 SOL molecule
 ------------
 Symbolic Z-matrix:
 Charge =  0 Multiplicity = 1

                         Standard orientation:
 ---------------------------------------------------------------------
 Center     Atomic      Atomic             Coordinates (Angstroms)
 Number     Number       Type             X           Y           Z
 ---------------------------------------------------------------------
      1          6           0        2.626163    1.802857    5.080188
      2          6           0        1.874250    1.871455    3.761165
      3          8           0        2.507436    1.865940    2.699259
      4          1           0        3.404014    2.566081    5.094827
      5          1           0        1.932678    1.975341    5.903306
      6          1           0        3.082632    0.819169    5.188348
      7          7           0        0.543031    1.849116    3.870509
      8          6           0       -0.237906    1.861645    2.648511
      9          6           0       -0.184603    3.287726    2.105417
     10          8           0       -1.008456    4.128001    2.441428
     11          6           0       -1.581433    1.220838    2.963635
     12          6           0       -2.542872    1.301067    1.795817
     13          8           0       -3.765627    1.144906    2.031365
     14          8           0       -2.065852    1.377490    0.642816
     15          1           0        0.133013    1.547126    4.744172
     16          1           0        0.227713    1.347666    1.809509
     17          1           0       -2.014892    1.693205    3.841805
     18          1           0       -1.509871    0.156535    3.214111
     19          7           0        0.696213    3.548723    1.138647
     20          6           0        1.166453    4.872983    0.755228
     21          6           0        0.125729    5.707332    0.027316
     22          8           0        0.075835    6.929996    0.083031
     23          6           0        2.464870    4.765119   -0.029743
     24          6           0        3.486042    5.817107    0.374520
     25          6           0        4.962238    5.617712    0.043330
     26          6           0        5.292427    5.853510   -1.432534
     27          7           0        6.703367    5.544877   -1.706202
     28          1           0        1.266773    2.803777    0.790197
     29          1           0        1.310203    5.421655    1.687320
     30          1           0        2.280825    4.831696   -1.109972
     31          1           0        2.913160    3.785173    0.133790
     32          1           0        3.409887    5.931554    1.459879
     33          1           0        3.075571    6.773864    0.042964
     34          1           0        5.360819    4.622914    0.237004
     35          1           0        5.481581    6.310502    0.710356
     36          1           0        4.993762    6.868532   -1.696973
     37          1           0        4.596377    5.243964   -2.011557
     38          1           0        6.802912    4.549377   -1.860057
     39          1           0        7.036594    5.950337   -2.562626
     40          1           0        7.343698    5.870399   -0.987445
     41          7           0       -0.794426    4.991625   -0.628563
     42          6           0       -1.858246    5.485522   -1.469428
     43          6           0       -3.270945    5.364873   -0.912539
     44          8           0       -4.187304    6.029378   -1.366431
     45          6           0       -1.786939    4.985332   -2.912108
     46          6           0       -1.900911    3.476723   -3.060468
     47          8           0       -2.041120    3.027864   -4.216222
     48          8           0       -1.851091    2.746167   -2.044394
     49          1           0       -0.625473    3.991390   -0.584024
     50          1           0       -1.770976    6.544080   -1.726212
     51          1           0       -0.880533    5.378543   -3.386674
     52          1           0       -2.604229    5.429684   -3.476986
     53          7           0       -3.358877    4.634612    0.201637
     54          6           0       -4.420595    4.404659    1.150782
     55          6           0       -5.436597    3.382354    0.643600
     56          8           0       -6.475002    3.182041    1.280852
     57          1           0       -2.616662    3.954476    0.327460
     58          1           0       -5.040328    5.290557    1.321708
     59          1           0       -4.039777    4.266570    2.161974
     60          7           0       -5.204471    2.676772   -0.462551
     61          6           0       -6.134780    1.807646   -1.170961
     62          6           0       -6.575542    0.584117   -0.390700
     63          8           0       -7.479896   -0.121474   -0.816475
     64          6           0       -5.497235    1.375565   -2.495591
     65          6           0       -4.870973   -0.010282   -2.490709
     66          7           0       -5.449578   -0.926961   -3.272895
     67          8           0       -3.838385   -0.270994   -1.871766
     68          1           0       -4.272923    2.777270   -0.814288
     69          1           0       -7.008366    2.408304   -1.393350
     70          1           0       -4.686704    2.060091   -2.732578
     71          1           0       -6.238211    1.508280   -3.280602
     72          1           0       -6.207919   -0.724447   -3.892901
     73          1           0       -4.987294   -1.792086   -3.527359
     74          7           0       -5.939800    0.280569    0.753673
     75          6           0       -6.364213   -0.775260    1.650166
     76          6           0       -5.534930   -2.050386    1.593215
     77          8           0       -5.746852   -2.958858    2.395193
     78          1           0       -5.132162    0.816780    1.022744
     79          1           0       -7.424791   -0.965395    1.466256
     80          1           0       -6.282596   -0.435286    2.682181
     81          7           0       -4.505696   -2.025121    0.741782
     82          6           0       -3.454656   -3.024869    0.675315
     83          6           0       -2.094422   -2.345879    0.698515
     84          8           0       -1.717870   -1.464640   -0.070982
     85          6           0       -3.697434   -3.789574   -0.619438
     86          6           0       -4.989459   -4.583271   -0.659662
     87          6           0       -5.013443   -5.871378   -0.106395
     88          6           0       -6.162965   -4.007823   -1.150216
     89          6           0       -6.195063   -6.624506   -0.130343
     90          6           0       -7.370044   -4.713649   -1.113219
     91          6           0       -7.386340   -6.016806   -0.574594
     92          8           0       -8.573542   -6.616847   -0.260263
     93          1           0       -4.434481   -1.273563    0.075006
     94          1           0       -3.487122   -3.767991    1.469869
     95          1           0       -2.895840   -4.510496   -0.721015
     96          1           0       -3.664151   -3.191676   -1.530651
     97          1           0       -4.125497   -6.264637    0.367945
     98          1           0       -6.149275   -2.993172   -1.523439
     99          1           0       -6.317069   -7.544356    0.409555
    100          1           0       -8.290922   -4.347645   -1.535860
    101          1           0       -9.358359   -6.129533   -0.538087
    102          7           0       -1.223870   -2.833735    1.581938
    103          6           0        0.210742   -2.639884    1.541828
    104          6           0        0.749105   -3.569761    0.471878
    105          8           0        0.573696   -4.787352    0.524848
    106          6           0        0.786105   -2.883687    2.934566
    107          6           0        0.186433   -1.925687    3.957078
    108          6           0        2.308386   -2.738083    2.942273
    109          6           0        0.492573   -2.202535    5.433640
    110          1           0       -1.485071   -3.556007    2.241784
    111          1           0        0.487021   -1.588094    1.500520
    112          1           0        0.523628   -3.887441    3.247907
    113          1           0       -0.889128   -2.049955    3.827363
    114          1           0        0.487648   -0.915276    3.677724
    115          1           0        2.656121   -1.783091    2.553080
    116          1           0        2.771350   -2.823696    3.929003
    117          1           0        2.717409   -3.559705    2.369265
    118          1           0        0.152121   -3.210123    5.689489
    119          1           0        1.553486   -2.145475    5.652059
    120          1           0        0.000281   -1.371850    5.946779
    121          7           0        1.587925   -2.953955   -0.369409
    122          6           0        2.524295   -3.675992   -1.198127
    123          6           0        3.883740   -3.990794   -0.590994
    124          8           0        4.206010   -3.469233    0.469533
    125          6           0        2.602722   -2.987704   -2.560995
    126          8           0        3.550654   -1.951861   -2.670322
    127          1           0        1.671554   -1.949072   -0.320242
    128          1           0        2.184290   -4.701065   -1.374821
    129          1           0        1.662973   -2.524350   -2.834080
    130          1           0        2.788575   -3.723025   -3.346718
    131          1           0        3.672370   -1.715386   -3.593883
    132          7           0        4.692169   -4.808085   -1.272887
    133          6           0        6.075214   -5.012231   -0.917346
    134          6           0        6.867046   -3.724717   -1.080472
    135          8           0        7.591669   -3.423660   -0.135228
    136          6           0        6.478395   -6.199746   -1.779815
    137          1           0        4.421308   -5.214302   -2.158619
    138          1           0        6.135242   -5.421415    0.094764
    139          1           0        5.948746   -7.106513   -1.481074
    140          1           0        6.185516   -6.031556   -2.823575
    141          1           0        7.554226   -6.378285   -1.652887
    142          7           0        6.797542   -2.971905   -2.184393
    143          6           0        7.586703   -1.761474   -2.297012
    144          6           0        7.318629   -0.647780   -1.294554
    145          8           0        8.280874    0.047244   -0.970941
    146          6           0        7.526864   -1.065190   -3.645087
    147          1           0        6.294853   -3.253364   -3.012756
    148          1           0        8.641186   -2.012911   -2.181492
    149          1           0        8.113951   -0.152394   -3.660342
    150          1           0        7.759143   -1.808904   -4.411466
    151          1           0        6.511289   -0.682611   -3.724716
    152          7           0        6.092292   -0.688774   -0.762656
    153          6           0        5.611825    0.231425    0.252029
    154          6           0        6.108049   -0.120845    1.653231
    155          8           0        6.407836    0.768732    2.446629
    156          6           0        4.088315    0.192609    0.195384
    157          6           0        3.526247    0.874193   -1.039332
    158          6           0        2.005625    0.822854   -1.170374
    159          8           0        1.264045    1.833863   -1.185191
    160          8           0        1.464522   -0.301166   -1.057293
    161          1           0        5.459691   -1.404274   -1.090187
    162          1           0        5.867520    1.278296    0.061549
    163          1           0        3.750607    0.637447    1.131638
    164          1           0        3.769893   -0.846504    0.146897
    165          1           0        3.925652    0.436111   -1.950134
    166          1           0        3.858546    1.911647   -0.988683
    167          7           0        6.134749   -1.416618    1.967810
    168          6           0        6.740901   -1.936488    3.182394
    169          1           0        7.825774   -1.878552    3.099700
    170          1           0        6.410566   -1.344914    4.035900
    171          1           0        6.442221   -2.975529    3.321767
    172          1           0        5.694775   -2.088767    1.362221
    173         20           0       -0.959017    0.489554   -1.592287
    174          8           0       -1.597268   -1.508569   -3.145071
    175          1           0       -2.221315   -1.454970   -3.862492
    176          1           0       -1.379213   -2.439224   -3.084799
 ---------------------------------------------------------------------

 SCF Done:  E(RB3LYP) =  -5333.57233185     A.U. after   18 cycles

 The electronic state is 1-A.
 Alpha  occ. eigenvalues -- -145.36862 -19.19313 -19.18201 -19.14272 -19.13808
 Alpha  occ. eigenvalues --  -19.12288 -19.11159 -19.10871 -19.10588 -19.10358
 Alpha  occ. eigenvalues --  -19.09891 -19.09408 -19.09353 -19.07871 -19.06728
 Alpha  occ. eigenvalues --  -19.06080 -19.04691 -19.04340 -19.04287 -19.03980
 Alpha  occ. eigenvalues --  -19.03354 -19.02497 -19.01780 -19.01451 -15.42666
 Alpha  occ. eigenvalues --  -14.59174 -14.39746 -14.39670 -14.36596 -14.35995
 Alpha  occ. eigenvalues --  -14.35941 -14.35412 -14.35317 -14.33405 -14.32525
 Alpha  occ. eigenvalues --  -14.31300 -14.30795 -14.29434 -14.29295 -14.27908
 Alpha  occ. eigenvalues --  -12.56285 -12.56239 -12.56211 -10.34625 -10.32186
 Alpha  occ. eigenvalues --  -10.31372 -10.29339 -10.29303 -10.29248 -10.28765
 Alpha  occ. eigenvalues --  -10.28750 -10.27934 -10.27892 -10.27278 -10.26802
 Alpha  occ. eigenvalues --  -10.26547 -10.26336 -10.25306 -10.25076 -10.24636
 Alpha  occ. eigenvalues --  -10.23610 -10.23307 -10.23271 -10.23134 -10.22905
 Alpha  occ. eigenvalues --  -10.22828 -10.22675 -10.22592 -10.22560 -10.22318
 Alpha  occ. eigenvalues --  -10.22293 -10.22045 -10.21979 -10.21898 -10.20718
 Alpha  occ. eigenvalues --  -10.20692 -10.20662 -10.20152 -10.19565 -10.19152
 Alpha  occ. eigenvalues --  -10.18851 -10.18557 -10.18090 -10.18068 -10.18026
 Alpha  occ. eigenvalues --  -10.17961 -10.17865 -10.17505 -10.17299 -10.17119
 Alpha  occ. eigenvalues --  -10.17080 -10.17004 -10.16913 -10.16730 -10.16692
 Alpha  occ. eigenvalues --  -10.15427 -10.14016  -1.79543  -1.14189  -1.07444
 Alpha  occ. eigenvalues --   -1.07307  -1.07191  -1.06919  -1.06206  -1.05611
 Alpha  occ. eigenvalues --   -1.05167  -1.04362  -1.04136  -1.03228  -1.02885
 Alpha  occ. eigenvalues --   -1.02800  -1.02605  -1.02040  -1.00606  -1.00206
 Alpha  occ. eigenvalues --   -0.98864  -0.97989  -0.97582  -0.97382  -0.97129
 Alpha  occ. eigenvalues --   -0.97036  -0.96961  -0.95740  -0.95666  -0.93962
 Alpha  occ. eigenvalues --   -0.93597  -0.92984  -0.92941  -0.91928  -0.90658
 Alpha  occ. eigenvalues --   -0.90384  -0.89615  -0.89000  -0.88546  -0.88094
 Alpha  occ. eigenvalues --   -0.87420  -0.87233  -0.86877  -0.85749  -0.84811
 Alpha  occ. eigenvalues --   -0.82847  -0.82822  -0.81824  -0.81093  -0.81041
 Alpha  occ. eigenvalues --   -0.79542  -0.78482  -0.76998  -0.76916  -0.75705
 Alpha  occ. eigenvalues --   -0.75458  -0.74308  -0.73853  -0.73433  -0.73191
 Alpha  occ. eigenvalues --   -0.72374  -0.72179  -0.71763  -0.71155  -0.70419
 Alpha  occ. eigenvalues --   -0.69700  -0.68947  -0.68656  -0.68358  -0.68029
 Alpha  occ. eigenvalues --   -0.67401  -0.66470  -0.65107  -0.64700  -0.63896
 Alpha  occ. eigenvalues --   -0.63822  -0.63769  -0.63346  -0.62840  -0.62637
 Alpha  occ. eigenvalues --   -0.62229  -0.60867  -0.60639  -0.60629  -0.60313
 Alpha  occ. eigenvalues --   -0.59785  -0.59502  -0.59263  -0.58598  -0.58083
 Alpha  occ. eigenvalues --   -0.57181  -0.57021  -0.56942  -0.56731  -0.56580
 Alpha  occ. eigenvalues --   -0.55778  -0.55458  -0.54920  -0.54773  -0.54517
 Alpha  occ. eigenvalues --   -0.54376  -0.53501  -0.53450  -0.53010  -0.52821
 Alpha  occ. eigenvalues --   -0.52511  -0.52426  -0.52377  -0.51990  -0.51930
 Alpha  occ. eigenvalues --   -0.51600  -0.51248  -0.50910  -0.50257  -0.50191
 Alpha  occ. eigenvalues --   -0.49910  -0.49323  -0.49058  -0.48713  -0.48573
 Alpha  occ. eigenvalues --   -0.48401  -0.48200  -0.47998  -0.47717  -0.47531
 Alpha  occ. eigenvalues --   -0.47225  -0.47128  -0.46708  -0.46670  -0.46501
 Alpha  occ. eigenvalues --   -0.46289  -0.45981  -0.45796  -0.45692  -0.45564
 Alpha  occ. eigenvalues --   -0.45462  -0.45309  -0.44943  -0.44868  -0.44686
 Alpha  occ. eigenvalues --   -0.44636  -0.44549  -0.44207  -0.43991  -0.43906
 Alpha  occ. eigenvalues --   -0.43845  -0.43522  -0.43490  -0.43249  -0.42949
 Alpha  occ. eigenvalues --   -0.42916  -0.42748  -0.42582  -0.42188  -0.42163
 Alpha  occ. eigenvalues --   -0.41878  -0.41747  -0.41673  -0.41578  -0.41270
 Alpha  occ. eigenvalues --   -0.40991  -0.40938  -0.40799  -0.40777  -0.40582
 Alpha  occ. eigenvalues --   -0.40284  -0.40114  -0.39963  -0.39906  -0.39861
 Alpha  occ. eigenvalues --   -0.39681  -0.39576  -0.39302  -0.39199  -0.39008
 Alpha  occ. eigenvalues --   -0.38928  -0.38898  -0.38807  -0.38751  -0.38461
 Alpha  occ. eigenvalues --   -0.38336  -0.38125  -0.38061  -0.37884  -0.37778
 Alpha  occ. eigenvalues --   -0.37715  -0.37634  -0.37434  -0.37388  -0.36959
 Alpha  occ. eigenvalues --   -0.36749  -0.36689  -0.36600  -0.36429  -0.36331
 Alpha  occ. eigenvalues --   -0.36135  -0.36005  -0.35915  -0.35787  -0.35586
 Alpha  occ. eigenvalues --   -0.35361  -0.35264  -0.35174  -0.34843  -0.34594
 Alpha  occ. eigenvalues --   -0.34400  -0.34347  -0.34133  -0.34092  -0.33824
 Alpha  occ. eigenvalues --   -0.33383  -0.33206  -0.32930  -0.32764  -0.32348
 Alpha  occ. eigenvalues --   -0.32162  -0.32012  -0.31857  -0.31481  -0.31240
 Alpha  occ. eigenvalues --   -0.31173  -0.31005  -0.30704  -0.30221  -0.30172
 Alpha  occ. eigenvalues --   -0.29467  -0.29290  -0.28652  -0.28490  -0.28372
 Alpha  occ. eigenvalues --   -0.28055  -0.27707  -0.27352  -0.27224  -0.27042
 Alpha  occ. eigenvalues --   -0.26649  -0.26010  -0.25932  -0.25704  -0.25357
 Alpha  occ. eigenvalues --   -0.25054  -0.24275  -0.23961  -0.23881  -0.23655
 Alpha  occ. eigenvalues --   -0.23323  -0.22992  -0.22432  -0.22005  -0.21863
 Alpha  occ. eigenvalues --   -0.21663  -0.21455  -0.21187  -0.20622  -0.20342
 Alpha  occ. eigenvalues --   -0.20141  -0.19949  -0.19223  -0.19103  -0.18811
 Alpha  occ. eigenvalues --   -0.18114  -0.17521  -0.17467
 Alpha virt. eigenvalues --   -0.10735  -0.05341  -0.04543  -0.03435  -0.02352
 Alpha virt. eigenvalues --   -0.02094  -0.01393  -0.01137   0.00017   0.00141
 Alpha virt. eigenvalues --    0.00341   0.00850   0.01032   0.01382   0.01734

 Mulliken charges:
               1
     1  C    0.070756
     2  C    0.034768
     3  O   -0.299404
     4  H    0.036288
     5  H   -0.004842
     6  H    0.043037
     7  N   -0.126458
     8  C    0.100342
     9  C    0.049178
    10  O   -0.267869
    11  C    0.082657
    12  C    0.154268
    13  O   -0.380737
    14  O   -0.454832
    15  H    0.133100
    16  H   -0.006878
    17  H   -0.001039
    18  H    0.003872
    19  N   -0.124488
    20  C    0.086558
    21  C    0.031304
    22  O   -0.278529
    23  C    0.079249
    24  C   -0.015340
    25  C   -0.010155
    26  C   -0.003353
    27  N    0.090398
    28  H    0.149716
    29  H    0.009291
    30  H    0.004543
    31  H    0.018217
    32  H    0.020553
    33  H    0.021300
    34  H    0.028519
    35  H    0.031529
    36  H    0.075547
    37  H    0.087426
    38  H    0.203898
    39  H    0.181762
    40  H    0.199485
    41  N   -0.125156
    42  C    0.140960
    43  C    0.046815
    44  O   -0.264755
    45  C    0.021092
    46  C    0.131397
    47  O   -0.381454
    48  O   -0.489459
    49  H    0.150065
    50  H    0.007361
    51  H   -0.010628
    52  H    0.020372
    53  N   -0.179080
    54  C    0.229262
    55  C    0.030641
    56  O   -0.311922
    57  H    0.158925
    58  H    0.016142
    59  H    0.044366
    60  N   -0.151288
    61  C    0.148730
    62  C    0.040809
    63  O   -0.304767
    64  C    0.121356
    65  C    0.035127
    66  N   -0.027636
    67  O   -0.299885
    68  H    0.130945
    69  H    0.020549
    70  H    0.049689
    71  H   -0.009118
    72  H    0.120227
    73  H    0.109807
    74  N   -0.169853
    75  C    0.235776
    76  C    0.034019
    77  O   -0.301578
    78  H    0.154376
    79  H    0.026034
    80  H    0.033499
    81  N   -0.164264
    82  C    0.158424
    83  C    0.183331
    84  O   -0.357761
    85  C    0.131896
    86  C   -0.029814
    87  C    0.001307
    88  C    0.001488
    89  C   -0.000654
    90  C   -0.023805
    91  C    0.141051
    92  O   -0.212105
    93  H    0.161829
    94  H   -0.011955
    95  H   -0.029023
    96  H   -0.039117
    97  H   -0.033843
    98  H   -0.035066
    99  H   -0.025776
   100  H   -0.044051
   101  H    0.176063
   102  N   -0.129518
   103  C    0.100496
   104  C    0.107953
   105  O   -0.284839
   106  C   -0.112797
   107  C   -0.032521
   108  C    0.055726
   109  C    0.057902
   110  H    0.135489
   111  H    0.015424
   112  H   -0.024112
   113  H    0.013033
   114  H   -0.001074
   115  H    0.012161
   116  H   -0.006790
   117  H    0.024797
   118  H    0.014443
   119  H    0.003863
   120  H    0.010873
   121  N   -0.132882
   122  C    0.101279
   123  C    0.103571
   124  O   -0.259899
   125  C    0.227670
   126  O   -0.304329
   127  H    0.165186
   128  H    0.021431
   129  H   -0.006521
   130  H   -0.027787
   131  H    0.176622
   132  N   -0.139736
   133  C    0.104068
   134  C    0.078077
   135  O   -0.247774
   136  C    0.016626
   137  H    0.111460
   138  H    0.028563
   139  H    0.039393
   140  H   -0.006396
   141  H    0.044893
   142  N   -0.121360
   143  C    0.069153
   144  C    0.048859
   145  O   -0.279555
   146  C    0.060756
   147  H    0.096710
   148  H    0.022556
   149  H    0.028101
   150  H    0.022544
   151  H   -0.022746
   152  N   -0.145529
   153  C    0.118976
   154  C    0.080028
   155  O   -0.280277
   156  C   -0.050920
   157  C    0.144508
   158  C    0.124208
   159  O   -0.397556
   160  O   -0.448340
   161  H    0.149049
   162  H   -0.046534
   163  H    0.055812
   164  H    0.005144
   165  H   -0.030360
   166  H   -0.064430
   167  N   -0.168427
   168  C    0.146262
   169  H    0.026265
   170  H    0.021763
   171  H    0.014408
   172  H    0.133496
   173  Ca   1.317043
   174  O   -0.285870
   175  H    0.181668
   176  H    0.187013
 Sum of Mulliken charges =   0.00000

 Dipole moment (field-independent basis, Debye):
    X=             36.4920    Y=             -3.0317    Z=            -17.8682  Tot=             40.7447
 Quadrupole moment (field-independent basis, Debye-Ang):
   XX=           -542.4086   YY=           -522.7214   ZZ=           -505.8474
   XY=            149.4533   XZ=            -48.9928   YZ=             13.9116

 ESP charges:
               1
     1  C   -0.411071
     2  C    0.748304
     3  O   -0.624457
     4  H    0.126751
     5  H    0.077011
     6  H    0.124596
     7  N   -0.735218
     8  C    0.480748
     9  C    0.328436
    10  O   -0.493778
    11  C   -0.458880
    12  C    1.016462
    13  O   -0.722163
    14  O   -0.938484
    15  H    0.387609
    16  H   -0.064703
    17  H    0.088417
    18  H    0.095480
    19  N    0.095846
    20  C   -0.551783
    21  C    0.788113
    22  O   -0.594441
    23  C    0.067622
    24  C    0.004160
    25  C   -0.114618
    26  C    0.162657
    27  N   -0.487158
    28  H    0.192437
    29  H    0.170171
    30  H    0.025005
    31  H    0.044748
    32  H    0.057184
    33  H    0.022171
    34  H    0.043229
    35  H    0.048908
    36  H    0.058879
    37  H    0.053322
    38  H    0.369637
    39  H    0.349804
    40  H    0.360892
    41  N   -0.644839
    42  C    0.255394
    43  C    0.371874
    44  O   -0.547730
    45  C   -0.205068
    46  C    0.746301
    47  O   -0.702825
    48  O   -0.851184
    49  H    0.413389
    50  H    0.047638
    51  H    0.042448
    52  H    0.071269
    53  N    0.066945
    54  C   -0.298130
    55  C    0.673379
    56  O   -0.604471
    57  H   -0.134396
    58  H    0.120446
    59  H    0.169694
    60  N   -0.627223
    61  C    0.334898
    62  C    0.181652
    63  O   -0.536133
    64  C   -0.445631
    65  C    0.672050
    66  N   -0.760409
    67  O   -0.545120
    68  H    0.376052
    69  H    0.072367
    70  H    0.184491
    71  H    0.116413
    72  H    0.369171
    73  H    0.332416
    74  N    0.305920
    75  C   -0.651682
    76  C    0.784037
    77  O   -0.582997
    78  H    0.132704
    79  H    0.205336
    80  H    0.185949
    81  N   -0.520197
    82  C    0.273362
    83  C    0.445050
    84  O   -0.520070
    85  C    0.089729
    86  C   -0.148641
    87  C   -0.002482
    88  C   -0.108203
    89  C   -0.372381
    90  C   -0.286935
    91  C    0.421772
    92  O   -0.561325
    93  H    0.252165
    94  H    0.013351
    95  H   -0.028089
    96  H   -0.014674
    97  H    0.097023
    98  H    0.160975
    99  H    0.187982
   100  H    0.121104
   101  H    0.414267
   102  N   -0.559214
   103  C   -0.017627
   104  C    0.626440
   105  O   -0.561822
   106  C    0.115297
   107  C    0.270987
   108  C   -0.239656
   109  C   -0.397353
   110  H    0.317300
   111  H    0.114722
   112  H   -0.009642
   113  H   -0.032190
   114  H   -0.042914
   115  H    0.038215
   116  H    0.060499
   117  H    0.071986
   118  H    0.096838
   119  H    0.090100
   120  H    0.078451
   121  N   -0.558728
   122  C    0.240056
   123  C    0.584348
   124  O   -0.458371
   125  C   -0.059233
   126  O   -0.382437
   127  H    0.397081
   128  H    0.018458
   129  H    0.082643
   130  H    0.020113
   131  H    0.359805
   132  N   -0.598546
   133  C    0.301562
   134  C    0.466189
   135  O   -0.521597
   136  C   -0.387263
   137  H    0.317251
   138  H    0.067661
   139  H    0.130414
   140  H    0.075524
   141  H    0.116100
   142  N   -0.487409
   143  C    0.357491
   144  C    0.292308
   145  O   -0.527668
   146  C   -0.459233
   147  H    0.286413
   148  H    0.041103
   149  H    0.144617
   150  H    0.113147
   151  H    0.089964
   152  N    0.352574
   153  C   -0.680641
   154  C    0.680598
   155  O   -0.572543
   156  C    0.711978
   157  C   -0.325468
   158  C    0.805720
   159  O   -0.785522
   160  O   -0.802446
   161  H   -0.293264
   162  H    0.155628
   163  H   -0.036585
   164  H   -0.320255
   165  H    0.050222
   166  H    0.016940
   167  N   -0.188990
   168  C   -0.238121
   169  H    0.107635
   170  H    0.091139
   171  H    0.099584
   172  H    0.218064
   173  Ca   1.689271
   174  O   -0.891234
   175  H    0.450132
   176  H    0.423392
 Sum of ESP charges =   0.00000

 Normal termination of Gaussian 09 at Mon Sep 16 12:13:34 2019.
