 Gaussian 09, Revision D.01,
 Gaussian 09:  ES64L-G09RevD.01 24-Apr-2013

 ----------------------------------------------------------------------
 #maxdisk=50GB #B3LYP/SVP Density=Current scf=(tight) #IOP(5/87=12)Pop=
 (MK,readradii) iop(6/33=2) iop(6/42=6)
 ----------------------------------------------------------------------

 ------------
 SOL molecule
 ------------
 Symbolic Z-matrix:
 Charge =  0 Multiplicity = 1

                         Standard orientation:
 ---------------------------------------------------------------------
 Center     Atomic      Atomic             Coordinates (Angstroms)
 Number     Number       Type             X           Y           Z
 ---------------------------------------------------------------------
      1          6           0        2.419495    2.215446    4.811500
      2          6           0        1.668575    2.332518    3.489830
      3          8           0        2.317584    2.564143    2.474873
      4          1           0        3.435893    1.868960    4.621637
      5          1           0        2.453555    3.189617    5.298514
      6          1           0        1.908116    1.502424    5.459219
      7          7           0        0.339688    2.334393    3.548625
      8          6           0       -0.556053    2.281214    2.415214
      9          6           0       -0.708121    3.686469    1.857061
     10          8           0       -1.644679    4.380504    2.258774
     11          6           0       -1.815128    1.522024    2.839666
     12          6           0       -2.808729    1.423169    1.700156
     13          8           0       -4.022905    1.574662    1.962312
     14          8           0       -2.348546    1.221302    0.550555
     15          1           0       -0.210312    2.399354    4.393776
     16          1           0       -0.077966    1.657051    1.665045
     17          1           0       -2.254582    2.099190    3.649826
     18          1           0       -1.624560    0.509846    3.197548
     19          7           0        0.185931    4.119480    0.960416
     20          6           0        0.212065    5.422821    0.339353
     21          6           0       -1.072488    5.726722   -0.410626
     22          8           0       -1.598099    6.831077   -0.280502
     23          6           0        1.471645    5.514356   -0.520111
     24          6           0        2.706051    5.784220    0.328249
     25          6           0        3.973786    5.635974   -0.505940
     26          6           0        5.185905    6.366226    0.072333
     27          7           0        5.064720    7.815944   -0.117487
     28          1           0        0.926251    3.492980    0.692977
     29          1           0        0.386597    6.215867    1.076589
     30          1           0        1.425102    6.288770   -1.277023
     31          1           0        1.584703    4.647072   -1.183991
     32          1           0        2.753054    4.966723    1.056115
     33          1           0        2.722532    6.791450    0.734963
     34          1           0        3.755438    5.995998   -1.518515
     35          1           0        4.251886    4.588958   -0.570106
     36          1           0        6.041534    6.040364   -0.525591
     37          1           0        5.445304    6.049905    1.082706
     38          1           0        5.977053    8.232432   -0.183714
     39          1           0        4.487220    8.113149   -0.897976
     40          1           0        4.825831    8.182246    0.791718
     41          7           0       -1.499364    4.768088   -1.236761
     42          6           0       -2.532885    4.946921   -2.241377
     43          6           0       -3.847265    4.637770   -1.545438
     44          8           0       -4.847784    4.717916   -2.258556
     45          6           0       -2.289725    3.973844   -3.396970
     46          6           0       -1.845617    2.574077   -3.007586
     47          8           0       -0.699963    2.372889   -2.536097
     48          8           0       -2.729125    1.691678   -2.931514
     49          1           0       -1.053833    3.869454   -1.229166
     50          1           0       -2.516483    6.003270   -2.496243
     51          1           0       -1.456545    4.426829   -3.942053
     52          1           0       -3.051518    3.826633   -4.171889
     53          7           0       -3.904507    4.303480   -0.255216
     54          6           0       -5.181537    4.136496    0.416357
     55          6           0       -6.050057    2.967495   -0.011788
     56          8           0       -7.262355    3.122375    0.080119
     57          1           0       -3.105006    4.214711    0.353896
     58          1           0       -5.793571    5.034204    0.283559
     59          1           0       -5.038317    3.973512    1.486649
     60          7           0       -5.509340    1.882649   -0.563090
     61          6           0       -6.221898    0.764225   -1.167068
     62          6           0       -6.597137   -0.329558   -0.170357
     63          8           0       -7.350879   -1.231126   -0.507920
     64          6           0       -5.571298    0.240246   -2.434927
     65          6           0       -4.499884   -0.826077   -2.261648
     66          7           0       -4.302632   -1.732732   -3.227292
     67          8           0       -3.811850   -0.803167   -1.241558
     68          1           0       -4.567486    1.685135   -0.275863
     69          1           0       -7.171629    1.230700   -1.440220
     70          1           0       -5.160484    1.090638   -2.966778
     71          1           0       -6.373818   -0.229382   -3.011130
     72          1           0       -4.830283   -1.746951   -4.082150
     73          1           0       -3.455848   -2.292321   -3.179156
     74          7           0       -6.054360   -0.229146    1.042331
     75          6           0       -6.176181   -1.257869    2.060167
     76          6           0       -5.164311   -2.400720    2.056816
     77          8           0       -5.289231   -3.401000    2.763877
     78          1           0       -5.393036    0.517079    1.206033
     79          1           0       -7.188016   -1.648916    2.138725
     80          1           0       -5.940968   -0.825668    3.034065
     81          7           0       -4.136609   -2.337118    1.224781
     82          6           0       -3.103117   -3.353975    1.127847
     83          6           0       -1.718366   -2.755147    0.953574
     84          8           0       -1.493806   -1.765718    0.253858
     85          6           0       -3.390844   -4.190254   -0.125449
     86          6           0       -4.792838   -4.732124   -0.232171
     87          6           0       -5.198623   -5.956995    0.318129
     88          6           0       -5.736019   -4.079081   -1.040159
     89          6           0       -6.463121   -6.497485    0.077269
     90          6           0       -7.057677   -4.505970   -1.181886
     91          6           0       -7.434174   -5.743642   -0.612134
     92          8           0       -8.693320   -6.220092   -0.844613
     93          1           0       -4.066492   -1.512924    0.633436
     94          1           0       -3.044177   -3.883130    2.078910
     95          1           0       -2.641538   -4.968994   -0.249562
     96          1           0       -3.138251   -3.578557   -0.987437
     97          1           0       -4.450412   -6.523200    0.849628
     98          1           0       -5.451120   -3.101302   -1.391129
     99          1           0       -6.695886   -7.435430    0.555892
    100          1           0       -7.751336   -3.809231   -1.647924
    101          1           0       -9.236729   -5.654861   -1.392080
    102          7           0       -0.624324   -3.376099    1.396169
    103          6           0        0.700890   -2.799693    1.574391
    104          6           0        1.689243   -3.683948    0.815279
    105          8           0        1.748232   -4.879205    1.081135
    106          6           0        1.062964   -2.776931    3.054318
    107          6           0        0.302020   -1.694476    3.812247
    108          6           0        2.554357   -2.638116    3.367811
    109          6           0        0.204806   -1.897847    5.320786
    110          1           0       -0.747130   -4.298487    1.781161
    111          1           0        0.751531   -1.764826    1.258976
    112          1           0        0.830936   -3.728778    3.543245
    113          1           0       -0.714743   -1.692659    3.421621
    114          1           0        0.704331   -0.709771    3.607791
    115          1           0        2.883672   -1.628474    3.114881
    116          1           0        2.907008   -2.753083    4.390855
    117          1           0        3.246618   -3.313821    2.862739
    118          1           0        1.212631   -2.055319    5.725250
    119          1           0       -0.324265   -1.062608    5.767397
    120          1           0       -0.344665   -2.833593    5.388322
    121          7           0        2.242236   -3.174138   -0.283307
    122          6           0        3.217973   -3.910915   -1.075453
    123          6           0        4.657206   -3.975076   -0.585664
    124          8           0        5.017377   -3.263624    0.358164
    125          6           0        3.183953   -3.205908   -2.431553
    126          8           0        3.414172   -1.822954   -2.299881
    127          1           0        1.859620   -2.293873   -0.572511
    128          1           0        2.868525   -4.923795   -1.262165
    129          1           0        2.278544   -3.346733   -3.032306
    130          1           0        3.950652   -3.655410   -3.054064
    131          1           0        2.659894   -1.461243   -1.825823
    132          7           0        5.521355   -4.685244   -1.295106
    133          6           0        6.920495   -4.703554   -0.915273
    134          6           0        7.523733   -3.315477   -1.084816
    135          8           0        8.292194   -2.855100   -0.237219
    136          6           0        7.627508   -5.740366   -1.772742
    137          1           0        5.219154   -5.131235   -2.156654
    138          1           0        7.033849   -5.116767    0.081575
    139          1           0        7.179014   -6.729359   -1.696928
    140          1           0        7.617847   -5.552043   -2.847517
    141          1           0        8.645900   -5.784350   -1.371189
    142          7           0        7.192830   -2.534783   -2.113757
    143          6           0        7.867955   -1.288364   -2.392228
    144          6           0        7.353199   -0.208275   -1.451306
    145          8           0        8.124742    0.653167   -1.033288
    146          6           0        7.694782   -1.022389   -3.884296
    147          1           0        6.664227   -2.901126   -2.890463
    148          1           0        8.950737   -1.378522   -2.251677
    149          1           0        8.236590   -1.740521   -4.494075
    150          1           0        6.637784   -0.947783   -4.125312
    151          1           0        8.118510   -0.044096   -4.089230
    152          7           0        6.110782   -0.307647   -0.972425
    153          6           0        5.557287    0.525903    0.075351
    154          6           0        6.179680    0.505206    1.458608
    155          8           0        6.286386    1.459492    2.224148
    156          6           0        4.052708    0.325643    0.203957
    157          6           0        3.198708    1.147880   -0.760620
    158          6           0        1.749622    0.700465   -0.688009
    159          8           0        0.853072    1.480828   -0.279438
    160          8           0        1.532653   -0.461698   -1.095319
    161          1           0        5.565205   -1.000986   -1.470949
    162          1           0        5.722128    1.565174   -0.203473
    163          1           0        3.807939    0.553172    1.246606
    164          1           0        3.891792   -0.750165    0.103243
    165          1           0        3.604972    1.004234   -1.759878
    166          1           0        3.287156    2.143846   -0.325730
    167          7           0        6.589448   -0.711950    1.834801
    168          6           0        7.278683   -0.967068    3.081384
    169          1           0        8.296772   -1.295531    2.872045
    170          1           0        7.307192   -0.053704    3.675027
    171          1           0        6.753060   -1.745591    3.634955
    172          1           0        6.235603   -1.478274    1.282315
    173         20           0       -1.142694    0.140297   -1.421233
    174          8           0        0.069083   -0.171555   -3.821117
    175          1           0        0.270479    0.601869   -4.335078
    176          1           0        0.437127   -0.900139   -4.335518
 ---------------------------------------------------------------------

 SCF Done:  E(RB3LYP) =  -5333.59885631     A.U. after   19 cycles

 The electronic state is 1-A.
 Alpha  occ. eigenvalues -- -145.36477 -19.17751 -19.13704 -19.13513 -19.12241
 Alpha  occ. eigenvalues --  -19.11326 -19.10744 -19.10471 -19.10350 -19.09872
 Alpha  occ. eigenvalues --  -19.08922 -19.08570 -19.08353 -19.07541 -19.06974
 Alpha  occ. eigenvalues --  -19.06963 -19.06493 -19.06024 -19.05164 -19.04928
 Alpha  occ. eigenvalues --  -19.04366 -19.03751 -19.03136 -19.02707 -15.42204
 Alpha  occ. eigenvalues --  -14.59002 -14.38956 -14.37155 -14.36787 -14.36545
 Alpha  occ. eigenvalues --  -14.35767 -14.34501 -14.34493 -14.33289 -14.31915
 Alpha  occ. eigenvalues --  -14.31895 -14.31621 -14.30201 -14.30004 -14.28298
 Alpha  occ. eigenvalues --  -12.55825 -12.55791 -12.55756 -10.34678 -10.30849
 Alpha  occ. eigenvalues --  -10.29934 -10.29540 -10.29434 -10.28323 -10.28028
 Alpha  occ. eigenvalues --  -10.27780 -10.27170 -10.26851 -10.26349 -10.26041
 Alpha  occ. eigenvalues --  -10.26026 -10.25723 -10.25510 -10.25375 -10.25224
 Alpha  occ. eigenvalues --  -10.24213 -10.24198 -10.23688 -10.23527 -10.23443
 Alpha  occ. eigenvalues --  -10.23300 -10.22923 -10.22740 -10.22732 -10.22561
 Alpha  occ. eigenvalues --  -10.21942 -10.21720 -10.21647 -10.21525 -10.20943
 Alpha  occ. eigenvalues --  -10.20608 -10.19793 -10.19298 -10.19033 -10.18921
 Alpha  occ. eigenvalues --  -10.18778 -10.18546 -10.18283 -10.17857 -10.17718
 Alpha  occ. eigenvalues --  -10.17331 -10.17312 -10.17169 -10.16761 -10.16540
 Alpha  occ. eigenvalues --  -10.16477 -10.16387 -10.16372 -10.16103 -10.15804
 Alpha  occ. eigenvalues --  -10.15679 -10.15435  -1.79104  -1.14519  -1.06850
 Alpha  occ. eigenvalues --   -1.06776  -1.06541  -1.05744  -1.04762  -1.04141
 Alpha  occ. eigenvalues --   -1.03800  -1.03645  -1.03503  -1.03132  -1.02416
 Alpha  occ. eigenvalues --   -1.02017  -1.01905  -1.01454  -1.01184  -1.00563
 Alpha  occ. eigenvalues --   -0.99729  -0.99455  -0.98816  -0.98137  -0.97935
 Alpha  occ. eigenvalues --   -0.97084  -0.95830  -0.95620  -0.94173  -0.93708
 Alpha  occ. eigenvalues --   -0.92800  -0.92536  -0.91480  -0.91265  -0.91231
 Alpha  occ. eigenvalues --   -0.91052  -0.90801  -0.89403  -0.88889  -0.88585
 Alpha  occ. eigenvalues --   -0.88564  -0.88153  -0.87450  -0.86146  -0.85253
 Alpha  occ. eigenvalues --   -0.82101  -0.81988  -0.81980  -0.81356  -0.79322
 Alpha  occ. eigenvalues --   -0.78165  -0.77586  -0.77175  -0.77037  -0.75755
 Alpha  occ. eigenvalues --   -0.75159  -0.74990  -0.74140  -0.73626  -0.72342
 Alpha  occ. eigenvalues --   -0.71758  -0.71440  -0.71155  -0.71015  -0.70087
 Alpha  occ. eigenvalues --   -0.68988  -0.68937  -0.68596  -0.67731  -0.67693
 Alpha  occ. eigenvalues --   -0.66773  -0.65761  -0.64954  -0.64437  -0.64221
 Alpha  occ. eigenvalues --   -0.63833  -0.63406  -0.62329  -0.62216  -0.61902
 Alpha  occ. eigenvalues --   -0.61650  -0.60822  -0.60582  -0.59820  -0.59553
 Alpha  occ. eigenvalues --   -0.59304  -0.58874  -0.58160  -0.57774  -0.57171
 Alpha  occ. eigenvalues --   -0.57040  -0.56907  -0.56824  -0.56602  -0.55553
 Alpha  occ. eigenvalues --   -0.55276  -0.55081  -0.54874  -0.54805  -0.54418
 Alpha  occ. eigenvalues --   -0.53851  -0.53492  -0.53251  -0.52893  -0.52723
 Alpha  occ. eigenvalues --   -0.52618  -0.52275  -0.52234  -0.52050  -0.51660
 Alpha  occ. eigenvalues --   -0.51244  -0.50803  -0.50151  -0.49958  -0.49841
 Alpha  occ. eigenvalues --   -0.49577  -0.49470  -0.48941  -0.48762  -0.48639
 Alpha  occ. eigenvalues --   -0.48164  -0.47994  -0.47651  -0.47358  -0.47101
 Alpha  occ. eigenvalues --   -0.46908  -0.46691  -0.46501  -0.46435  -0.46187
 Alpha  occ. eigenvalues --   -0.45906  -0.45507  -0.45380  -0.45125  -0.45112
 Alpha  occ. eigenvalues --   -0.44797  -0.44711  -0.44589  -0.44550  -0.44330
 Alpha  occ. eigenvalues --   -0.44054  -0.43928  -0.43711  -0.43633  -0.43333
 Alpha  occ. eigenvalues --   -0.43112  -0.43007  -0.42815  -0.42734  -0.42587
 Alpha  occ. eigenvalues --   -0.42147  -0.42010  -0.41967  -0.41820  -0.41705
 Alpha  occ. eigenvalues --   -0.41570  -0.41496  -0.41322  -0.41274  -0.41068
 Alpha  occ. eigenvalues --   -0.41003  -0.40712  -0.40655  -0.40572  -0.40399
 Alpha  occ. eigenvalues --   -0.40317  -0.40097  -0.40039  -0.39981  -0.39826
 Alpha  occ. eigenvalues --   -0.39633  -0.39495  -0.39428  -0.39327  -0.39267
 Alpha  occ. eigenvalues --   -0.38961  -0.38906  -0.38756  -0.38613  -0.38497
 Alpha  occ. eigenvalues --   -0.38255  -0.38070  -0.38058  -0.37969  -0.37899
 Alpha  occ. eigenvalues --   -0.37679  -0.37613  -0.37356  -0.37120  -0.36882
 Alpha  occ. eigenvalues --   -0.36826  -0.36686  -0.36662  -0.36411  -0.36050
 Alpha  occ. eigenvalues --   -0.36006  -0.35895  -0.35587  -0.35529  -0.35118
 Alpha  occ. eigenvalues --   -0.35090  -0.34920  -0.34794  -0.34735  -0.34509
 Alpha  occ. eigenvalues --   -0.34484  -0.34330  -0.34026  -0.33694  -0.33531
 Alpha  occ. eigenvalues --   -0.33246  -0.33210  -0.32754  -0.32564  -0.32287
 Alpha  occ. eigenvalues --   -0.32052  -0.31962  -0.31823  -0.31717  -0.31229
 Alpha  occ. eigenvalues --   -0.30770  -0.30488  -0.30254  -0.29721  -0.29693
 Alpha  occ. eigenvalues --   -0.28905  -0.28530  -0.28107  -0.28029  -0.27671
 Alpha  occ. eigenvalues --   -0.27234  -0.27132  -0.26581  -0.26427  -0.25948
 Alpha  occ. eigenvalues --   -0.25893  -0.25772  -0.25641  -0.25327  -0.25090
 Alpha  occ. eigenvalues --   -0.24867  -0.24411  -0.24173  -0.23935  -0.23877
 Alpha  occ. eigenvalues --   -0.23747  -0.23190  -0.22875  -0.22708  -0.22388
 Alpha  occ. eigenvalues --   -0.22358  -0.22215  -0.22095  -0.21897  -0.21573
 Alpha  occ. eigenvalues --   -0.21417  -0.20815  -0.20025  -0.19543  -0.19509
 Alpha  occ. eigenvalues --   -0.19085  -0.18543  -0.18044
 Alpha virt. eigenvalues --   -0.10966  -0.05463  -0.05125  -0.02965  -0.01370
 Alpha virt. eigenvalues --   -0.00737  -0.00571  -0.00037   0.00340   0.01131
 Alpha virt. eigenvalues --    0.01189   0.01527   0.01660   0.01822   0.02550

 Mulliken charges:
               1
     1  C    0.041857
     2  C    0.038867
     3  O   -0.296635
     4  H    0.044474
     5  H    0.030205
     6  H    0.008186
     7  N   -0.126140
     8  C    0.061331
     9  C    0.088422
    10  O   -0.296626
    11  C    0.121645
    12  C    0.152009
    13  O   -0.388072
    14  O   -0.471631
    15  H    0.119273
    16  H    0.030978
    17  H   -0.012296
    18  H    0.001914
    19  N   -0.123432
    20  C    0.167484
    21  C    0.057236
    22  O   -0.266847
    23  C   -0.016024
    24  C    0.026489
    25  C   -0.043242
    26  C   -0.003098
    27  N    0.094248
    28  H    0.154311
    29  H   -0.018386
    30  H   -0.019488
    31  H    0.031357
    32  H    0.055256
    33  H   -0.039282
    34  H    0.010876
    35  H    0.071105
    36  H    0.069439
    37  H    0.101574
    38  H    0.180565
    39  H    0.204627
    40  H    0.194868
    41  N   -0.194139
    42  C    0.141754
    43  C    0.063034
    44  O   -0.298950
    45  C    0.174096
    46  C    0.056077
    47  O   -0.456981
    48  O   -0.392155
    49  H    0.142829
    50  H    0.014899
    51  H   -0.032827
    52  H    0.021328
    53  N   -0.136696
    54  C    0.216214
    55  C    0.030828
    56  O   -0.296702
    57  H    0.153181
    58  H    0.016649
    59  H    0.035526
    60  N   -0.165329
    61  C    0.132895
    62  C    0.038593
    63  O   -0.289530
    64  C    0.128036
    65  C    0.065195
    66  N   -0.044963
    67  O   -0.333630
    68  H    0.132891
    69  H    0.019751
    70  H    0.068847
    71  H   -0.004232
    72  H    0.128285
    73  H    0.121836
    74  N   -0.151495
    75  C    0.239194
    76  C    0.010214
    77  O   -0.305784
    78  H    0.146226
    79  H    0.036004
    80  H    0.023802
    81  N   -0.162088
    82  C    0.159348
    83  C    0.097618
    84  O   -0.376709
    85  C    0.160656
    86  C    0.022911
    87  C    0.005047
    88  C   -0.008725
    89  C   -0.019348
    90  C   -0.030417
    91  C    0.187697
    92  O   -0.207744
    93  H    0.167773
    94  H    0.003161
    95  H   -0.025047
    96  H   -0.058444
    97  H   -0.050069
    98  H   -0.058364
    99  H   -0.032520
   100  H   -0.025032
   101  H    0.173047
   102  N   -0.107704
   103  C    0.171411
   104  C    0.068350
   105  O   -0.291944
   106  C   -0.087405
   107  C   -0.028105
   108  C    0.039363
   109  C    0.047790
   110  H    0.123821
   111  H    0.018140
   112  H   -0.012972
   113  H    0.014516
   114  H    0.000867
   115  H   -0.003664
   116  H    0.000799
   117  H    0.024016
   118  H    0.006103
   119  H    0.014393
   120  H    0.006783
   121  N   -0.132278
   122  C    0.128154
   123  C    0.113145
   124  O   -0.266807
   125  C    0.219797
   126  O   -0.338929
   127  H    0.136218
   128  H    0.009971
   129  H   -0.007878
   130  H   -0.048944
   131  H    0.174050
   132  N   -0.141046
   133  C    0.120663
   134  C    0.078899
   135  O   -0.260649
   136  C    0.016388
   137  H    0.120545
   138  H    0.023356
   139  H    0.026536
   140  H    0.000101
   141  H    0.046267
   142  N   -0.130084
   143  C    0.076965
   144  C    0.059124
   145  O   -0.280203
   146  C    0.033631
   147  H    0.098442
   148  H    0.023204
   149  H    0.025435
   150  H    0.009435
   151  H    0.023589
   152  N   -0.123279
   153  C    0.154557
   154  C    0.033646
   155  O   -0.290158
   156  C   -0.058895
   157  C    0.113101
   158  C    0.185589
   159  O   -0.367204
   160  O   -0.466852
   161  H    0.126997
   162  H   -0.035048
   163  H    0.036770
   164  H   -0.008084
   165  H   -0.000307
   166  H   -0.001118
   167  N   -0.167696
   168  C    0.131959
   169  H    0.026639
   170  H    0.029610
   171  H    0.009176
   172  H    0.136722
   173  Ca   1.281301
   174  O   -0.279594
   175  H    0.184892
   176  H    0.170703
 Sum of Mulliken charges =   0.00000

 Dipole moment (field-independent basis, Debye):
    X=             33.6684    Y=             10.1381    Z=            -13.0588  Tot=             37.5084
 Quadrupole moment (field-independent basis, Debye-Ang):
   XX=           -655.2790   YY=           -393.4620   ZZ=           -503.8785
   XY=            156.1604   XZ=            -19.0863   YZ=             41.2555

 ESP charges:
               1
     1  C   -0.427593
     2  C    0.832349
     3  O   -0.628657
     4  H    0.127486
     5  H    0.112939
     6  H    0.086344
     7  N   -0.821405
     8  C    0.275253
     9  C    0.651694
    10  O   -0.541210
    11  C   -0.409579
    12  C    0.733314
    13  O   -0.612736
    14  O   -0.757334
    15  H    0.390162
    16  H    0.033790
    17  H    0.080175
    18  H    0.127093
    19  N   -0.505887
    20  C   -0.090568
    21  C    0.423507
    22  O   -0.541659
    23  C    0.081288
    24  C   -0.169513
    25  C    0.080930
    26  C    0.161410
    27  N   -0.546957
    28  H    0.429452
    29  H    0.096382
    30  H    0.022339
    31  H    0.013070
    32  H    0.055552
    33  H    0.022871
    34  H   -0.004197
    35  H   -0.008452
    36  H    0.041758
    37  H    0.077422
    38  H    0.362055
    39  H    0.395288
    40  H    0.365733
    41  N   -0.194194
    42  C   -0.016144
    43  C    0.445422
    44  O   -0.534233
    45  C   -0.250611
    46  C    0.732188
    47  O   -0.713579
    48  O   -0.724193
    49  H    0.148701
    50  H    0.117682
    51  H    0.039926
    52  H    0.106570
    53  N   -0.190905
    54  C   -0.215001
    55  C    0.584557
    56  O   -0.587571
    57  H    0.232862
    58  H    0.110970
    59  H    0.111854
    60  N   -0.207878
    61  C   -0.075272
    62  C    0.352259
    63  O   -0.486250
    64  C   -0.270337
    65  C    0.753191
    66  N   -0.919949
    67  O   -0.692409
    68  H    0.191273
    69  H    0.145330
    70  H    0.152194
    71  H    0.074867
    72  H    0.412840
    73  H    0.398240
    74  N   -0.121946
    75  C   -0.213144
    76  C    0.693011
    77  O   -0.599263
    78  H    0.159607
    79  H    0.124009
    80  H    0.085375
    81  N   -0.628108
    82  C    0.427782
    83  C    0.533481
    84  O   -0.612973
    85  C   -0.319139
    86  C    0.069056
    87  C    0.030373
    88  C   -0.229424
    89  C   -0.461428
    90  C   -0.412069
    91  C    0.597539
    92  O   -0.615946
    93  H    0.375782
    94  H   -0.004536
    95  H    0.060449
    96  H    0.078077
    97  H    0.070444
    98  H    0.276569
    99  H    0.197693
   100  H    0.156866
   101  H    0.424206
   102  N   -0.532645
   103  C   -0.158247
   104  C    0.656033
   105  O   -0.554031
   106  C    0.003385
   107  C    0.294086
   108  C   -0.264700
   109  C   -0.375278
   110  H    0.312288
   111  H    0.120133
   112  H    0.050117
   113  H   -0.038736
   114  H    0.003119
   115  H    0.022794
   116  H    0.091450
   117  H    0.092333
   118  H    0.074672
   119  H    0.090853
   120  H    0.077398
   121  N   -0.163455
   122  C   -0.486377
   123  C    0.782783
   124  O   -0.539096
   125  C    0.338401
   126  O   -0.630471
   127  H    0.194097
   128  H    0.144013
   129  H    0.005365
   130  H   -0.021490
   131  H    0.411772
   132  N   -0.622518
   133  C    0.233469
   134  C    0.411386
   135  O   -0.524929
   136  C   -0.288679
   137  H    0.338420
   138  H    0.079627
   139  H    0.095240
   140  H    0.058473
   141  H    0.098073
   142  N   -0.355124
   143  C    0.151897
   144  C    0.326945
   145  O   -0.519305
   146  C   -0.364373
   147  H    0.265270
   148  H    0.098792
   149  H    0.100119
   150  H    0.084230
   151  H    0.117857
   152  N    0.054556
   153  C   -0.658449
   154  C    0.613563
   155  O   -0.571388
   156  C    0.425401
   157  C   -0.635413
   158  C    0.978697
   159  O   -0.803117
   160  O   -0.744593
   161  H    0.169033
   162  H    0.201758
   163  H   -0.006292
   164  H   -0.159580
   165  H    0.128127
   166  H    0.224052
   167  N   -0.080706
   168  C   -0.261768
   169  H    0.100512
   170  H    0.111732
   171  H    0.082596
   172  H    0.194917
   173  Ca   1.678549
   174  O   -0.869090
   175  H    0.423053
   176  H    0.429762
 Sum of ESP charges =   0.00000

 Normal termination of Gaussian 09 at Mon Sep 16 16:12:46 2019.
