 Gaussian 16, Revision A.03,
 Gaussian 16:  ES64L-G16RevA.03 25-Dec-2016

 ----------------------------------------------------------------------
 #b3lyp/svp scf=(tight,noincore) Test #IOP(5/87=12) Density=Current Pop
 =(MK,readradii) iop(6/33=2) iop(6/42=6)
 ----------------------------------------------------------------------

 -----------------
 CaMKII_loop3_90.0
 -----------------
 Symbolic Z-matrix:
 Charge =  0 Multiplicity = 1

                         Standard orientation:
 ---------------------------------------------------------------------
 Center     Atomic      Atomic             Coordinates (Angstroms)
 Number     Number       Type             X           Y           Z
 ---------------------------------------------------------------------
      1          6           0        1.759965    2.455721    6.005068
      2          6           0        1.368919    2.415134    4.534138
      3          8           0        2.136946    2.359917    3.582568
      4          1           0        2.741142    1.997987    6.132275
      5          1           0        1.796146    3.491790    6.343624
      6          1           0        1.024039    1.906298    6.592757
      7          7           0        0.063664    2.549760    4.291061
      8          6           0       -0.548123    2.205921    3.031580
      9          6           0       -0.655767    3.511189    2.243044
     10          8           0       -1.314700    4.409690    2.755785
     11          6           0       -1.917674    1.554281    3.215413
     12          6           0       -2.803681    1.197645    2.038636
     13          8           0       -2.396130    1.387368    0.861986
     14          8           0       -3.983205    0.833699    2.257422
     15          1           0       -0.604790    2.544249    5.049506
     16          1           0       -0.012559    1.456026    2.455622
     17          1           0       -2.544327    2.196046    3.846240
     18          1           0       -1.758988    0.613988    3.743588
     19          7           0       -0.051267    3.653389    1.059128
     20          6           0       -0.042125    4.794373    0.175345
     21          6           0       -1.220312    5.038482   -0.752763
     22          8           0       -1.166790    6.038108   -1.449602
     23          6           0        1.342259    4.938410   -0.442906
     24          6           0        1.969690    6.289217   -0.776150
     25          6           0        3.193646    6.349168   -1.669704
     26          6           0        2.960486    5.884612   -3.107141
     27          7           0        4.212295    5.621055   -3.841110
     28          1           0        0.380217    2.825910    0.660505
     29          1           0       -0.137869    5.695201    0.785625
     30          1           0        1.249016    4.325495   -1.342651
     31          1           0        2.071940    4.513834    0.243390
     32          1           0        2.214124    6.751718    0.182049
     33          1           0        1.199615    6.983600   -1.129020
     34          1           0        4.042074    5.887830   -1.157613
     35          1           0        3.463465    7.406677   -1.712964
     36          1           0        2.407576    6.653318   -3.647401
     37          1           0        2.371934    4.968609   -3.173814
     38          1           0        4.534967    4.678416   -3.655868
     39          1           0        4.019495    5.783808   -4.819139
     40          1           0        4.936471    6.269907   -3.594613
     41          7           0       -2.301763    4.242705   -0.762897
     42          6           0       -3.489488    4.658515   -1.475998
     43          6           0       -4.779245    4.357576   -0.707322
     44          8           0       -5.824079    4.694397   -1.269614
     45          6           0       -3.451350    4.033359   -2.863379
     46          6           0       -3.288972    2.515961   -2.892280
     47          8           0       -3.113372    1.878316   -1.834370
     48          8           0       -3.186289    1.975318   -4.018717
     49          1           0       -2.418279    3.464719   -0.140272
     50          1           0       -3.464053    5.744453   -1.571869
     51          1           0       -2.591786    4.499290   -3.352212
     52          1           0       -4.321916    4.242026   -3.492802
     53          7           0       -4.803057    3.847741    0.522922
     54          6           0       -5.995121    3.430094    1.234719
     55          6           0       -6.730303    2.201529    0.724193
     56          8           0       -7.917616    2.078206    1.016048
     57          1           0       -3.903085    3.563106    0.891072
     58          1           0       -6.727113    4.237375    1.313361
     59          1           0       -5.715769    3.100668    2.235739
     60          7           0       -6.126227    1.310156   -0.069688
     61          6           0       -6.678902    0.086754   -0.607869
     62          6           0       -6.567445   -1.151966    0.261643
     63          8           0       -7.240024   -2.166790    0.077607
     64          6           0       -5.952851   -0.199913   -1.926683
     65          6           0       -4.891537   -1.284167   -1.782092
     66          7           0       -5.181491   -2.470131   -2.311540
     67          8           0       -3.769996   -1.167653   -1.279827
     68          1           0       -5.183176    1.569220   -0.328226
     69          1           0       -7.736798    0.301398   -0.780158
     70          1           0       -5.474665    0.694353   -2.328461
     71          1           0       -6.652488   -0.530250   -2.696674
     72          1           0       -6.112747   -2.682311   -2.631762
     73          1           0       -4.477985   -3.191340   -2.211353
     74          7           0       -5.819554   -1.081647    1.370251
     75          6           0       -5.737352   -2.000595    2.493317
     76          6           0       -4.756998   -3.143477    2.313242
     77          8           0       -4.998065   -4.254336    2.796646
     78          1           0       -5.260611   -0.268531    1.554982
     79          1           0       -6.753288   -2.288978    2.757152
     80          1           0       -5.381735   -1.395894    3.333123
     81          7           0       -3.673428   -3.009981    1.537513
     82          6           0       -2.501248   -3.841656    1.603919
     83          6           0       -1.317782   -2.965917    1.213803
     84          8           0       -1.388138   -1.986883    0.473032
     85          6           0       -2.698865   -5.140021    0.816711
     86          6           0       -3.364448   -5.083026   -0.531306
     87          6           0       -4.678990   -5.556606   -0.681641
     88          6           0       -2.688361   -4.626027   -1.668565
     89          6           0       -5.251826   -5.732030   -1.945519
     90          6           0       -3.175708   -4.864564   -2.954992
     91          6           0       -4.487920   -5.385948   -3.073559
     92          8           0       -4.938983   -5.554637   -4.342529
     93          1           0       -3.572899   -2.069380    1.179653
     94          1           0       -2.344211   -4.005779    2.667499
     95          1           0       -3.292754   -5.697278    1.548395
     96          1           0       -1.821858   -5.775223    0.721962
     97          1           0       -5.234674   -5.932727    0.162425
     98          1           0       -1.696220   -4.191154   -1.581153
     99          1           0       -6.244285   -6.076063   -2.195252
    100          1           0       -2.560385   -4.522945   -3.773511
    101          1           0       -4.278196   -5.201188   -4.941975
    102          7           0       -0.160066   -3.484854    1.622825
    103          6           0        1.165566   -2.896360    1.542353
    104          6           0        2.040294   -3.646395    0.554123
    105          8           0        2.243279   -4.858200    0.604368
    106          6           0        1.787433   -2.857184    2.934419
    107          6           0        0.941528   -2.027312    3.892728
    108          6           0        3.253635   -2.420131    2.892751
    109          6           0        1.405850   -2.373250    5.308614
    110          1           0       -0.223299   -4.374681    2.095275
    111          1           0        0.922884   -1.879323    1.208226
    112          1           0        1.677082   -3.876482    3.306783
    113          1           0       -0.129490   -2.246904    3.892681
    114          1           0        1.138502   -0.982888    3.680879
    115          1           0        3.713131   -2.355353    3.872531
    116          1           0        3.814690   -3.124030    2.280262
    117          1           0        3.407037   -1.432278    2.447876
    118          1           0        0.713026   -1.777609    5.906366
    119          1           0        1.269129   -3.451953    5.423538
    120          1           0        2.414683   -2.090871    5.593427
    121          7           0        2.599635   -2.989341   -0.459246
    122          6           0        3.709374   -3.472559   -1.267813
    123          6           0        5.072027   -3.125794   -0.704316
    124          8           0        5.121043   -2.127717    0.000765
    125          6           0        3.478651   -2.801894   -2.618249
    126          8           0        3.588091   -1.396156   -2.638814
    127          1           0        2.452928   -2.001908   -0.599434
    128          1           0        3.680515   -4.563159   -1.358132
    129          1           0        2.537481   -3.063592   -3.103546
    130          1           0        4.272959   -3.226718   -3.233961
    131          1           0        2.799273   -1.027660   -2.221589
    132          7           0        6.119990   -3.705319   -1.291278
    133          6           0        7.489799   -3.397962   -0.922962
    134          6           0        7.935285   -1.948070   -1.096900
    135          8           0        8.856963   -1.580424   -0.387784
    136          6           0        8.422828   -4.390980   -1.604336
    137          1           0        5.986170   -4.448260   -1.958758
    138          1           0        7.622346   -3.526435    0.151992
    139          1           0        9.402114   -4.396695   -1.130768
    140          1           0        8.156913   -5.411120   -1.300523
    141          1           0        8.598332   -4.219832   -2.659707
    142          7           0        7.267971   -1.186448   -1.966799
    143          6           0        7.624382    0.198348   -2.216421
    144          6           0        7.004769    1.129013   -1.192290
    145          8           0        7.413206    2.284568   -1.050963
    146          6           0        7.092437    0.539838   -3.605708
    147          1           0        6.589584   -1.615453   -2.575195
    148          1           0        8.714237    0.295535   -2.143833
    149          1           0        6.009807    0.614581   -3.533425
    150          1           0        7.460338    1.542524   -3.811062
    151          1           0        7.504511   -0.168764   -4.330814
    152          7           0        6.040113    0.624111   -0.420726
    153          6           0        5.265091    1.320009    0.582601
    154          6           0        5.874746    1.035774    1.942172
    155          8           0        6.055459    1.969847    2.726996
    156          6           0        3.796957    0.891926    0.609579
    157          6           0        2.833143    1.501745   -0.422934
    158          6           0        1.618472    0.619849   -0.590662
    159          8           0        1.669153   -0.331645   -1.402937
    160          8           0        0.550979    0.772286    0.044414
    161          1           0        5.768392   -0.307475   -0.688336
    162          1           0        5.237867    2.397754    0.434195
    163          1           0        3.411573    1.071829    1.607384
    164          1           0        3.691083   -0.184163    0.483792
    165          1           0        3.411019    1.548786   -1.348325
    166          1           0        2.540705    2.505388   -0.118826
    167          7           0        6.177396   -0.246401    2.181400
    168          6           0        6.925423   -0.666755    3.351169
    169          1           0        7.860784   -1.129354    3.036243
    170          1           0        7.141300    0.199860    3.976500
    171          1           0        6.337485   -1.387071    3.919200
    172          1           0        6.021406   -0.900778    1.434769
    173         20           0       -1.462200    0.026874   -1.257600
    174          8           0       -1.991412   -0.313231   -3.757752
    175          1           0       -2.586882    0.438444   -3.826315
    176          1           0       -2.029954   -0.718890   -4.626634
 ---------------------------------------------------------------------

 SCF Done:  E(RB3LYP) =  -5333.61197456     A.U. after   21 cycles

 The electronic state is 1-A.
 Alpha  occ. eigenvalues -- -145.38600 -19.16694 -19.14518 -19.13312 -19.12687
 Alpha  occ. eigenvalues --  -19.12684 -19.11833 -19.11130 -19.11044 -19.10145
 Alpha  occ. eigenvalues --  -19.09690 -19.09448 -19.08757 -19.08097 -19.07329
 Alpha  occ. eigenvalues --  -19.07126 -19.06705 -19.06026 -19.05518 -19.05463
 Alpha  occ. eigenvalues --  -19.05074 -19.04889 -19.04479 -19.04231 -15.44382
 Alpha  occ. eigenvalues --  -14.58775 -14.40341 -14.38066 -14.37462 -14.35602
 Alpha  occ. eigenvalues --  -14.35273 -14.33675 -14.33619 -14.33520 -14.33363
 Alpha  occ. eigenvalues --  -14.33314 -14.32817 -14.32649 -14.30898 -14.30100
 Alpha  occ. eigenvalues --  -12.58002 -12.57972 -12.57914 -10.35002 -10.32323
 Alpha  occ. eigenvalues --  -10.31038 -10.30483 -10.30229 -10.28994 -10.28521
 Alpha  occ. eigenvalues --  -10.28051 -10.27660 -10.27355 -10.27088 -10.26453
 Alpha  occ. eigenvalues --  -10.26124 -10.25912 -10.25656 -10.25651 -10.25553
 Alpha  occ. eigenvalues --  -10.25279 -10.25125 -10.24840 -10.24777 -10.24587
 Alpha  occ. eigenvalues --  -10.24390 -10.24132 -10.24063 -10.23737 -10.23386
 Alpha  occ. eigenvalues --  -10.22904 -10.22756 -10.22298 -10.22074 -10.21765
 Alpha  occ. eigenvalues --  -10.21084 -10.20731 -10.20704 -10.20439 -10.20223
 Alpha  occ. eigenvalues --  -10.20044 -10.19794 -10.19761 -10.19653 -10.19492
 Alpha  occ. eigenvalues --  -10.19391 -10.19293 -10.19282 -10.19131 -10.19025
 Alpha  occ. eigenvalues --  -10.18572 -10.18442 -10.18199 -10.17982 -10.17834
 Alpha  occ. eigenvalues --  -10.16692 -10.15770  -1.81181  -1.14081  -1.08908
 Alpha  occ. eigenvalues --   -1.08580  -1.08506  -1.07876  -1.06326  -1.05909
 Alpha  occ. eigenvalues --   -1.05678  -1.05188  -1.03603  -1.02644  -1.02541
 Alpha  occ. eigenvalues --   -1.02022  -1.01602  -1.01581  -1.00775  -1.00199
 Alpha  occ. eigenvalues --   -0.99978  -0.99928  -0.99080  -0.98893  -0.98779
 Alpha  occ. eigenvalues --   -0.98532  -0.97544  -0.97278  -0.95467  -0.95381
 Alpha  occ. eigenvalues --   -0.94790  -0.92352  -0.92293  -0.91293  -0.90707
 Alpha  occ. eigenvalues --   -0.90385  -0.90370  -0.89924  -0.89643  -0.89004
 Alpha  occ. eigenvalues --   -0.88667  -0.88474  -0.88385  -0.87959  -0.86657
 Alpha  occ. eigenvalues --   -0.85251  -0.82861  -0.82099  -0.81371  -0.80492
 Alpha  occ. eigenvalues --   -0.79263  -0.78628  -0.77667  -0.77381  -0.76303
 Alpha  occ. eigenvalues --   -0.76015  -0.75381  -0.74999  -0.74738  -0.74029
 Alpha  occ. eigenvalues --   -0.73931  -0.73239  -0.72609  -0.71561  -0.70872
 Alpha  occ. eigenvalues --   -0.70239  -0.69829  -0.69492  -0.68842  -0.68614
 Alpha  occ. eigenvalues --   -0.67391  -0.66551  -0.65993  -0.65152  -0.64903
 Alpha  occ. eigenvalues --   -0.64278  -0.63685  -0.63163  -0.62626  -0.62555
 Alpha  occ. eigenvalues --   -0.62235  -0.62118  -0.61847  -0.61330  -0.60296
 Alpha  occ. eigenvalues --   -0.59468  -0.59277  -0.59127  -0.58277  -0.57814
 Alpha  occ. eigenvalues --   -0.57594  -0.57232  -0.56879  -0.56738  -0.56238
 Alpha  occ. eigenvalues --   -0.56051  -0.55666  -0.55514  -0.55436  -0.55214
 Alpha  occ. eigenvalues --   -0.55022  -0.54646  -0.54314  -0.54223  -0.53715
 Alpha  occ. eigenvalues --   -0.53206  -0.53063  -0.52985  -0.52282  -0.51843
 Alpha  occ. eigenvalues --   -0.51210  -0.51121  -0.51001  -0.50820  -0.50041
 Alpha  occ. eigenvalues --   -0.49837  -0.49680  -0.49618  -0.49413  -0.49324
 Alpha  occ. eigenvalues --   -0.48952  -0.48730  -0.48520  -0.48467  -0.48228
 Alpha  occ. eigenvalues --   -0.47989  -0.47932  -0.47714  -0.47312  -0.47215
 Alpha  occ. eigenvalues --   -0.47135  -0.46652  -0.46549  -0.46298  -0.46157
 Alpha  occ. eigenvalues --   -0.45932  -0.45527  -0.45418  -0.45176  -0.44986
 Alpha  occ. eigenvalues --   -0.44922  -0.44770  -0.44694  -0.44271  -0.44019
 Alpha  occ. eigenvalues --   -0.43946  -0.43868  -0.43641  -0.43545  -0.43508
 Alpha  occ. eigenvalues --   -0.43415  -0.43267  -0.43177  -0.43128  -0.42928
 Alpha  occ. eigenvalues --   -0.42671  -0.42582  -0.42357  -0.42328  -0.42150
 Alpha  occ. eigenvalues --   -0.42068  -0.41864  -0.41686  -0.41588  -0.41476
 Alpha  occ. eigenvalues --   -0.41291  -0.41071  -0.41030  -0.40793  -0.40596
 Alpha  occ. eigenvalues --   -0.40556  -0.40218  -0.40142  -0.40107  -0.39937
 Alpha  occ. eigenvalues --   -0.39913  -0.39670  -0.39598  -0.39464  -0.39178
 Alpha  occ. eigenvalues --   -0.39153  -0.39048  -0.38884  -0.38683  -0.38486
 Alpha  occ. eigenvalues --   -0.38385  -0.38319  -0.38199  -0.38126  -0.37815
 Alpha  occ. eigenvalues --   -0.37608  -0.37595  -0.37247  -0.37070  -0.36812
 Alpha  occ. eigenvalues --   -0.36680  -0.36565  -0.36489  -0.36441  -0.36319
 Alpha  occ. eigenvalues --   -0.35964  -0.35826  -0.35657  -0.35345  -0.35254
 Alpha  occ. eigenvalues --   -0.34962  -0.34732  -0.34670  -0.34477  -0.34266
 Alpha  occ. eigenvalues --   -0.34158  -0.34018  -0.33619  -0.33432  -0.33376
 Alpha  occ. eigenvalues --   -0.33352  -0.33077  -0.32881  -0.32811  -0.32628
 Alpha  occ. eigenvalues --   -0.32195  -0.31919  -0.31831  -0.31055  -0.30635
 Alpha  occ. eigenvalues --   -0.29959  -0.29692  -0.29322  -0.29090  -0.28624
 Alpha  occ. eigenvalues --   -0.28368  -0.27487  -0.27301  -0.27126  -0.26992
 Alpha  occ. eigenvalues --   -0.26569  -0.26251  -0.26183  -0.25811  -0.25773
 Alpha  occ. eigenvalues --   -0.25399  -0.25258  -0.25190  -0.24251  -0.24088
 Alpha  occ. eigenvalues --   -0.24062  -0.23858  -0.23827  -0.23712  -0.23514
 Alpha  occ. eigenvalues --   -0.23362  -0.22824  -0.22633  -0.22596  -0.22444
 Alpha  occ. eigenvalues --   -0.22415  -0.21924  -0.21247  -0.21112  -0.20717
 Alpha  occ. eigenvalues --   -0.20235  -0.19991  -0.19730
 Alpha virt. eigenvalues --   -0.10760  -0.05086  -0.04386  -0.03231  -0.02111
 Alpha virt. eigenvalues --   -0.01665  -0.01204  -0.00854  -0.00528  -0.00002
 Alpha virt. eigenvalues --    0.00384   0.00589   0.00796   0.01037   0.01596

 Mulliken charges:
               1
     1  C    0.046482
     2  C    0.030150
     3  O   -0.276255
     4  H    0.035221
     5  H    0.046956
     6  H    0.011534
     7  N   -0.100896
     8  C    0.102565
     9  C    0.064713
    10  O   -0.296078
    11  C    0.037049
    12  C    0.135683
    13  O   -0.448845
    14  O   -0.382208
    15  H    0.109178
    16  H    0.004876
    17  H    0.017377
    18  H    0.003106
    19  N   -0.133670
    20  C    0.151370
    21  C    0.052020
    22  O   -0.304412
    23  C   -0.025718
    24  C    0.022742
    25  C   -0.017035
    26  C    0.011084
    27  N    0.080659
    28  H    0.138697
    29  H    0.021929
    30  H   -0.013366
    31  H    0.065563
    32  H    0.017948
    33  H    0.023154
    34  H    0.037692
    35  H    0.025596
    36  H    0.079342
    37  H    0.077166
    38  H    0.210830
    39  H    0.192725
    40  H    0.186212
    41  N   -0.148018
    42  C    0.139533
    43  C    0.029523
    44  O   -0.292986
    45  C    0.089151
    46  C    0.129423
    47  O   -0.456663
    48  O   -0.406402
    49  H    0.155832
    50  H    0.024815
    51  H    0.000711
    52  H    0.028805
    53  N   -0.131494
    54  C    0.237902
    55  C    0.011734
    56  O   -0.295383
    57  H    0.122819
    58  H    0.032172
    59  H    0.034354
    60  N   -0.151982
    61  C    0.128190
    62  C    0.047759
    63  O   -0.284777
    64  C    0.128266
    65  C    0.031367
    66  N   -0.032084
    67  O   -0.368785
    68  H    0.143425
    69  H    0.033633
    70  H    0.043857
    71  H   -0.006727
    72  H    0.127027
    73  H    0.143067
    74  N   -0.170809
    75  C    0.238687
    76  C    0.023504
    77  O   -0.301019
    78  H    0.139844
    79  H    0.024253
    80  H    0.024137
    81  N   -0.135002
    82  C    0.102689
    83  C    0.089705
    84  O   -0.347145
    85  C    0.170057
    86  C    0.000702
    87  C    0.016754
    88  C   -0.044244
    89  C    0.001012
    90  C   -0.056667
    91  C    0.096855
    92  O   -0.181096
    93  H    0.147514
    94  H    0.002413
    95  H    0.016321
    96  H    0.000821
    97  H    0.005051
    98  H   -0.023837
    99  H   -0.012753
   100  H   -0.041821
   101  H    0.169184
   102  N   -0.126629
   103  C    0.171578
   104  C    0.077850
   105  O   -0.291379
   106  C   -0.132369
   107  C    0.001593
   108  C    0.079768
   109  C    0.025676
   110  H    0.127111
   111  H    0.012959
   112  H   -0.019450
   113  H    0.003500
   114  H    0.019367
   115  H    0.003615
   116  H    0.018130
   117  H    0.011218
   118  H    0.005693
   119  H    0.004952
   120  H    0.019298
   121  N   -0.127140
   122  C    0.072339
   123  C    0.123621
   124  O   -0.284871
   125  C    0.260721
   126  O   -0.358465
   127  H    0.119111
   128  H    0.013203
   129  H    0.013494
   130  H   -0.050361
   131  H    0.169435
   132  N   -0.124799
   133  C    0.071571
   134  C    0.055242
   135  O   -0.251247
   136  C    0.037516
   137  H    0.131787
   138  H    0.028141
   139  H    0.031588
   140  H    0.026232
   141  H    0.022628
   142  N   -0.158670
   143  C    0.091315
   144  C    0.027278
   145  O   -0.296847
   146  C    0.043981
   147  H    0.128547
   148  H    0.036172
   149  H    0.016714
   150  H    0.007217
   151  H    0.029417
   152  N   -0.129075
   153  C    0.153046
   154  C    0.063229
   155  O   -0.264952
   156  C   -0.073263
   157  C    0.156097
   158  C    0.124589
   159  O   -0.414923
   160  O   -0.409101
   161  H    0.135935
   162  H   -0.019983
   163  H    0.062614
   164  H    0.013134
   165  H   -0.034810
   166  H   -0.028623
   167  N   -0.177405
   168  C    0.125311
   169  H    0.023901
   170  H    0.042363
   171  H    0.010690
   172  H    0.120849
   173  Ca   1.348420
   174  O   -0.357662
   175  H    0.152711
   176  H    0.175246
 Sum of Mulliken charges =  -0.00000

 Dipole moment (field-independent basis, Debye):
    X=             28.6397    Y=              3.3490    Z=            -19.0238  Tot=             34.5449
 Quadrupole moment (field-independent basis, Debye-Ang):
   XX=           -686.6457   YY=           -490.4392   ZZ=           -475.5262
   XY=             61.9406   XZ=            -80.4457   YZ=            -54.1221

 ESP charges:
               1
     1  C   -0.453556
     2  C    0.825006
     3  O   -0.625201
     4  H    0.123931
     5  H    0.133961
     6  H    0.099802
     7  N   -0.728191
     8  C    0.321264
     9  C    0.764835
    10  O   -0.615225
    11  C   -0.463436
    12  C    0.865140
    13  O   -0.747409
    14  O   -0.676026
    15  H    0.347060
    16  H    0.005279
    17  H    0.113845
    18  H    0.071537
    19  N   -0.722688
    20  C    0.346750
    21  C    0.486840
    22  O   -0.556176
    23  C   -0.250706
    24  C   -0.008009
    25  C   -0.159898
    26  C    0.188567
    27  N   -0.512733
    28  H    0.339178
    29  H    0.039267
    30  H    0.047792
    31  H    0.150573
    32  H    0.064618
    33  H    0.027626
    34  H    0.071383
    35  H    0.062108
    36  H    0.074523
    37  H    0.048016
    38  H    0.384237
    39  H    0.359625
    40  H    0.352718
    41  N   -0.386714
    42  C   -0.036700
    43  C    0.511204
    44  O   -0.531865
    45  C   -0.254085
    46  C    0.784348
    47  O   -0.698774
    48  O   -0.715407
    49  H    0.145833
    50  H    0.136509
    51  H    0.081555
    52  H    0.091964
    53  N   -0.309325
    54  C   -0.247777
    55  C    0.586254
    56  O   -0.576750
    57  H    0.272608
    58  H    0.142269
    59  H    0.133839
    60  N   -0.258791
    61  C   -0.107973
    62  C    0.376074
    63  O   -0.525986
    64  C   -0.167344
    65  C    0.694442
    66  N   -0.881486
    67  O   -0.686155
    68  H    0.245071
    69  H    0.147947
    70  H    0.100311
    71  H    0.075285
    72  H    0.388634
    73  H    0.430611
    74  N    0.042352
    75  C   -0.347218
    76  C    0.591883
    77  O   -0.566769
    78  H    0.100118
    79  H    0.151045
    80  H    0.131105
    81  N   -0.223231
    82  C   -0.054120
    83  C    0.637204
    84  O   -0.587769
    85  C   -0.173592
    86  C    0.018014
    87  C   -0.088370
    88  C   -0.034031
    89  C   -0.318850
    90  C   -0.442658
    91  C    0.459224
    92  O   -0.561153
    93  H    0.146732
    94  H    0.072338
    95  H    0.099627
    96  H    0.072808
    97  H    0.158701
    98  H    0.117855
    99  H    0.182300
   100  H    0.165883
   101  H    0.403764
   102  N   -0.477848
   103  C   -0.346717
   104  C    0.763154
   105  O   -0.575212
   106  C    0.137756
   107  C    0.246873
   108  C   -0.333987
   109  C   -0.407968
   110  H    0.310762
   111  H    0.170312
   112  H    0.027554
   113  H   -0.003373
   114  H   -0.009557
   115  H    0.109830
   116  H    0.081029
   117  H    0.055139
   118  H    0.079561
   119  H    0.083501
   120  H    0.109194
   121  N   -0.444615
   122  C   -0.193583
   123  C    0.696539
   124  O   -0.500834
   125  C    0.204368
   126  O   -0.647127
   127  H    0.289628
   128  H    0.105988
   129  H    0.049329
   130  H   -0.007351
   131  H    0.452865
   132  N   -0.599759
   133  C    0.236940
   134  C    0.471447
   135  O   -0.530048
   136  C   -0.350219
   137  H    0.321664
   138  H    0.061834
   139  H    0.118631
   140  H    0.105442
   141  H    0.094830
   142  N   -0.432946
   143  C    0.185116
   144  C    0.393088
   145  O   -0.557721
   146  C   -0.329146
   147  H    0.323651
   148  H    0.084356
   149  H    0.087054
   150  H    0.076993
   151  H    0.097007
   152  N   -0.038255
   153  C   -0.195692
   154  C    0.548234
   155  O   -0.543987
   156  C    0.487629
   157  C   -0.259545
   158  C    0.730383
   159  O   -0.755304
   160  O   -0.710258
   161  H   -0.023479
   162  H    0.072425
   163  H   -0.070160
   164  H   -0.069948
   165  H    0.036000
   166  H   -0.032149
   167  N   -0.296063
   168  C   -0.111683
   169  H    0.068374
   170  H    0.099647
   171  H    0.044462
   172  H    0.247729
   173  Ca   1.632913
   174  O   -0.898466
   175  H    0.409013
   176  H    0.435705
 Sum of ESP charges =  -0.00000

 Normal termination of Gaussian 16 at Sun Sep 15 01:10:56 2019.
