 Gaussian 16, Revision A.03,
 Gaussian 16:  ES64L-G16RevA.03 25-Dec-2016

 ----------------------------------------------------------------------
 #b3lyp/svp scf=(tight,noincore) Test #IOP(5/87=12) Density=Current Pop
 =(MK,readradii) iop(6/33=2) iop(6/42=6)
 ----------------------------------------------------------------------

 -----------------
 CaMKII_loop3_41.0
 -----------------
 Symbolic Z-matrix:
 Charge =  0 Multiplicity = 1

                         Standard orientation:
 ---------------------------------------------------------------------
 Center     Atomic      Atomic             Coordinates (Angstroms)
 Number     Number       Type             X           Y           Z
 ---------------------------------------------------------------------
      1          6           0        2.420307    1.486961    4.974510
      2          6           0        1.572668    1.471903    3.713090
      3          8           0        1.999833    1.200617    2.596652
      4          1           0        3.305299    0.867745    4.824814
      5          1           0        2.726137    2.509429    5.194951
      6          1           0        1.839146    1.092510    5.808248
      7          7           0        0.283333    1.735592    3.936663
      8          6           0       -0.677129    1.894424    2.864802
      9          6           0       -0.721311    3.311053    2.312344
     10          8           0       -1.527225    4.133434    2.755844
     11          6           0       -2.065361    1.326427    3.150966
     12          6           0       -2.972665    1.389004    1.925779
     13          8           0       -4.183351    1.200182    2.130682
     14          8           0       -2.431623    1.543901    0.809544
     15          1           0       -0.021793    1.885655    4.884544
     16          1           0       -0.371462    1.213152    2.067973
     17          1           0       -2.544618    1.879038    3.951425
     18          1           0       -1.918594    0.270162    3.392757
     19          7           0        0.242655    3.620320    1.437574
     20          6           0        0.572384    4.965148    0.986779
     21          6           0       -0.502583    5.551507    0.088153
     22          8           0       -1.062518    6.630197    0.304718
     23          6           0        1.918650    4.962657    0.264172
     24          6           0        3.073729    4.892645    1.256438
     25          6           0        4.414051    4.959323    0.524871
     26          6           0        4.617614    6.194462   -0.342997
     27          7           0        5.946540    6.088156   -0.973833
     28          1           0        0.892368    2.880874    1.202215
     29          1           0        0.626874    5.577591    1.883854
     30          1           0        2.022478    5.846094   -0.373134
     31          1           0        1.974002    4.075774   -0.369053
     32          1           0        3.095973    3.903336    1.718253
     33          1           0        3.072316    5.699845    1.975344
     34          1           0        4.540489    4.152511   -0.207022
     35          1           0        5.209766    4.887376    1.260712
     36          1           0        4.574634    7.076626    0.301393
     37          1           0        3.780804    6.234661   -1.028806
     38          1           0        6.098418    6.792190   -1.677516
     39          1           0        6.650010    6.052362   -0.254842
     40          1           0        6.052308    5.224581   -1.482902
     41          7           0       -0.908754    4.773104   -0.919277
     42          6           0       -1.959348    5.206296   -1.811128
     43          6           0       -3.361334    4.968938   -1.262498
     44          8           0       -4.355235    5.274943   -1.912669
     45          6           0       -1.731945    4.706259   -3.232800
     46          6           0       -1.959205    3.214902   -3.378436
     47          8           0       -2.125402    2.741534   -4.522857
     48          8           0       -1.980689    2.441635   -2.391726
     49          1           0       -0.580749    3.814025   -0.962631
     50          1           0       -1.888031    6.279089   -1.947249
     51          1           0       -0.698334    4.905133   -3.532798
     52          1           0       -2.339432    5.355299   -3.879566
     53          7           0       -3.486538    4.432338   -0.042914
     54          6           0       -4.702179    4.207043    0.698407
     55          6           0       -5.692828    3.192279    0.140222
     56          8           0       -6.880766    3.262705    0.456359
     57          1           0       -2.640144    4.071534    0.371378
     58          1           0       -5.178773    5.181861    0.805588
     59          1           0       -4.352407    3.982644    1.702751
     60          7           0       -5.281851    2.153871   -0.592859
     61          6           0       -6.121898    1.284348   -1.390888
     62          6           0       -6.562963    0.054050   -0.607096
     63          8           0       -7.122926   -0.847927   -1.227644
     64          6           0       -5.429286    1.028116   -2.723455
     65          6           0       -4.401113   -0.094379   -2.707137
     66          7           0       -4.286776   -0.829971   -3.807515
     67          8           0       -3.640950   -0.257360   -1.746465
     68          1           0       -4.281426    2.136755   -0.741376
     69          1           0       -7.033399    1.859301   -1.570870
     70          1           0       -4.902992    1.917026   -3.074244
     71          1           0       -6.171045    0.626436   -3.423703
     72          1           0       -4.863270   -0.653255   -4.616605
     73          1           0       -3.635744   -1.588114   -3.953719
     74          7           0       -6.257307   -0.031760    0.692793
     75          6           0       -6.553506   -1.169864    1.534152
     76          6           0       -5.474102   -2.216757    1.776434
     77          8           0       -5.764117   -3.203916    2.450827
     78          1           0       -5.716506    0.717756    1.108918
     79          1           0       -7.438118   -1.671029    1.165107
     80          1           0       -6.703281   -0.863082    2.573168
     81          7           0       -4.233276   -1.953999    1.363384
     82          6           0       -3.151065   -2.910678    1.273471
     83          6           0       -1.750107   -2.305668    1.365021
     84          8           0       -1.554511   -1.213338    0.839705
     85          6           0       -3.325066   -3.588579   -0.083096
     86          6           0       -4.589978   -4.353279   -0.348112
     87          6           0       -4.804156   -5.576557    0.294708
     88          6           0       -5.483554   -3.950729   -1.346297
     89          6           0       -5.834627   -6.421879   -0.156690
     90          6           0       -6.554271   -4.739783   -1.783056
     91          6           0       -6.750525   -5.976068   -1.129769
     92          8           0       -7.792389   -6.805041   -1.436243
     93          1           0       -4.104517   -0.997606    1.060676
     94          1           0       -3.277131   -3.607352    2.094965
     95          1           0       -2.543570   -4.344513   -0.220674
     96          1           0       -3.229524   -2.853961   -0.881599
     97          1           0       -4.049710   -6.018256    0.937915
     98          1           0       -5.357999   -3.044730   -1.935450
     99          1           0       -5.973143   -7.395671    0.274868
    100          1           0       -7.212158   -4.507994   -2.604067
    101          1           0       -8.534950   -6.363346   -1.841839
    102          7           0       -0.886347   -3.073874    2.026744
    103          6           0        0.561106   -2.988017    1.919000
    104          6           0        1.107139   -3.752804    0.730956
    105          8           0        0.792633   -4.925417    0.548024
    106          6           0        1.274325   -3.225682    3.249426
    107          6           0        0.531479   -2.603757    4.425006
    108          6           0        2.761356   -2.895106    3.129606
    109          6           0        0.929480   -2.976161    5.850737
    110          1           0       -1.296410   -3.901890    2.435691
    111          1           0        0.649366   -1.939861    1.637257
    112          1           0        1.246719   -4.288845    3.475528
    113          1           0       -0.548256   -2.795085    4.412089
    114          1           0        0.648087   -1.524528    4.286199
    115          1           0        2.886280   -1.820670    2.970603
    116          1           0        3.274346   -3.065477    4.074442
    117          1           0        3.287033   -3.404039    2.323038
    118          1           0        0.497152   -3.929805    6.141694
    119          1           0        2.007933   -3.037021    5.982396
    120          1           0        0.605723   -2.241219    6.582818
    121          7           0        2.003780   -3.078819    0.004333
    122          6           0        2.858625   -3.650260   -1.023235
    123          6           0        4.355867   -3.510993   -0.796362
    124          8           0        4.774366   -2.655757   -0.029857
    125          6           0        2.375478   -3.288906   -2.421982
    126          8           0        2.002538   -1.936925   -2.529987
    127          1           0        2.031116   -2.082157    0.135551
    128          1           0        2.801376   -4.741075   -0.990928
    129          1           0        1.523067   -3.943316   -2.578003
    130          1           0        3.142872   -3.398327   -3.184237
    131          1           0        1.660866   -1.633918   -1.682964
    132          7           0        5.197699   -4.287944   -1.493330
    133          6           0        6.617513   -4.288031   -1.230602
    134          6           0        7.397695   -2.999387   -1.442996
    135          8           0        8.254835   -2.624828   -0.649196
    136          6           0        7.263997   -5.390262   -2.054584
    137          1           0        4.987434   -4.842612   -2.309806
    138          1           0        6.768978   -4.646929   -0.206663
    139          1           0        8.299434   -5.449348   -1.713291
    140          1           0        6.848953   -6.398871   -1.976183
    141          1           0        7.390230   -5.061919   -3.085678
    142          7           0        7.110115   -2.383970   -2.583855
    143          6           0        7.480451   -1.002679   -2.858237
    144          6           0        7.052382    0.034754   -1.820022
    145          8           0        7.667299    1.072671   -1.659692
    146          6           0        6.969684   -0.625272   -4.237506
    147          1           0        6.671390   -2.891465   -3.342189
    148          1           0        8.573822   -0.993546   -2.865786
    149          1           0        7.573314    0.208491   -4.607736
    150          1           0        7.061961   -1.470373   -4.929814
    151          1           0        5.898247   -0.427450   -4.220530
    152          7           0        5.971741   -0.243972   -1.089662
    153          6           0        5.550148    0.638024   -0.016842
    154          6           0        6.357956    0.443858    1.262980
    155          8           0        6.799296    1.425174    1.860423
    156          6           0        4.029922    0.536398    0.129052
    157          6           0        3.233336    0.893212   -1.130287
    158          6           0        1.740190    0.810802   -0.854019
    159          8           0        1.279697   -0.280853   -0.437924
    160          8           0        0.970325    1.770499   -1.037292
    161          1           0        5.334351   -0.957635   -1.410472
    162          1           0        5.738828    1.670619   -0.317917
    163          1           0        3.782059    1.194000    0.950345
    164          1           0        3.760102   -0.476620    0.411880
    165          1           0        3.469716    0.057458   -1.790241
    166          1           0        3.518632    1.874678   -1.488381
    167          7           0        6.478245   -0.814720    1.690428
    168          6           0        7.194171   -1.207671    2.880571
    169          1           0        8.075706   -1.784346    2.599530
    170          1           0        7.502712   -0.318539    3.430363
    171          1           0        6.546745   -1.817552    3.510391
    172          1           0        5.931701   -1.500008    1.182423
    173         20           0       -1.203829    0.335690   -1.151208
    174          8           0       -0.965481   -2.094081   -2.209415
    175          1           0       -0.973098   -3.039826   -2.072270
    176          1           0       -1.079641   -1.994613   -3.151473
 ---------------------------------------------------------------------

 SCF Done:  E(RB3LYP) =  -5333.61829019     A.U. after   20 cycles

 The electronic state is 1-A.
 Alpha  occ. eigenvalues -- -145.37089 -19.19964 -19.15531 -19.14610 -19.13914
 Alpha  occ. eigenvalues --  -19.13085 -19.12864 -19.12101 -19.11271 -19.10766
 Alpha  occ. eigenvalues --  -19.10716 -19.10532 -19.10075 -19.08842 -19.07979
 Alpha  occ. eigenvalues --  -19.06447 -19.05021 -19.04750 -19.04529 -19.03250
 Alpha  occ. eigenvalues --  -19.02978 -19.02964 -19.02614 -18.99639 -15.42812
 Alpha  occ. eigenvalues --  -14.58374 -14.40920 -14.39019 -14.38053 -14.37997
 Alpha  occ. eigenvalues --  -14.36438 -14.36354 -14.35923 -14.34352 -14.34177
 Alpha  occ. eigenvalues --  -14.31726 -14.31510 -14.29580 -14.28797 -14.28593
 Alpha  occ. eigenvalues --  -12.56441 -12.56388 -12.56370 -10.34277 -10.33825
 Alpha  occ. eigenvalues --  -10.31439 -10.30907 -10.30559 -10.29803 -10.29508
 Alpha  occ. eigenvalues --  -10.29220 -10.29213 -10.27454 -10.27100 -10.27002
 Alpha  occ. eigenvalues --  -10.27000 -10.26898 -10.26456 -10.26019 -10.25193
 Alpha  occ. eigenvalues --  -10.24501 -10.24035 -10.23507 -10.23394 -10.23357
 Alpha  occ. eigenvalues --  -10.23271 -10.23247 -10.22888 -10.22786 -10.22698
 Alpha  occ. eigenvalues --  -10.22645 -10.22118 -10.21985 -10.21834 -10.21563
 Alpha  occ. eigenvalues --  -10.21039 -10.20894 -10.20569 -10.20294 -10.19784
 Alpha  occ. eigenvalues --  -10.19483 -10.19312 -10.19135 -10.18849 -10.18646
 Alpha  occ. eigenvalues --  -10.18335 -10.18220 -10.18025 -10.17823 -10.17174
 Alpha  occ. eigenvalues --  -10.17133 -10.16910 -10.16731 -10.16664 -10.16402
 Alpha  occ. eigenvalues --  -10.15273 -10.14235  -1.79702  -1.13683  -1.08965
 Alpha  occ. eigenvalues --   -1.07682  -1.07538  -1.07185  -1.05859  -1.05838
 Alpha  occ. eigenvalues --   -1.05532  -1.05053  -1.04733  -1.04642  -1.03604
 Alpha  occ. eigenvalues --   -1.03380  -1.03007  -1.02540  -1.01406  -1.00793
 Alpha  occ. eigenvalues --   -0.99284  -0.98401  -0.98204  -0.97932  -0.97568
 Alpha  occ. eigenvalues --   -0.96607  -0.96103  -0.95941  -0.95644  -0.95313
 Alpha  occ. eigenvalues --   -0.94945  -0.94636  -0.93450  -0.92451  -0.91421
 Alpha  occ. eigenvalues --   -0.91097  -0.90715  -0.89275  -0.88954  -0.88843
 Alpha  occ. eigenvalues --   -0.88376  -0.86909  -0.85716  -0.85276  -0.84996
 Alpha  occ. eigenvalues --   -0.83799  -0.82946  -0.82687  -0.81574  -0.80991
 Alpha  occ. eigenvalues --   -0.79797  -0.79000  -0.77668  -0.77404  -0.76110
 Alpha  occ. eigenvalues --   -0.75382  -0.74958  -0.74139  -0.74037  -0.72960
 Alpha  occ. eigenvalues --   -0.72774  -0.72465  -0.71995  -0.71517  -0.70966
 Alpha  occ. eigenvalues --   -0.70227  -0.69818  -0.69101  -0.68729  -0.67860
 Alpha  occ. eigenvalues --   -0.67573  -0.67384  -0.66644  -0.65098  -0.64780
 Alpha  occ. eigenvalues --   -0.64051  -0.63862  -0.63600  -0.63071  -0.62304
 Alpha  occ. eigenvalues --   -0.62080  -0.61523  -0.61029  -0.60952  -0.60741
 Alpha  occ. eigenvalues --   -0.59860  -0.59759  -0.59606  -0.59371  -0.58903
 Alpha  occ. eigenvalues --   -0.58347  -0.58052  -0.57398  -0.57114  -0.56999
 Alpha  occ. eigenvalues --   -0.56232  -0.55758  -0.55673  -0.55076  -0.54719
 Alpha  occ. eigenvalues --   -0.54508  -0.54124  -0.53802  -0.53328  -0.53045
 Alpha  occ. eigenvalues --   -0.52878  -0.52739  -0.52486  -0.52098  -0.51942
 Alpha  occ. eigenvalues --   -0.51501  -0.51341  -0.51057  -0.50731  -0.50529
 Alpha  occ. eigenvalues --   -0.49987  -0.49933  -0.49691  -0.49470  -0.49136
 Alpha  occ. eigenvalues --   -0.48983  -0.48811  -0.48295  -0.48089  -0.47860
 Alpha  occ. eigenvalues --   -0.47624  -0.47559  -0.47298  -0.47177  -0.46916
 Alpha  occ. eigenvalues --   -0.46833  -0.46586  -0.46423  -0.46396  -0.46335
 Alpha  occ. eigenvalues --   -0.46214  -0.45876  -0.45629  -0.45517  -0.45399
 Alpha  occ. eigenvalues --   -0.45081  -0.44855  -0.44616  -0.44436  -0.44349
 Alpha  occ. eigenvalues --   -0.44225  -0.43991  -0.43635  -0.43599  -0.43544
 Alpha  occ. eigenvalues --   -0.43365  -0.43196  -0.43085  -0.42922  -0.42893
 Alpha  occ. eigenvalues --   -0.42809  -0.42425  -0.42391  -0.42040  -0.41884
 Alpha  occ. eigenvalues --   -0.41719  -0.41448  -0.41405  -0.41286  -0.41268
 Alpha  occ. eigenvalues --   -0.41149  -0.40795  -0.40665  -0.40482  -0.40420
 Alpha  occ. eigenvalues --   -0.40251  -0.40202  -0.40090  -0.39934  -0.39835
 Alpha  occ. eigenvalues --   -0.39727  -0.39661  -0.39277  -0.39115  -0.39045
 Alpha  occ. eigenvalues --   -0.38820  -0.38786  -0.38688  -0.38522  -0.38276
 Alpha  occ. eigenvalues --   -0.38195  -0.38051  -0.37956  -0.37837  -0.37541
 Alpha  occ. eigenvalues --   -0.37371  -0.37230  -0.37104  -0.36979  -0.36676
 Alpha  occ. eigenvalues --   -0.36567  -0.36460  -0.36359  -0.36169  -0.36112
 Alpha  occ. eigenvalues --   -0.36004  -0.35887  -0.35106  -0.35051  -0.34819
 Alpha  occ. eigenvalues --   -0.34802  -0.34547  -0.34498  -0.34365  -0.34288
 Alpha  occ. eigenvalues --   -0.34017  -0.33179  -0.32931  -0.32813  -0.32678
 Alpha  occ. eigenvalues --   -0.32462  -0.32147  -0.32012  -0.31619  -0.31359
 Alpha  occ. eigenvalues --   -0.31342  -0.30798  -0.30557  -0.30428  -0.30325
 Alpha  occ. eigenvalues --   -0.30077  -0.30021  -0.29569  -0.29091  -0.28691
 Alpha  occ. eigenvalues --   -0.28621  -0.28297  -0.28263  -0.27967  -0.27916
 Alpha  occ. eigenvalues --   -0.27792  -0.26914  -0.26863  -0.26498  -0.26185
 Alpha  occ. eigenvalues --   -0.26057  -0.25791  -0.24959  -0.24222  -0.24065
 Alpha  occ. eigenvalues --   -0.23820  -0.23426  -0.22975  -0.22393  -0.22303
 Alpha  occ. eigenvalues --   -0.22085  -0.21712  -0.21133  -0.20687  -0.20331
 Alpha  occ. eigenvalues --   -0.19976  -0.19677  -0.19244  -0.18998  -0.18630
 Alpha  occ. eigenvalues --   -0.18362  -0.17864  -0.15609
 Alpha virt. eigenvalues --   -0.09890  -0.04196  -0.03887  -0.03877  -0.03028
 Alpha virt. eigenvalues --   -0.02009  -0.01399  -0.01050  -0.00990  -0.00406
 Alpha virt. eigenvalues --    0.00374   0.00604   0.00776   0.01531   0.01658

 Mulliken charges:
               1
     1  C    0.046080
     2  C    0.039214
     3  O   -0.290564
     4  H    0.033822
     5  H    0.039236
     6  H    0.019137
     7  N   -0.121233
     8  C    0.060621
     9  C    0.079848
    10  O   -0.281448
    11  C    0.097155
    12  C    0.157126
    13  O   -0.374359
    14  O   -0.468535
    15  H    0.117512
    16  H    0.015349
    17  H    0.006104
    18  H   -0.001735
    19  N   -0.148748
    20  C    0.188276
    21  C    0.037610
    22  O   -0.261772
    23  C   -0.069759
    24  C    0.071932
    25  C   -0.064725
    26  C    0.005161
    27  N    0.094777
    28  H    0.141435
    29  H   -0.009412
    30  H    0.011758
    31  H    0.030408
    32  H    0.041781
    33  H    0.011560
    34  H    0.020169
    35  H    0.034884
    36  H    0.072230
    37  H    0.088930
    38  H    0.189885
    39  H    0.196792
    40  H    0.186818
    41  N   -0.182727
    42  C    0.152119
    43  C    0.050321
    44  O   -0.287194
    45  C    0.067881
    46  C    0.112138
    47  O   -0.375475
    48  O   -0.482401
    49  H    0.142327
    50  H    0.001461
    51  H   -0.018337
    52  H    0.019853
    53  N   -0.161924
    54  C    0.231892
    55  C    0.052950
    56  O   -0.309302
    57  H    0.144617
    58  H    0.010981
    59  H    0.034079
    60  N   -0.177058
    61  C    0.167680
    62  C    0.048072
    63  O   -0.315151
    64  C    0.079306
    65  C    0.093201
    66  N   -0.031410
    67  O   -0.367074
    68  H    0.142203
    69  H    0.030017
    70  H    0.094641
    71  H    0.000054
    72  H    0.131053
    73  H    0.101690
    74  N   -0.146487
    75  C    0.227627
    76  C    0.022249
    77  O   -0.306403
    78  H    0.167920
    79  H    0.032197
    80  H    0.031151
    81  N   -0.149492
    82  C    0.120484
    83  C    0.134536
    84  O   -0.349204
    85  C    0.127553
    86  C   -0.004576
    87  C    0.036975
    88  C    0.009989
    89  C   -0.031011
    90  C   -0.035920
    91  C    0.148830
    92  O   -0.216510
    93  H    0.153219
    94  H   -0.009173
    95  H   -0.017670
    96  H   -0.021639
    97  H   -0.036992
    98  H   -0.036388
    99  H   -0.034037
   100  H   -0.046981
   101  H    0.174521
   102  N   -0.121016
   103  C    0.126222
   104  C    0.066459
   105  O   -0.272898
   106  C   -0.047347
   107  C   -0.000648
   108  C    0.037087
   109  C    0.039124
   110  H    0.136384
   111  H    0.025285
   112  H   -0.017169
   113  H    0.004036
   114  H   -0.001218
   115  H    0.018865
   116  H    0.001509
   117  H    0.016898
   118  H    0.011020
   119  H   -0.003093
   120  H    0.008753
   121  N   -0.164406
   122  C    0.060244
   123  C    0.119608
   124  O   -0.276578
   125  C    0.272166
   126  O   -0.331538
   127  H    0.174664
   128  H    0.017387
   129  H   -0.014622
   130  H   -0.022453
   131  H    0.171862
   132  N   -0.113609
   133  C    0.043093
   134  C    0.080011
   135  O   -0.236192
   136  C    0.017913
   137  H    0.122585
   138  H    0.020871
   139  H    0.038870
   140  H    0.044712
   141  H   -0.001872
   142  N   -0.152205
   143  C    0.077215
   144  C    0.072738
   145  O   -0.270669
   146  C    0.041776
   147  H    0.108633
   148  H    0.025412
   149  H    0.042244
   150  H    0.009704
   151  H    0.018246
   152  N   -0.152243
   153  C    0.149227
   154  C    0.066914
   155  O   -0.292666
   156  C   -0.039480
   157  C    0.126824
   158  C    0.143828
   159  O   -0.454196
   160  O   -0.381968
   161  H    0.130907
   162  H   -0.052007
   163  H    0.018417
   164  H    0.011290
   165  H   -0.024903
   166  H   -0.034949
   167  N   -0.156713
   168  C    0.128990
   169  H    0.030538
   170  H    0.032557
   171  H    0.011814
   172  H    0.133643
   173  Ca   1.293953
   174  O   -0.273153
   175  H    0.192782
   176  H    0.177963
 Sum of Mulliken charges =  -0.00000

 Dipole moment (field-independent basis, Debye):
    X=             38.0513    Y=             -1.6762    Z=             -7.4172  Tot=             38.8037
 Quadrupole moment (field-independent basis, Debye-Ang):
   XX=           -597.8997   YY=           -486.9986   ZZ=           -522.3985
   XY=            136.0112   XZ=            -25.4163   YZ=             28.5161

 ESP charges:
               1
     1  C   -0.371415
     2  C    0.715613
     3  O   -0.632439
     4  H    0.105802
     5  H    0.105007
     6  H    0.097037
     7  N   -0.758281
     8  C    0.317422
     9  C    0.539365
    10  O   -0.508479
    11  C   -0.313022
    12  C    0.847475
    13  O   -0.654197
    14  O   -1.181287
    15  H    0.370532
    16  H    0.158101
    17  H    0.077679
    18  H    0.048381
    19  N   -0.343404
    20  C   -0.413771
    21  C    0.690380
    22  O   -0.575659
    23  C    0.156345
    24  C   -0.129055
    25  C    0.045301
    26  C    0.136362
    27  N   -0.473054
    28  H    0.342197
    29  H    0.169816
    30  H    0.019205
    31  H   -0.030288
    32  H    0.078626
    33  H    0.055701
    34  H    0.009113
    35  H    0.014208
    36  H    0.051720
    37  H    0.050813
    38  H    0.356195
    39  H    0.355035
    40  H    0.354704
    41  N   -0.686023
    42  C    0.294138
    43  C    0.331882
    44  O   -0.537240
    45  C   -0.312757
    46  C    0.823234
    47  O   -0.706237
    48  O   -0.898923
    49  H    0.428667
    50  H    0.060663
    51  H    0.067270
    52  H    0.084754
    53  N   -0.018953
    54  C   -0.339794
    55  C    0.679703
    56  O   -0.608735
    57  H    0.153048
    58  H    0.126483
    59  H    0.168027
    60  N   -0.459466
    61  C    0.004628
    62  C    0.389408
    63  O   -0.509788
    64  C   -0.327257
    65  C    0.646177
    66  N   -0.781380
    67  O   -0.488051
    68  H    0.405456
    69  H    0.139401
    70  H    0.189335
    71  H    0.084584
    72  H    0.385530
    73  H    0.345735
    74  N   -0.159044
    75  C   -0.321881
    76  C    0.785507
    77  O   -0.605902
    78  H    0.275417
    79  H    0.139950
    80  H    0.115129
    81  N   -0.639446
    82  C    0.109912
    83  C    0.810657
    84  O   -0.598787
    85  C    0.058162
    86  C   -0.236775
    87  C    0.107642
    88  C    0.076598
    89  C   -0.421724
    90  C   -0.481629
    91  C    0.542861
    92  O   -0.605746
    93  H    0.358931
    94  H    0.044283
    95  H   -0.002984
    96  H   -0.047145
    97  H    0.067391
    98  H    0.115600
    99  H    0.183132
   100  H    0.173891
   101  H    0.423930
   102  N   -0.793316
   103  C    0.257390
   104  C    0.320137
   105  O   -0.514447
   106  C    0.188289
   107  C    0.108425
   108  C   -0.271099
   109  C   -0.288078
   110  H    0.350656
   111  H   -0.010627
   112  H   -0.032269
   113  H    0.017077
   114  H   -0.002331
   115  H    0.065883
   116  H    0.074443
   117  H    0.039898
   118  H    0.071949
   119  H    0.053933
   120  H    0.079624
   121  N   -0.139819
   122  C    0.026124
   123  C    0.512922
   124  O   -0.438029
   125  C    0.199033
   126  O   -0.557716
   127  H    0.361696
   128  H    0.035114
   129  H   -0.027881
   130  H    0.022093
   131  H    0.346203
   132  N   -0.529975
   133  C    0.259760
   134  C    0.330220
   135  O   -0.479092
   136  C   -0.237679
   137  H    0.274266
   138  H    0.037165
   139  H    0.092266
   140  H    0.089604
   141  H    0.037345
   142  N   -0.280220
   143  C    0.035108
   144  C    0.383137
   145  O   -0.512085
   146  C   -0.352116
   147  H    0.247054
   148  H    0.099197
   149  H    0.124749
   150  H    0.100639
   151  H    0.095099
   152  N    0.138468
   153  C   -0.673496
   154  C    0.697063
   155  O   -0.573496
   156  C    0.646334
   157  C   -0.458822
   158  C    0.934819
   159  O   -0.878534
   160  O   -0.775561
   161  H    0.113841
   162  H    0.109334
   163  H   -0.044192
   164  H   -0.261280
   165  H    0.029613
   166  H    0.108302
   167  N   -0.277087
   168  C   -0.118318
   169  H    0.070777
   170  H    0.084886
   171  H    0.060814
   172  H    0.209969
   173  Ca   1.707547
   174  O   -0.899826
   175  H    0.471584
   176  H    0.422311
 Sum of ESP charges =  -0.00000

 Normal termination of Gaussian 16 at Wed Sep 18 16:11:29 2019.
