 Gaussian 16, Revision A.03,
 Gaussian 16:  ES64L-G16RevA.03 25-Dec-2016

 ----------------------------------------------------------------------
 #b3lyp/svp scf=(tight,noincore) Test #IOP(5/87=12) Density=Current Pop
 =(MK,readradii) iop(6/33=2) iop(6/42=6)
 ----------------------------------------------------------------------

 -----------------
 CaMKII_loop3_92.0
 -----------------
 Symbolic Z-matrix:
 Charge =  0 Multiplicity = 1

                         Standard orientation:
 ---------------------------------------------------------------------
 Center     Atomic      Atomic             Coordinates (Angstroms)
 Number     Number       Type             X           Y           Z
 ---------------------------------------------------------------------
      1          6           0        2.072401    2.100019    6.181742
      2          6           0        1.710581    2.072840    4.701456
      3          8           0        2.553160    1.616320    3.928055
      4          1           0        1.343352    2.703845    6.722444
      5          1           0        2.066497    1.083891    6.576128
      6          1           0        3.064758    2.532366    6.306005
      7          7           0        0.504429    2.523586    4.360684
      8          6           0       -0.112651    2.338247    3.063779
      9          6           0       -0.019492    3.627703    2.255183
     10          8           0       -0.599899    4.693177    2.478549
     11          6           0       -1.572354    1.919388    3.209112
     12          6           0       -2.139074    1.547908    1.845759
     13          8           0       -3.267084    1.041852    1.692134
     14          8           0       -1.398768    1.567457    0.835083
     15          1           0       -0.161183    2.786230    5.070880
     16          1           0        0.454412    1.573290    2.536256
     17          1           0       -2.176775    2.704373    3.670277
     18          1           0       -1.626416    1.007052    3.791538
     19          7           0        0.792393    3.536091    1.206827
     20          6           0        1.445045    4.644455    0.540965
     21          6           0        0.387616    5.482167   -0.181171
     22          8           0        0.343379    6.704043   -0.103959
     23          6           0        2.659118    4.267447   -0.300041
     24          6           0        3.459231    5.489869   -0.746253
     25          6           0        4.567487    5.189653   -1.744121
     26          6           0        5.304698    6.410096   -2.298682
     27          7           0        6.180787    6.043656   -3.425442
     28          1           0        1.205812    2.627516    1.031396
     29          1           0        1.833904    5.299932    1.323103
     30          1           0        2.229136    3.758453   -1.162503
     31          1           0        3.327236    3.672544    0.319724
     32          1           0        3.925971    5.978126    0.111860
     33          1           0        2.783934    6.232476   -1.165191
     34          1           0        4.127425    4.642891   -2.580659
     35          1           0        5.257308    4.470196   -1.312811
     36          1           0        5.861102    6.982152   -1.565220
     37          1           0        4.592930    7.177389   -2.591681
     38          1           0        5.779756    5.220356   -3.855036
     39          1           0        6.135329    6.785643   -4.105728
     40          1           0        7.133783    5.946973   -3.118600
     41          7           0       -0.487823    4.679734   -0.787972
     42          6           0       -1.668273    5.212854   -1.442358
     43          6           0       -2.971029    5.041413   -0.667222
     44          8           0       -3.921852    5.732248   -1.029550
     45          6           0       -1.693958    4.606915   -2.840492
     46          6           0       -2.101163    3.144421   -2.826586
     47          8           0       -2.020905    2.691131   -3.988132
     48          8           0       -2.459440    2.410972   -1.874226
     49          1           0       -0.268640    3.692804   -0.782758
     50          1           0       -1.529133    6.288738   -1.533547
     51          1           0       -0.649174    4.716899   -3.157399
     52          1           0       -2.478660    5.099808   -3.407325
     53          7           0       -2.997408    4.275474    0.417002
     54          6           0       -4.116547    4.196643    1.336736
     55          6           0       -5.291144    3.426502    0.737815
     56          8           0       -6.398513    3.664271    1.212997
     57          1           0       -2.244984    3.619629    0.591146
     58          1           0       -4.353864    5.223269    1.609902
     59          1           0       -3.804291    3.663138    2.243195
     60          7           0       -5.115688    2.557706   -0.259135
     61          6           0       -6.209704    1.942195   -0.983342
     62          6           0       -6.883433    0.760824   -0.285452
     63          8           0       -7.869017    0.250044   -0.799483
     64          6           0       -5.684188    1.632858   -2.379244
     65          6           0       -4.763378    0.426967   -2.505094
     66          7           0       -4.866549   -0.189727   -3.678995
     67          8           0       -4.069384   -0.023668   -1.595643
     68          1           0       -4.174279    2.292386   -0.487949
     69          1           0       -7.050797    2.622841   -1.059391
     70          1           0       -5.187308    2.569516   -2.646043
     71          1           0       -6.562553    1.482055   -3.013778
     72          1           0       -5.594997    0.018658   -4.345282
     73          1           0       -4.286039   -0.989375   -3.858356
     74          7           0       -6.190169    0.241922    0.736423
     75          6           0       -6.751256   -0.896855    1.424441
     76          6           0       -5.748047   -2.011568    1.629344
     77          8           0       -6.133145   -3.041455    2.181823
     78          1           0       -5.437448    0.802108    1.116163
     79          1           0       -7.663781   -1.256761    0.946460
     80          1           0       -6.915736   -0.595267    2.459521
     81          7           0       -4.509249   -1.936331    1.117370
     82          6           0       -3.585150   -3.039944    1.014510
     83          6           0       -2.151266   -2.550735    1.212373
     84          8           0       -1.868220   -1.570510    0.516999
     85          6           0       -3.799241   -3.713451   -0.343155
     86          6           0       -5.127685   -4.328946   -0.703297
     87          6           0       -5.533111   -5.591041   -0.250146
     88          6           0       -5.864397   -3.650054   -1.682563
     89          6           0       -6.670968   -6.154451   -0.834483
     90          6           0       -7.011000   -4.182256   -2.282698
     91          6           0       -7.328194   -5.504271   -1.901827
     92          8           0       -8.435725   -6.099916   -2.421039
     93          1           0       -4.277908   -1.059222    0.683709
     94          1           0       -3.761085   -3.764132    1.808234
     95          1           0       -3.067497   -4.496299   -0.497100
     96          1           0       -3.590731   -2.955050   -1.093656
     97          1           0       -4.996536   -6.155142    0.490649
     98          1           0       -5.564398   -2.680224   -2.047023
     99          1           0       -7.060117   -7.061831   -0.417561
    100          1           0       -7.626192   -3.710285   -3.041699
    101          1           0       -8.700266   -6.975563   -2.137030
    102          7           0       -1.188198   -3.277680    1.781453
    103          6           0        0.214439   -2.944790    1.839718
    104          6           0        0.980566   -3.920287    0.963274
    105          8           0        0.685211   -5.108217    1.027216
    106          6           0        0.682206   -2.926847    3.293737
    107          6           0       -0.116727   -2.127863    4.320738
    108          6           0        2.136202   -2.480417    3.313653
    109          6           0        0.012327   -2.806450    5.681386
    110          1           0       -1.506274   -4.060301    2.342194
    111          1           0        0.347545   -1.934401    1.457885
    112          1           0        0.680010   -3.961561    3.656314
    113          1           0       -1.178594   -2.009145    4.092389
    114          1           0        0.244889   -1.106717    4.232448
    115          1           0        2.258293   -1.630768    2.639346
    116          1           0        2.489546   -2.066636    4.258340
    117          1           0        2.861523   -3.245565    3.020980
    118          1           0       -0.301483   -2.158927    6.495042
    119          1           0       -0.745032   -3.596285    5.736777
    120          1           0        1.024675   -3.205651    5.724865
    121          7           0        2.022185   -3.397275    0.305635
    122          6           0        2.788905   -4.115397   -0.689373
    123          6           0        4.276305   -3.968691   -0.406495
    124          8           0        4.588944   -3.145840    0.450986
    125          6           0        2.517606   -3.408101   -2.009498
    126          8           0        2.751134   -4.338993   -3.047334
    127          1           0        1.954266   -2.400732    0.153360
    128          1           0        2.461609   -5.152933   -0.715772
    129          1           0        3.242683   -2.619333   -2.194722
    130          1           0        1.459171   -3.185132   -2.154062
    131          1           0        2.604774   -3.954647   -3.909863
    132          7           0        5.183496   -4.657732   -1.111637
    133          6           0        6.589254   -4.665102   -0.784087
    134          6           0        7.384525   -3.374067   -0.908478
    135          8           0        8.096137   -3.018845    0.032333
    136          6           0        7.191862   -5.834383   -1.566676
    137          1           0        4.726629   -5.286906   -1.766170
    138          1           0        6.632684   -5.007465    0.250031
    139          1           0        8.272741   -5.731472   -1.613682
    140          1           0        7.041691   -6.776433   -1.034050
    141          1           0        6.800781   -5.924662   -2.579349
    142          7           0        7.352131   -2.621485   -2.011869
    143          6           0        7.965669   -1.309802   -2.115119
    144          6           0        7.268831   -0.248061   -1.271247
    145          8           0        7.882994    0.742084   -0.870600
    146          6           0        8.133713   -0.962635   -3.592359
    147          1           0        6.987617   -3.065292   -2.838769
    148          1           0        8.971803   -1.445513   -1.724892
    149          1           0        7.234132   -0.997336   -4.201005
    150          1           0        8.438369    0.076481   -3.695902
    151          1           0        8.929054   -1.573273   -4.030027
    152          7           0        6.003982   -0.462354   -0.937276
    153          6           0        5.251743    0.351687   -0.001341
    154          6           0        5.770450    0.220583    1.421211
    155          8           0        6.120490    1.236501    2.019025
    156          6           0        3.743380    0.141136   -0.018920
    157          6           0        3.038422    0.387460   -1.357598
    158          6           0        1.544657    0.120103   -1.463833
    159          8           0        0.872899    0.717934   -2.335349
    160          8           0        0.985028   -0.720256   -0.737808
    161          1           0        5.613805   -1.252389   -1.433770
    162          1           0        5.339316    1.421209   -0.222146
    163          1           0        3.309829    0.843011    0.696207
    164          1           0        3.476295   -0.834104    0.373601
    165          1           0        3.565385   -0.129604   -2.164477
    166          1           0        3.248955    1.422977   -1.618709
    167          7           0        6.120329   -0.998554    1.844873
    168          6           0        6.646717   -1.351395    3.147954
    169          1           0        7.362176   -2.167386    3.042001
    170          1           0        7.145402   -0.486841    3.585354
    171          1           0        5.830261   -1.667433    3.797355
    172          1           0        5.900406   -1.806826    1.287711
    173         20           0       -1.494488    0.166651   -1.297000
    174          8           0       -1.131987   -2.327000   -2.277815
    175          1           0       -0.875358   -2.430823   -3.201103
    176          1           0       -1.330843   -3.215441   -1.998479
 ---------------------------------------------------------------------

 SCF Done:  E(RB3LYP) =  -5333.54802163     A.U. after   19 cycles

 The electronic state is 1-A.
 Alpha  occ. eigenvalues -- -145.35177 -19.18783 -19.15784 -19.14277 -19.12902
 Alpha  occ. eigenvalues --  -19.11863 -19.11173 -19.10424 -19.09928 -19.09919
 Alpha  occ. eigenvalues --  -19.07755 -19.07637 -19.07508 -19.07078 -19.06918
 Alpha  occ. eigenvalues --  -19.06189 -19.05541 -19.04892 -19.04345 -19.03836
 Alpha  occ. eigenvalues --  -19.03431 -19.03245 -19.02897 -19.00296 -15.40935
 Alpha  occ. eigenvalues --  -14.59330 -14.39091 -14.38643 -14.36473 -14.36368
 Alpha  occ. eigenvalues --  -14.35990 -14.35303 -14.34425 -14.33411 -14.31890
 Alpha  occ. eigenvalues --  -14.31861 -14.31492 -14.30745 -14.29389 -14.28961
 Alpha  occ. eigenvalues --  -12.54555 -12.54522 -12.54481 -10.35226 -10.31052
 Alpha  occ. eigenvalues --  -10.30894 -10.29653 -10.29130 -10.28918 -10.28171
 Alpha  occ. eigenvalues --  -10.27566 -10.26761 -10.26741 -10.26696 -10.26233
 Alpha  occ. eigenvalues --  -10.25890 -10.25824 -10.25277 -10.25263 -10.25248
 Alpha  occ. eigenvalues --  -10.24157 -10.23799 -10.23612 -10.23592 -10.23333
 Alpha  occ. eigenvalues --  -10.22765 -10.22532 -10.22484 -10.22448 -10.22359
 Alpha  occ. eigenvalues --  -10.22238 -10.22174 -10.21905 -10.21612 -10.21446
 Alpha  occ. eigenvalues --  -10.21152 -10.19339 -10.19277 -10.18849 -10.18704
 Alpha  occ. eigenvalues --  -10.18643 -10.18626 -10.18357 -10.17820 -10.17808
 Alpha  occ. eigenvalues --  -10.17746 -10.17734 -10.17689 -10.17558 -10.17431
 Alpha  occ. eigenvalues --  -10.17423 -10.17315 -10.17312 -10.17284 -10.16916
 Alpha  occ. eigenvalues --  -10.16261 -10.14272  -1.77867  -1.14672  -1.06439
 Alpha  occ. eigenvalues --   -1.05812  -1.05591  -1.05463  -1.05204  -1.04403
 Alpha  occ. eigenvalues --   -1.04339  -1.03665  -1.03510  -1.03007  -1.02944
 Alpha  occ. eigenvalues --   -1.02560  -1.02335  -1.01137  -1.00179  -0.99364
 Alpha  occ. eigenvalues --   -0.99113  -0.99060  -0.98843  -0.98131  -0.97207
 Alpha  occ. eigenvalues --   -0.96751  -0.96021  -0.95978  -0.95055  -0.93195
 Alpha  occ. eigenvalues --   -0.92710  -0.92608  -0.91713  -0.91217  -0.91128
 Alpha  occ. eigenvalues --   -0.91096  -0.88982  -0.88893  -0.88570  -0.88169
 Alpha  occ. eigenvalues --   -0.88034  -0.87790  -0.86771  -0.86448  -0.85484
 Alpha  occ. eigenvalues --   -0.83389  -0.82259  -0.81911  -0.81307  -0.80130
 Alpha  occ. eigenvalues --   -0.78962  -0.77899  -0.77458  -0.77077  -0.76013
 Alpha  occ. eigenvalues --   -0.75303  -0.74712  -0.74096  -0.73888  -0.73111
 Alpha  occ. eigenvalues --   -0.72869  -0.72583  -0.71993  -0.70988  -0.69861
 Alpha  occ. eigenvalues --   -0.69812  -0.68897  -0.68344  -0.67997  -0.67627
 Alpha  occ. eigenvalues --   -0.67296  -0.66346  -0.64824  -0.64302  -0.64078
 Alpha  occ. eigenvalues --   -0.63547  -0.63447  -0.62415  -0.62174  -0.61773
 Alpha  occ. eigenvalues --   -0.61399  -0.60646  -0.60536  -0.59898  -0.59453
 Alpha  occ. eigenvalues --   -0.59207  -0.59009  -0.58935  -0.58175  -0.57629
 Alpha  occ. eigenvalues --   -0.57444  -0.57091  -0.57043  -0.55874  -0.55784
 Alpha  occ. eigenvalues --   -0.55658  -0.55486  -0.55383  -0.54915  -0.54494
 Alpha  occ. eigenvalues --   -0.54388  -0.54064  -0.53827  -0.53723  -0.53167
 Alpha  occ. eigenvalues --   -0.52888  -0.52663  -0.52607  -0.52125  -0.52046
 Alpha  occ. eigenvalues --   -0.51092  -0.51023  -0.50397  -0.50213  -0.49963
 Alpha  occ. eigenvalues --   -0.49640  -0.49478  -0.49169  -0.48479  -0.48464
 Alpha  occ. eigenvalues --   -0.48393  -0.47935  -0.47737  -0.47517  -0.47327
 Alpha  occ. eigenvalues --   -0.47115  -0.46993  -0.46746  -0.46406  -0.46121
 Alpha  occ. eigenvalues --   -0.45974  -0.45474  -0.45403  -0.45347  -0.45285
 Alpha  occ. eigenvalues --   -0.45066  -0.44870  -0.44761  -0.44670  -0.44283
 Alpha  occ. eigenvalues --   -0.44029  -0.43953  -0.43660  -0.43482  -0.43299
 Alpha  occ. eigenvalues --   -0.43154  -0.43101  -0.42926  -0.42806  -0.42610
 Alpha  occ. eigenvalues --   -0.42382  -0.42327  -0.42191  -0.42061  -0.41968
 Alpha  occ. eigenvalues --   -0.41760  -0.41680  -0.41480  -0.41338  -0.41245
 Alpha  occ. eigenvalues --   -0.41195  -0.41081  -0.40828  -0.40789  -0.40755
 Alpha  occ. eigenvalues --   -0.40611  -0.40389  -0.40271  -0.39878  -0.39616
 Alpha  occ. eigenvalues --   -0.39589  -0.39504  -0.39386  -0.39123  -0.39083
 Alpha  occ. eigenvalues --   -0.38920  -0.38735  -0.38554  -0.38412  -0.38224
 Alpha  occ. eigenvalues --   -0.38168  -0.38107  -0.37989  -0.37885  -0.37695
 Alpha  occ. eigenvalues --   -0.37470  -0.37263  -0.37170  -0.36924  -0.36880
 Alpha  occ. eigenvalues --   -0.36743  -0.36678  -0.36507  -0.36438  -0.36392
 Alpha  occ. eigenvalues --   -0.36076  -0.35943  -0.35837  -0.35669  -0.35239
 Alpha  occ. eigenvalues --   -0.34976  -0.34817  -0.34774  -0.34680  -0.34579
 Alpha  occ. eigenvalues --   -0.34259  -0.34146  -0.34005  -0.33803  -0.33473
 Alpha  occ. eigenvalues --   -0.33373  -0.33100  -0.33072  -0.32878  -0.32498
 Alpha  occ. eigenvalues --   -0.32389  -0.32103  -0.31823  -0.31628  -0.31620
 Alpha  occ. eigenvalues --   -0.31567  -0.30863  -0.30855  -0.30124  -0.30053
 Alpha  occ. eigenvalues --   -0.29800  -0.28758  -0.28420  -0.27417  -0.27365
 Alpha  occ. eigenvalues --   -0.27259  -0.26894  -0.26814  -0.26558  -0.26183
 Alpha  occ. eigenvalues --   -0.26100  -0.25438  -0.25371  -0.25167  -0.24938
 Alpha  occ. eigenvalues --   -0.24326  -0.23932  -0.23636  -0.23294  -0.23051
 Alpha  occ. eigenvalues --   -0.22975  -0.22748  -0.22688  -0.22525  -0.22343
 Alpha  occ. eigenvalues --   -0.22093  -0.21848  -0.21713  -0.21183  -0.20570
 Alpha  occ. eigenvalues --   -0.20323  -0.20149  -0.19886  -0.19202  -0.18844
 Alpha  occ. eigenvalues --   -0.18313  -0.17975  -0.16285
 Alpha virt. eigenvalues --   -0.11043  -0.05706  -0.04851  -0.02543  -0.01542
 Alpha virt. eigenvalues --   -0.01317  -0.01036  -0.00329  -0.00018   0.00313
 Alpha virt. eigenvalues --    0.00530   0.01311   0.01373   0.01576   0.01994

 Mulliken charges:
               1
     1  C    0.057167
     2  C    0.017229
     3  O   -0.293824
     4  H   -0.010559
     5  H    0.039196
     6  H    0.039969
     7  N   -0.099457
     8  C    0.078665
     9  C    0.084454
    10  O   -0.267369
    11  C    0.084247
    12  C    0.098831
    13  O   -0.363204
    14  O   -0.478153
    15  H    0.123239
    16  H    0.001784
    17  H    0.025494
    18  H    0.011432
    19  N   -0.111082
    20  C    0.084066
    21  C    0.051289
    22  O   -0.267666
    23  C    0.045112
    24  C   -0.014105
    25  C   -0.034396
    26  C    0.010411
    27  N    0.097945
    28  H    0.127251
    29  H   -0.006189
    30  H    0.021946
    31  H    0.043027
    32  H    0.018759
    33  H    0.025896
    34  H    0.017164
    35  H    0.047038
    36  H    0.070993
    37  H    0.070591
    38  H    0.194363
    39  H    0.191092
    40  H    0.206151
    41  N   -0.155892
    42  C    0.119500
    43  C    0.077754
    44  O   -0.298731
    45  C    0.082111
    46  C    0.104533
    47  O   -0.385620
    48  O   -0.480301
    49  H    0.134099
    50  H    0.008718
    51  H   -0.007125
    52  H    0.026046
    53  N   -0.171487
    54  C    0.239231
    55  C    0.025403
    56  O   -0.302859
    57  H    0.160919
    58  H    0.022275
    59  H    0.020730
    60  N   -0.170829
    61  C    0.144163
    62  C    0.059732
    63  O   -0.292339
    64  C    0.032538
    65  C    0.131168
    66  N   -0.033457
    67  O   -0.353316
    68  H    0.164680
    69  H    0.017736
    70  H    0.082055
    71  H    0.010248
    72  H    0.133595
    73  H    0.114121
    74  N   -0.192777
    75  C    0.256218
    76  C   -0.001858
    77  O   -0.312392
    78  H    0.163719
    79  H    0.061011
    80  H    0.018416
    81  N   -0.146424
    82  C    0.166251
    83  C    0.122366
    84  O   -0.381856
    85  C    0.123257
    86  C    0.037476
    87  C    0.018193
    88  C   -0.017690
    89  C   -0.044759
    90  C   -0.008306
    91  C    0.167223
    92  O   -0.218682
    93  H    0.153775
    94  H   -0.017078
    95  H   -0.020696
    96  H   -0.035894
    97  H   -0.038530
    98  H   -0.041367
    99  H   -0.047484
   100  H   -0.022637
   101  H    0.173714
   102  N   -0.101444
   103  C    0.130681
   104  C    0.072258
   105  O   -0.285314
   106  C   -0.121348
   107  C    0.024755
   108  C    0.048834
   109  C    0.035709
   110  H    0.130752
   111  H    0.033403
   112  H   -0.019284
   113  H   -0.004873
   114  H    0.006073
   115  H    0.015090
   116  H    0.006902
   117  H    0.019477
   118  H    0.005436
   119  H    0.006016
   120  H    0.020579
   121  N   -0.124404
   122  C    0.064783
   123  C    0.059566
   124  O   -0.270734
   125  C    0.250932
   126  O   -0.341451
   127  H    0.166903
   128  H    0.029476
   129  H   -0.013320
   130  H   -0.005444
   131  H    0.161085
   132  N   -0.116454
   133  C    0.120766
   134  C    0.064044
   135  O   -0.256900
   136  C    0.008722
   137  H    0.127454
   138  H    0.022565
   139  H    0.029191
   140  H    0.038282
   141  H    0.015328
   142  N   -0.154271
   143  C    0.113645
   144  C    0.050897
   145  O   -0.279469
   146  C    0.034644
   147  H    0.106758
   148  H    0.031321
   149  H    0.000059
   150  H    0.014030
   151  H    0.030914
   152  N   -0.115537
   153  C    0.156482
   154  C    0.066133
   155  O   -0.274132
   156  C   -0.025178
   157  C    0.077668
   158  C    0.123313
   159  O   -0.413434
   160  O   -0.398718
   161  H    0.111445
   162  H   -0.026710
   163  H    0.023053
   164  H    0.008296
   165  H   -0.028363
   166  H   -0.041514
   167  N   -0.168188
   168  C    0.129705
   169  H    0.018728
   170  H    0.030457
   171  H    0.017155
   172  H    0.128857
   173  Ca   1.278247
   174  O   -0.254219
   175  H    0.179786
   176  H    0.182666
 Sum of Mulliken charges =  -0.00000

 Dipole moment (field-independent basis, Debye):
    X=             33.9851    Y=             -2.0353    Z=            -20.4490  Tot=             39.7151
 Quadrupole moment (field-independent basis, Debye-Ang):
   XX=           -559.6716   YY=           -471.1217   ZZ=           -478.6407
   XY=            162.6418   XZ=           -111.0941   YZ=            -43.6426

 ESP charges:
               1
     1  C   -0.418985
     2  C    0.792925
     3  O   -0.619471
     4  H    0.072225
     5  H    0.116631
     6  H    0.130222
     7  N   -0.710210
     8  C    0.157634
     9  C    0.488984
    10  O   -0.500466
    11  C   -0.313150
    12  C    0.860411
    13  O   -0.768889
    14  O   -0.871296
    15  H    0.368830
    16  H    0.096888
    17  H    0.101859
    18  H    0.083062
    19  N   -0.036895
    20  C   -0.462255
    21  C    0.652585
    22  O   -0.561547
    23  C    0.242158
    24  C   -0.143537
    25  C   -0.127376
    26  C    0.232552
    27  N   -0.571869
    28  H    0.121243
    29  H    0.144297
    30  H   -0.006687
    31  H    0.032788
    32  H    0.063701
    33  H    0.052112
    34  H    0.051795
    35  H    0.054153
    36  H    0.049479
    37  H    0.052782
    38  H    0.372284
    39  H    0.372150
    40  H    0.396381
    41  N   -0.486750
    42  C    0.264067
    43  C    0.372247
    44  O   -0.551920
    45  C   -0.444390
    46  C    1.031166
    47  O   -0.737463
    48  O   -1.154012
    49  H    0.335132
    50  H    0.044985
    51  H    0.084714
    52  H    0.122028
    53  N    0.077048
    54  C   -0.366388
    55  C    0.684719
    56  O   -0.594953
    57  H   -0.110972
    58  H    0.151224
    59  H    0.145544
    60  N   -0.697638
    61  C    0.226636
    62  C    0.272106
    63  O   -0.517230
    64  C   -0.472638
    65  C    0.971184
    66  N   -0.842769
    67  O   -0.864944
    68  H    0.709183
    69  H    0.096052
    70  H    0.176232
    71  H    0.102459
    72  H    0.391321
    73  H    0.358428
    74  N    0.070969
    75  C   -0.300430
    76  C    0.833073
    77  O   -0.615983
    78  H    0.130291
    79  H    0.158200
    80  H    0.066590
    81  N   -1.034446
    82  C    0.708445
    83  C    0.439944
    84  O   -0.490748
    85  C   -0.391051
    86  C    0.354837
    87  C   -0.250721
    88  C   -0.435799
    89  C   -0.188876
    90  C   -0.017594
    91  C    0.201661
    92  O   -0.539962
    93  H    0.568075
    94  H   -0.055902
    95  H    0.036044
    96  H    0.056519
    97  H    0.148728
    98  H    0.193779
    99  H    0.132781
   100  H    0.115159
   101  H    0.413676
   102  N   -0.734426
   103  C    0.389100
   104  C    0.678545
   105  O   -0.590172
   106  C    0.040480
   107  C    0.175780
   108  C   -0.214727
   109  C   -0.392837
   110  H    0.313166
   111  H   -0.005447
   112  H   -0.012146
   113  H    0.007615
   114  H   -0.023099
   115  H    0.049274
   116  H    0.079526
   117  H    0.051383
   118  H    0.099788
   119  H    0.097398
   120  H    0.087086
   121  N   -0.742464
   122  C    0.451500
   123  C    0.376431
   124  O   -0.384065
   125  C    0.028752
   126  O   -0.688675
   127  H    0.305841
   128  H    0.022373
   129  H    0.064661
   130  H    0.101490
   131  H    0.423561
   132  N   -0.561348
   133  C    0.399067
   134  C    0.306486
   135  O   -0.491752
   136  C   -0.435699
   137  H    0.302508
   138  H    0.046796
   139  H    0.116740
   140  H    0.132348
   141  H    0.108114
   142  N   -0.237129
   143  C    0.050848
   144  C    0.335885
   145  O   -0.501359
   146  C   -0.331540
   147  H    0.211707
   148  H    0.124823
   149  H    0.089746
   150  H    0.105402
   151  H    0.099468
   152  N    0.019447
   153  C   -0.429273
   154  C    0.616742
   155  O   -0.551430
   156  C    0.112696
   157  C   -0.109145
   158  C    0.747548
   159  O   -0.761208
   160  O   -0.760862
   161  H    0.113511
   162  H    0.134253
   163  H    0.070438
   164  H   -0.088381
   165  H    0.015382
   166  H   -0.010108
   167  N   -0.141698
   168  C   -0.142637
   169  H    0.074606
   170  H    0.085009
   171  H    0.053561
   172  H    0.123400
   173  Ca   1.783084
   174  O   -0.875402
   175  H    0.420347
   176  H    0.444152
 Sum of ESP charges =  -0.00000

 Normal termination of Gaussian 16 at Sun Sep 15 01:08:49 2019.
