 Gaussian 09, Revision D.01,
 Gaussian 09:  ES64L-G09RevD.01 24-Apr-2013

 ----------------------------------------------------------------------
 #maxdisk=50GB #B3LYP/SVP Density=Current scf=(tight) #IOP(5/87=12)Pop=
 (MK,readradii) iop(6/33=2) iop(6/42=6)
 ----------------------------------------------------------------------

 ------------
 SOL molecule
 ------------
 Symbolic Z-matrix:
 Charge =  0 Multiplicity = 1

                         Standard orientation:
 ---------------------------------------------------------------------
 Center     Atomic      Atomic             Coordinates (Angstroms)
 Number     Number       Type             X           Y           Z
 ---------------------------------------------------------------------
      1          6           0        2.619865    0.754778    5.350738
      2          6           0        1.801646    0.647969    4.073667
      3          8           0        2.327662    0.351003    3.001231
      4          1           0        3.569007    1.245794    5.133968
      5          1           0        2.069495    1.339629    6.088149
      6          1           0        2.809775   -0.243435    5.745932
      7          7           0        0.469420    0.731484    4.100081
      8          6           0       -0.300036    1.039097    2.908312
      9          6           0       -0.119095    2.500161    2.542316
     10          8           0       -0.969870    3.338200    2.810593
     11          6           0       -1.751485    0.631509    3.081707
     12          6           0       -2.595271    0.949356    1.860438
     13          8           0       -3.807939    1.192759    2.024117
     14          8           0       -2.115356    0.815757    0.709988
     15          1           0        0.065090    0.966758    4.997056
     16          1           0        0.175508    0.530175    2.069172
     17          1           0       -2.187788    1.216244    3.892340
     18          1           0       -1.930786   -0.441501    3.212095
     19          7           0        1.013593    2.859566    1.928275
     20          6           0        1.420315    4.200994    1.565441
     21          6           0        0.375042    5.019031    0.828746
     22          8           0        0.099496    6.181032    1.122735
     23          6           0        2.680118    4.142680    0.706549
     24          6           0        3.289388    5.446480    0.206754
     25          6           0        4.689210    5.094437   -0.289898
     26          6           0        5.386912    6.355042   -0.800375
     27          7           0        6.713529    6.054526   -1.362494
     28          1           0        1.730838    2.141029    1.990435
     29          1           0        1.655012    4.731998    2.493855
     30          1           0        2.544517    3.487842   -0.155194
     31          1           0        3.428025    3.607065    1.293875
     32          1           0        3.296691    6.208883    0.985014
     33          1           0        2.655289    5.800596   -0.604862
     34          1           0        4.561610    4.406998   -1.122091
     35          1           0        5.171484    4.627350    0.573550
     36          1           0        5.469174    7.078540    0.016193
     37          1           0        4.795695    6.711579   -1.641235
     38          1           0        6.743854    5.198937   -1.901797
     39          1           0        6.965611    6.807798   -1.993950
     40          1           0        7.452453    6.091181   -0.682826
     41          7           0       -0.181907    4.410632   -0.226412
     42          6           0       -1.157788    5.076341   -1.055199
     43          6           0       -2.566434    4.927160   -0.486464
     44          8           0       -3.468534    5.531135   -1.044612
     45          6           0       -1.141586    4.707693   -2.528948
     46          6           0       -1.537143    3.291288   -2.921928
     47          8           0       -1.872600    2.459387   -2.063611
     48          8           0       -1.600438    2.980117   -4.134762
     49          1           0        0.121178    3.506640   -0.568081
     50          1           0       -0.927520    6.150511   -1.049201
     51          1           0       -0.142466    4.913772   -2.917266
     52          1           0       -1.751967    5.452569   -3.057998
     53          7           0       -2.719019    4.210722    0.632479
     54          6           0       -3.963249    4.280687    1.357873
     55          6           0       -5.148498    3.676290    0.599064
     56          8           0       -6.282394    3.981589    0.958610
     57          1           0       -1.998655    3.586349    0.966895
     58          1           0       -4.207436    5.287181    1.688391
     59          1           0       -3.817801    3.806744    2.325253
     60          7           0       -4.943720    2.812066   -0.389562
     61          6           0       -5.968530    2.094085   -1.120841
     62          6           0       -6.534402    0.858704   -0.435478
     63          8           0       -7.452568    0.298661   -1.034913
     64          6           0       -5.463311    1.844614   -2.548118
     65          6           0       -4.599938    0.598435   -2.681254
     66          7           0       -4.437391    0.091424   -3.900565
     67          8           0       -4.044608    0.013173   -1.764915
     68          1           0       -3.989696    2.468626   -0.417609
     69          1           0       -6.784109    2.809148   -1.187285
     70          1           0       -4.776524    2.641826   -2.829145
     71          1           0       -6.240634    1.805430   -3.301400
     72          1           0       -5.024325    0.399671   -4.660494
     73          1           0       -3.901885   -0.759022   -3.948272
     74          7           0       -6.037428    0.455993    0.738678
     75          6           0       -6.557653   -0.628381    1.537677
     76          6           0       -5.680305   -1.866624    1.497501
     77          8           0       -6.119759   -2.900534    2.012195
     78          1           0       -5.328643    1.055322    1.140335
     79          1           0       -7.593814   -0.873522    1.290540
     80          1           0       -6.677070   -0.312254    2.575320
     81          7           0       -4.473390   -1.825587    0.931751
     82          6           0       -3.648130   -2.994772    0.677291
     83          6           0       -2.187464   -2.604891    0.820284
     84          8           0       -1.758786   -1.740737    0.060302
     85          6           0       -4.011228   -3.445584   -0.730271
     86          6           0       -5.452248   -3.862547   -0.928768
     87          6           0       -5.904938   -5.139245   -0.590367
     88          6           0       -6.394337   -3.041793   -1.561802
     89          6           0       -7.246984   -5.527634   -0.702913
     90          6           0       -7.758694   -3.355062   -1.666649
     91          6           0       -8.190247   -4.618197   -1.217482
     92          8           0       -9.524552   -4.899654   -1.220915
     93          1           0       -4.096533   -0.913834    0.739174
     94          1           0       -3.936082   -3.811485    1.343221
     95          1           0       -3.417697   -4.316615   -1.019451
     96          1           0       -3.705593   -2.659019   -1.427482
     97          1           0       -5.232845   -5.763010   -0.012087
     98          1           0       -6.025762   -2.065450   -1.850084
     99          1           0       -7.593866   -6.496653   -0.358277
    100          1           0       -8.448793   -2.596923   -2.010580
    101          1           0      -10.034281   -4.202660   -1.640528
    102          7           0       -1.328029   -3.278584    1.597337
    103          6           0        0.098917   -3.066179    1.607798
    104          6           0        0.804135   -3.849922    0.504795
    105          8           0        0.365032   -4.944817    0.173746
    106          6           0        0.649462   -3.439563    2.975783
    107          6           0        0.051069   -2.726495    4.181710
    108          6           0        2.158181   -3.263755    3.099707
    109          6           0        0.267343   -3.405167    5.533498
    110          1           0       -1.679738   -4.139302    1.988315
    111          1           0        0.260871   -2.013476    1.378482
    112          1           0        0.569262   -4.524896    3.058977
    113          1           0       -1.027727   -2.710787    4.071468
    114          1           0        0.429566   -1.707450    4.167979
    115          1           0        2.375030   -2.203760    2.958332
    116          1           0        2.574224   -3.556586    4.058278
    117          1           0        2.667975   -3.820495    2.306832
    118          1           0       -0.356800   -2.951981    6.303996
    119          1           0        0.197866   -4.478092    5.383816
    120          1           0        1.326444   -3.263816    5.781743
    121          7           0        1.793734   -3.245115   -0.151713
    122          6           0        2.722672   -3.891607   -1.062330
    123          6           0        4.202346   -3.723159   -0.755917
    124          8           0        4.618848   -3.024939    0.158859
    125          6           0        2.312146   -3.531190   -2.482530
    126          8           0        2.675638   -2.195501   -2.758771
    127          1           0        1.891139   -2.263862    0.038171
    128          1           0        2.646956   -4.977047   -1.081995
    129          1           0        1.246658   -3.751703   -2.613333
    130          1           0        2.897883   -4.209927   -3.098914
    131          1           0        2.269921   -1.692738   -2.046856
    132          7           0        5.006139   -4.463180   -1.519255
    133          6           0        6.409835   -4.614813   -1.193459
    134          6           0        7.282759   -3.372075   -1.229619
    135          8           0        7.805923   -2.976460   -0.183488
    136          6           0        6.980483   -5.745583   -2.054052
    137          1           0        4.674526   -4.934580   -2.348903
    138          1           0        6.525046   -5.003466   -0.184710
    139          1           0        6.937418   -5.414444   -3.084873
    140          1           0        7.999042   -6.007041   -1.785764
    141          1           0        6.258584   -6.564293   -1.976752
    142          7           0        7.248171   -2.543030   -2.275174
    143          6           0        7.725380   -1.186627   -2.423981
    144          6           0        7.051616   -0.192517   -1.489964
    145          8           0        7.692005    0.810581   -1.199627
    146          6           0        7.509067   -0.780782   -3.880484
    147          1           0        6.542002   -2.779658   -2.960982
    148          1           0        8.793308   -1.169878   -2.207304
    149          1           0        8.109263   -1.435391   -4.521540
    150          1           0        6.471648   -0.968582   -4.145235
    151          1           0        7.702816    0.262584   -4.108403
    152          7           0        5.840675   -0.436308   -0.970844
    153          6           0        5.296963    0.462859    0.019497
    154          6           0        5.875810    0.220176    1.402191
    155          8           0        6.128998    1.089574    2.238697
    156          6           0        3.775561    0.383089    0.038807
    157          6           0        3.200025    0.714347   -1.328280
    158          6           0        1.691534    0.525014   -1.189683
    159          8           0        0.883582    1.441678   -0.941009
    160          8           0        1.158673   -0.599861   -1.305069
    161          1           0        5.448207   -1.351778   -1.163938
    162          1           0        5.574933    1.488889   -0.236815
    163          1           0        3.506036    1.063377    0.842028
    164          1           0        3.402975   -0.630726    0.239455
    165          1           0        3.587751    0.054665   -2.106925
    166          1           0        3.387810    1.770948   -1.546751
    167          7           0        6.102250   -1.072239    1.640913
    168          6           0        6.719311   -1.540357    2.866066
    169          1           0        7.671058   -1.030357    3.010663
    170          1           0        6.062369   -1.327292    3.708788
    171          1           0        6.889799   -2.614751    2.800055
    172          1           0        5.778770   -1.674877    0.894395
    173         20           0       -1.195788    0.113762   -1.504712
    174          8           0       -0.502609    0.574205   -4.040633
    175          1           0        0.357230    0.558400   -4.460068
    176          1           0       -0.923956    1.357981   -4.388429
 ---------------------------------------------------------------------

 SCF Done:  E(RB3LYP) =  -5333.62450443     A.U. after   21 cycles

 The electronic state is 1-A.
 Alpha  occ. eigenvalues -- -145.34900 -19.15148 -19.13284 -19.12938 -19.12140
 Alpha  occ. eigenvalues --  -19.12069 -19.11691 -19.11184 -19.10550 -19.10426
 Alpha  occ. eigenvalues --  -19.10297 -19.09021 -19.08810 -19.08727 -19.08179
 Alpha  occ. eigenvalues --  -19.07263 -19.04108 -19.03914 -19.03802 -19.03606
 Alpha  occ. eigenvalues --  -19.03532 -19.02585 -19.02230 -19.01798 -15.40746
 Alpha  occ. eigenvalues --  -14.59177 -14.40757 -14.38844 -14.37180 -14.36667
 Alpha  occ. eigenvalues --  -14.36481 -14.36327 -14.34514 -14.33854 -14.32851
 Alpha  occ. eigenvalues --  -14.31997 -14.31051 -14.28711 -14.28347 -14.28027
 Alpha  occ. eigenvalues --  -12.54358 -12.54304 -12.54292 -10.35670 -10.33295
 Alpha  occ. eigenvalues --  -10.31203 -10.29798 -10.29787 -10.29463 -10.28871
 Alpha  occ. eigenvalues --  -10.28850 -10.27606 -10.27342 -10.27127 -10.27094
 Alpha  occ. eigenvalues --  -10.26417 -10.26352 -10.26103 -10.25720 -10.25651
 Alpha  occ. eigenvalues --  -10.23779 -10.23731 -10.23716 -10.23385 -10.23325
 Alpha  occ. eigenvalues --  -10.23178 -10.23110 -10.22726 -10.22581 -10.22338
 Alpha  occ. eigenvalues --  -10.22110 -10.21962 -10.21959 -10.21665 -10.21504
 Alpha  occ. eigenvalues --  -10.20982 -10.20570 -10.20471 -10.20355 -10.20271
 Alpha  occ. eigenvalues --  -10.19414 -10.18482 -10.18415 -10.17867 -10.17669
 Alpha  occ. eigenvalues --  -10.17561 -10.17110 -10.16952 -10.16895 -10.16302
 Alpha  occ. eigenvalues --  -10.15795 -10.15650 -10.15523 -10.15430 -10.15161
 Alpha  occ. eigenvalues --  -10.15071 -10.15058  -1.77832  -1.14509  -1.08411
 Alpha  occ. eigenvalues --   -1.07167  -1.05699  -1.05567  -1.05387  -1.04547
 Alpha  occ. eigenvalues --   -1.04402  -1.04237  -1.04126  -1.03464  -1.02451
 Alpha  occ. eigenvalues --   -1.02199  -1.02135  -1.01557  -1.00670  -1.00033
 Alpha  occ. eigenvalues --   -0.98922  -0.98166  -0.97819  -0.97689  -0.97469
 Alpha  occ. eigenvalues --   -0.96873  -0.96376  -0.95577  -0.94993  -0.93968
 Alpha  occ. eigenvalues --   -0.93742  -0.93431  -0.93153  -0.92716  -0.91784
 Alpha  occ. eigenvalues --   -0.89476  -0.89281  -0.88966  -0.88789  -0.88384
 Alpha  occ. eigenvalues --   -0.87996  -0.87461  -0.86225  -0.85523  -0.84639
 Alpha  occ. eigenvalues --   -0.83366  -0.82472  -0.82023  -0.81389  -0.81216
 Alpha  occ. eigenvalues --   -0.80001  -0.78236  -0.78157  -0.76352  -0.76167
 Alpha  occ. eigenvalues --   -0.74404  -0.74352  -0.74244  -0.74131  -0.73463
 Alpha  occ. eigenvalues --   -0.73129  -0.72285  -0.71284  -0.70268  -0.70193
 Alpha  occ. eigenvalues --   -0.69727  -0.68951  -0.68332  -0.68233  -0.68016
 Alpha  occ. eigenvalues --   -0.67094  -0.66788  -0.65348  -0.64822  -0.64399
 Alpha  occ. eigenvalues --   -0.63626  -0.63392  -0.63212  -0.62647  -0.62287
 Alpha  occ. eigenvalues --   -0.62170  -0.60940  -0.60816  -0.60341  -0.59750
 Alpha  occ. eigenvalues --   -0.59582  -0.58421  -0.58374  -0.57944  -0.57621
 Alpha  occ. eigenvalues --   -0.57230  -0.56774  -0.56693  -0.56250  -0.56174
 Alpha  occ. eigenvalues --   -0.55746  -0.55010  -0.54834  -0.54422  -0.54053
 Alpha  occ. eigenvalues --   -0.53980  -0.53794  -0.53486  -0.53257  -0.52181
 Alpha  occ. eigenvalues --   -0.52115  -0.52026  -0.51901  -0.51734  -0.51650
 Alpha  occ. eigenvalues --   -0.51082  -0.51012  -0.50611  -0.50208  -0.49881
 Alpha  occ. eigenvalues --   -0.49835  -0.49688  -0.49621  -0.49331  -0.49129
 Alpha  occ. eigenvalues --   -0.48812  -0.48711  -0.48652  -0.47964  -0.47856
 Alpha  occ. eigenvalues --   -0.47541  -0.46863  -0.46438  -0.46330  -0.46286
 Alpha  occ. eigenvalues --   -0.46011  -0.45944  -0.45854  -0.45682  -0.45536
 Alpha  occ. eigenvalues --   -0.45174  -0.45155  -0.45097  -0.45024  -0.44941
 Alpha  occ. eigenvalues --   -0.44763  -0.44571  -0.44232  -0.44056  -0.44022
 Alpha  occ. eigenvalues --   -0.43560  -0.43427  -0.43098  -0.43025  -0.42964
 Alpha  occ. eigenvalues --   -0.42812  -0.42773  -0.42645  -0.42322  -0.42091
 Alpha  occ. eigenvalues --   -0.41978  -0.41850  -0.41763  -0.41666  -0.41455
 Alpha  occ. eigenvalues --   -0.41410  -0.41226  -0.41079  -0.40989  -0.40709
 Alpha  occ. eigenvalues --   -0.40466  -0.40436  -0.40340  -0.40185  -0.40078
 Alpha  occ. eigenvalues --   -0.39998  -0.39884  -0.39732  -0.39395  -0.39260
 Alpha  occ. eigenvalues --   -0.39122  -0.38961  -0.38831  -0.38743  -0.38470
 Alpha  occ. eigenvalues --   -0.38416  -0.38328  -0.38278  -0.38238  -0.38020
 Alpha  occ. eigenvalues --   -0.37860  -0.37702  -0.37556  -0.37421  -0.37303
 Alpha  occ. eigenvalues --   -0.37171  -0.37104  -0.36778  -0.36639  -0.36177
 Alpha  occ. eigenvalues --   -0.36143  -0.36089  -0.35966  -0.35621  -0.35451
 Alpha  occ. eigenvalues --   -0.35274  -0.35148  -0.35003  -0.34666  -0.34519
 Alpha  occ. eigenvalues --   -0.34179  -0.33988  -0.33846  -0.33711  -0.33062
 Alpha  occ. eigenvalues --   -0.32861  -0.32817  -0.32483  -0.32405  -0.32379
 Alpha  occ. eigenvalues --   -0.31806  -0.31694  -0.30982  -0.30971  -0.30780
 Alpha  occ. eigenvalues --   -0.30378  -0.30223  -0.30207  -0.30090  -0.29569
 Alpha  occ. eigenvalues --   -0.29300  -0.29262  -0.29028  -0.28692  -0.28486
 Alpha  occ. eigenvalues --   -0.28066  -0.27657  -0.27469  -0.27452  -0.26632
 Alpha  occ. eigenvalues --   -0.26543  -0.26442  -0.26300  -0.25656  -0.25565
 Alpha  occ. eigenvalues --   -0.24841  -0.24748  -0.24532  -0.24045  -0.23668
 Alpha  occ. eigenvalues --   -0.23408  -0.23134  -0.22568  -0.22181  -0.21827
 Alpha  occ. eigenvalues --   -0.21643  -0.21518  -0.21156  -0.21085  -0.20794
 Alpha  occ. eigenvalues --   -0.20647  -0.19051  -0.18904  -0.18724  -0.18451
 Alpha  occ. eigenvalues --   -0.18219  -0.17731  -0.17133
 Alpha virt. eigenvalues --   -0.11143  -0.05452  -0.04792  -0.03258  -0.02448
 Alpha virt. eigenvalues --   -0.02110  -0.00956  -0.00656  -0.00552  -0.00078
 Alpha virt. eigenvalues --    0.00518   0.00928   0.01410   0.02020   0.02131

 Mulliken charges:
               1
     1  C    0.086106
     2  C    0.031255
     3  O   -0.316700
     4  H    0.050309
     5  H    0.006566
     6  H    0.046556
     7  N   -0.113672
     8  C    0.072192
     9  C    0.031062
    10  O   -0.274741
    11  C    0.145786
    12  C    0.115106
    13  O   -0.385611
    14  O   -0.470082
    15  H    0.117653
    16  H    0.028198
    17  H    0.000755
    18  H    0.014234
    19  N   -0.117399
    20  C    0.217384
    21  C    0.052934
    22  O   -0.266158
    23  C   -0.089929
    24  C    0.037332
    25  C   -0.078341
    26  C    0.045268
    27  N    0.093687
    28  H    0.141634
    29  H   -0.009182
    30  H    0.018444
    31  H    0.014938
    32  H    0.022445
    33  H    0.033885
    34  H    0.028992
    35  H    0.059925
    36  H    0.083183
    37  H    0.066896
    38  H    0.199772
    39  H    0.185092
    40  H    0.193063
    41  N   -0.185311
    42  C    0.143250
    43  C    0.063032
    44  O   -0.280155
    45  C    0.053507
    46  C    0.142931
    47  O   -0.453739
    48  O   -0.410731
    49  H    0.152891
    50  H    0.000494
    51  H   -0.032192
    52  H    0.030740
    53  N   -0.172978
    54  C    0.238436
    55  C    0.035142
    56  O   -0.308776
    57  H    0.166824
    58  H    0.000690
    59  H    0.022566
    60  N   -0.168828
    61  C    0.174902
    62  C    0.058409
    63  O   -0.319918
    64  C    0.088024
    65  C    0.031668
    66  N   -0.023885
    67  O   -0.325054
    68  H    0.148957
    69  H    0.018770
    70  H    0.067692
    71  H    0.005813
    72  H    0.121289
    73  H    0.116384
    74  N   -0.148831
    75  C    0.239034
    76  C    0.033317
    77  O   -0.312142
    78  H    0.158093
    79  H    0.028933
    80  H    0.021643
    81  N   -0.164638
    82  C    0.149161
    83  C    0.143845
    84  O   -0.381521
    85  C    0.168014
    86  C   -0.032222
    87  C    0.000130
    88  C   -0.011350
    89  C   -0.011662
    90  C   -0.032270
    91  C    0.165668
    92  O   -0.203723
    93  H    0.165251
    94  H   -0.010363
    95  H   -0.014054
    96  H   -0.030328
    97  H   -0.041358
    98  H   -0.025552
    99  H   -0.035381
   100  H   -0.031482
   101  H    0.172443
   102  N   -0.098117
   103  C    0.167049
   104  C    0.044190
   105  O   -0.278609
   106  C   -0.115027
   107  C    0.021450
   108  C    0.028129
   109  C    0.045901
   110  H    0.131476
   111  H    0.008270
   112  H   -0.018258
   113  H   -0.003323
   114  H    0.000494
   115  H    0.019011
   116  H    0.001576
   117  H    0.002651
   118  H    0.022548
   119  H    0.003446
   120  H   -0.007674
   121  N   -0.120434
   122  C    0.023487
   123  C    0.135428
   124  O   -0.267504
   125  C    0.273640
   126  O   -0.345540
   127  H    0.158820
   128  H    0.020418
   129  H    0.026488
   130  H   -0.042466
   131  H    0.173241
   132  N   -0.137492
   133  C    0.084184
   134  C    0.042971
   135  O   -0.255516
   136  C    0.034201
   137  H    0.125655
   138  H    0.024965
   139  H    0.000228
   140  H    0.047162
   141  H    0.028480
   142  N   -0.135437
   143  C    0.113787
   144  C    0.071045
   145  O   -0.299039
   146  C    0.030046
   147  H    0.106650
   148  H    0.030937
   149  H    0.028502
   150  H    0.009480
   151  H    0.025945
   152  N   -0.164128
   153  C    0.137940
   154  C    0.062705
   155  O   -0.299245
   156  C   -0.014545
   157  C    0.111085
   158  C    0.153052
   159  O   -0.390302
   160  O   -0.493233
   161  H    0.129681
   162  H   -0.039177
   163  H    0.032339
   164  H   -0.000225
   165  H    0.008130
   166  H   -0.028078
   167  N   -0.156838
   168  C    0.167155
   169  H    0.018330
   170  H    0.013174
   171  H    0.014553
   172  H    0.129915
   173  Ca   1.334257
   174  O   -0.319573
   175  H    0.166170
   176  H    0.161012
 Sum of Mulliken charges =   0.00000

 Dipole moment (field-independent basis, Debye):
    X=             42.1398    Y=              4.4201    Z=            -10.6158  Tot=             43.6806
 Quadrupole moment (field-independent basis, Debye-Ang):
   XX=           -538.9937   YY=           -483.2781   ZZ=           -512.5747
   XY=            150.7938   XZ=            -46.4856   YZ=            -14.8423

 ESP charges:
               1
     1  C   -0.405136
     2  C    0.763737
     3  O   -0.616871
     4  H    0.135724
     5  H    0.084794
     6  H    0.133896
     7  N   -0.822527
     8  C    0.207457
     9  C    0.581813
    10  O   -0.513587
    11  C   -0.312768
    12  C    0.733054
    13  O   -0.661515
    14  O   -0.894852
    15  H    0.396143
    16  H    0.138583
    17  H    0.095817
    18  H    0.085714
    19  N   -0.306731
    20  C   -0.154605
    21  C    0.497314
    22  O   -0.549351
    23  C    0.202616
    24  C   -0.297402
    25  C    0.161001
    26  C   -0.047611
    27  N   -0.389650
    28  H    0.212565
    29  H    0.086420
    30  H   -0.006255
    31  H    0.014381
    32  H    0.090687
    33  H    0.080164
    34  H    0.038269
    35  H    0.010504
    36  H    0.109316
    37  H    0.097995
    38  H    0.337106
    39  H    0.331153
    40  H    0.345749
    41  N   -0.340454
    42  C    0.137240
    43  C    0.431045
    44  O   -0.550389
    45  C   -0.305751
    46  C    0.742184
    47  O   -0.619232
    48  O   -0.721341
    49  H    0.242712
    50  H    0.062191
    51  H    0.039810
    52  H    0.112951
    53  N   -0.169652
    54  C   -0.161715
    55  C    0.575445
    56  O   -0.595973
    57  H    0.190246
    58  H    0.096041
    59  H    0.112356
    60  N   -0.273584
    61  C   -0.082915
    62  C    0.340755
    63  O   -0.524037
    64  C   -0.196381
    65  C    0.647885
    66  N   -0.790778
    67  O   -0.589621
    68  H    0.173982
    69  H    0.153855
    70  H    0.132454
    71  H    0.080094
    72  H    0.373168
    73  H    0.361136
    74  N   -0.019505
    75  C   -0.303452
    76  C    0.709918
    77  O   -0.564084
    78  H    0.201480
    79  H    0.154736
    80  H    0.099203
    81  N   -0.729769
    82  C    0.205364
    83  C    0.820588
    84  O   -0.652800
    85  C   -0.278973
    86  C    0.327586
    87  C   -0.361582
    88  C   -0.328876
    89  C   -0.116569
    90  C   -0.226731
    91  C    0.316166
    92  O   -0.550669
    93  H    0.460931
    94  H    0.037897
    95  H    0.055761
    96  H    0.047091
    97  H    0.164213
    98  H    0.206825
    99  H    0.126166
   100  H    0.139071
   101  H    0.407588
   102  N   -0.775137
   103  C   -0.087562
   104  C    0.743374
   105  O   -0.569522
   106  C    0.308852
   107  C    0.112183
   108  C   -0.277462
   109  C   -0.376651
   110  H    0.348434
   111  H    0.111694
   112  H   -0.039112
   113  H    0.000619
   114  H    0.051401
   115  H    0.041007
   116  H    0.086377
   117  H    0.019656
   118  H    0.106445
   119  H    0.084815
   120  H    0.061790
   121  N   -0.512097
   122  C   -0.065685
   123  C    0.695184
   124  O   -0.467376
   125  C    0.218434
   126  O   -0.619751
   127  H    0.292965
   128  H    0.054003
   129  H    0.044324
   130  H   -0.018314
   131  H    0.451016
   132  N   -0.588618
   133  C    0.214036
   134  C    0.519509
   135  O   -0.538957
   136  C   -0.362981
   137  H    0.354512
   138  H    0.065936
   139  H    0.069722
   140  H    0.132102
   141  H    0.105540
   142  N   -0.462267
   143  C    0.169491
   144  C    0.374355
   145  O   -0.546374
   146  C   -0.405450
   147  H    0.263197
   148  H    0.108063
   149  H    0.111750
   150  H    0.109840
   151  H    0.134481
   152  N   -0.054977
   153  C    0.108358
   154  C    0.397873
   155  O   -0.546572
   156  C   -0.109393
   157  C   -0.187753
   158  C    0.825266
   159  O   -0.813256
   160  O   -0.784686
   161  H    0.061377
   162  H   -0.042445
   163  H    0.084789
   164  H    0.003877
   165  H    0.006458
   166  H    0.050610
   167  N   -0.018459
   168  C   -0.214133
   169  H    0.099158
   170  H    0.076956
   171  H    0.093915
   172  H    0.067628
   173  Ca   1.675017
   174  O   -0.894365
   175  H    0.411384
   176  H    0.427168
 Sum of ESP charges =   0.00000

 Normal termination of Gaussian 09 at Mon Sep 16 16:33:20 2019.
