 Gaussian 16, Revision A.03,
 Gaussian 16:  ES64L-G16RevA.03 25-Dec-2016

 ----------------------------------------------------------------------
 #b3lyp/svp scf=(tight,noincore) Test #IOP(5/87=12) Density=Current Pop
 =(MK,readradii) iop(6/33=2) iop(6/42=6)
 ----------------------------------------------------------------------

 -----------------
 CaMKII_loop3_42.0
 -----------------
 Symbolic Z-matrix:
 Charge =  0 Multiplicity = 1

                         Standard orientation:
 ---------------------------------------------------------------------
 Center     Atomic      Atomic             Coordinates (Angstroms)
 Number     Number       Type             X           Y           Z
 ---------------------------------------------------------------------
      1          6           0        2.781097    1.829041    4.841471
      2          6           0        1.869438    2.027011    3.640060
      3          8           0        2.411942    2.253888    2.556032
      4          1           0        3.810461    1.716009    4.501599
      5          1           0        2.709909    2.694953    5.498692
      6          1           0        2.477861    0.934437    5.384435
      7          7           0        0.544532    2.066797    3.812806
      8          6           0       -0.351588    2.042016    2.676516
      9          6           0       -0.652941    3.447010    2.185823
     10          8           0       -1.678198    4.043488    2.508252
     11          6           0       -1.570012    1.125694    2.782793
     12          6           0       -2.392215    1.318664    1.513760
     13          8           0       -1.850173    1.630912    0.433162
     14          8           0       -3.580648    0.958251    1.636360
     15          1           0        0.210557    2.066600    4.764047
     16          1           0        0.166678    1.593853    1.830673
     17          1           0       -2.131653    1.466282    3.647235
     18          1           0       -1.232386    0.090339    2.883035
     19          7           0        0.278715    3.912042    1.349066
     20          6           0        0.578262    5.251283    0.884732
     21          6           0       -0.425603    5.832468   -0.100245
     22          8           0       -0.702168    7.023113   -0.063168
     23          6           0        2.035566    5.353264    0.437446
     24          6           0        2.524579    6.794515    0.316764
     25          6           0        3.993419    6.767526   -0.096853
     26          6           0        4.856639    8.021649   -0.174497
     27          7           0        4.276834    9.177261   -0.880534
     28          1           0        0.927604    3.166520    1.157911
     29          1           0        0.393381    5.948258    1.705125
     30          1           0        2.153098    4.953980   -0.570948
     31          1           0        2.661295    4.804509    1.147538
     32          1           0        2.283479    7.365041    1.215580
     33          1           0        2.037457    7.347538   -0.480906
     34          1           0        3.997596    6.352438   -1.106151
     35          1           0        4.486754    6.165475    0.668297
     36          1           0        5.837098    7.842358   -0.624001
     37          1           0        5.059282    8.286759    0.863651
     38          1           0        4.930688    9.926608   -0.726085
     39          1           0        3.999754    9.093954   -1.847223
     40          1           0        3.407494    9.484373   -0.448759
     41          7           0       -1.173695    4.966921   -0.786311
     42          6           0       -2.243470    5.209148   -1.740254
     43          6           0       -3.613914    4.760951   -1.264857
     44          8           0       -4.615133    5.192223   -1.841889
     45          6           0       -1.776931    4.608916   -3.064740
     46          6           0       -1.524227    3.106696   -2.959509
     47          8           0       -0.367127    2.743183   -2.648578
     48          8           0       -2.422488    2.256557   -3.116320
     49          1           0       -0.955202    3.991954   -0.630748
     50          1           0       -2.276885    6.283151   -1.945194
     51          1           0       -0.913071    5.101178   -3.509627
     52          1           0       -2.559329    4.764343   -3.802166
     53          7           0       -3.708192    4.026095   -0.159598
     54          6           0       -4.997677    3.847772    0.490194
     55          6           0       -5.970698    2.856969   -0.111504
     56          8           0       -7.143733    2.859233    0.257525
     57          1           0       -2.831002    3.851434    0.311286
     58          1           0       -5.505349    4.804774    0.626268
     59          1           0       -4.795764    3.406773    1.464233
     60          7           0       -5.538232    1.910380   -0.954144
     61          6           0       -6.416494    0.858049   -1.411153
     62          6           0       -6.813136   -0.190581   -0.379528
     63          8           0       -7.643634   -1.066007   -0.626719
     64          6           0       -5.956586    0.189916   -2.708335
     65          6           0       -4.565600   -0.408584   -2.727220
     66          7           0       -4.252272   -1.139311   -3.798136
     67          8           0       -3.753170   -0.276755   -1.817506
     68          1           0       -4.544518    1.712064   -1.074160
     69          1           0       -7.372607    1.350723   -1.527863
     70          1           0       -5.943380    0.950203   -3.495348
     71          1           0       -6.737966   -0.496708   -3.012461
     72          1           0       -4.883673   -0.964495   -4.560548
     73          1           0       -3.248838   -1.215532   -3.952769
     74          7           0       -6.145511   -0.147995    0.778515
     75          6           0       -6.420003   -0.954341    1.947899
     76          6           0       -5.376080   -2.054384    2.003854
     77          8           0       -5.722640   -3.087543    2.569697
     78          1           0       -5.377388    0.491300    0.917764
     79          1           0       -7.415786   -1.386206    1.950578
     80          1           0       -6.236463   -0.301300    2.803441
     81          7           0       -4.246430   -1.941750    1.305711
     82          6           0       -3.193655   -2.907670    1.115023
     83          6           0       -1.780776   -2.335335    1.112478
     84          8           0       -1.480232   -1.393195    0.386017
     85          6           0       -3.519724   -3.586968   -0.214012
     86          6           0       -4.761622   -4.429929   -0.216670
     87          6           0       -4.702067   -5.728501    0.304158
     88          6           0       -5.966981   -3.978417   -0.770968
     89          6           0       -5.882876   -6.484468    0.301940
     90          6           0       -7.150010   -4.734252   -0.718458
     91          6           0       -7.110814   -6.062038   -0.231276
     92          8           0       -8.206165   -6.862580   -0.103840
     93          1           0       -4.091154   -1.025600    0.885880
     94          1           0       -3.294521   -3.713018    1.845599
     95          1           0       -2.691509   -4.269795   -0.425453
     96          1           0       -3.487490   -2.788541   -0.956491
     97          1           0       -3.783634   -6.155817    0.684134
     98          1           0       -5.968015   -3.024481   -1.277628
     99          1           0       -5.833530   -7.529642    0.549483
    100          1           0       -8.080842   -4.321411   -1.060530
    101          1           0       -9.044476   -6.421368   -0.264985
    102          7           0       -0.837959   -3.028223    1.749898
    103          6           0        0.589627   -2.824026    1.582557
    104          6           0        1.144778   -3.817944    0.564109
    105          8           0        0.775718   -4.995955    0.621414
    106          6           0        1.252810   -2.825412    2.959795
    107          6           0        0.644531   -1.881632    3.994481
    108          6           0        2.748603   -2.664224    2.735025
    109          6           0        0.992515   -2.282666    5.422024
    110          1           0       -1.191209   -3.815098    2.278331
    111          1           0        0.698388   -1.822463    1.188042
    112          1           0        1.155116   -3.825692    3.382164
    113          1           0       -0.444768   -1.878414    3.913747
    114          1           0        0.899829   -0.837002    3.830558
    115          1           0        3.139389   -3.429556    2.069328
    116          1           0        2.836562   -1.674153    2.273913
    117          1           0        3.314432   -2.745588    3.669967
    118          1           0        0.728803   -3.323666    5.581943
    119          1           0        2.074269   -2.227928    5.546167
    120          1           0        0.592428   -1.500380    6.072685
    121          7           0        2.033478   -3.321440   -0.303702
    122          6           0        2.953857   -3.941237   -1.226011
    123          6           0        4.387625   -3.983837   -0.731043
    124          8           0        4.800054   -3.052785   -0.029513
    125          6           0        2.711667   -3.376677   -2.627731
    126          8           0        3.206456   -2.055855   -2.694898
    127          1           0        2.108975   -2.319842   -0.178800
    128          1           0        2.751272   -5.008424   -1.193285
    129          1           0        1.638274   -3.209979   -2.693596
    130          1           0        3.032475   -3.983883   -3.477544
    131          1           0        2.732473   -1.514733   -2.057617
    132          7           0        5.225657   -4.949816   -1.094893
    133          6           0        6.642602   -4.896684   -0.827417
    134          6           0        7.305679   -3.560628   -1.134474
    135          8           0        8.073763   -3.074217   -0.309639
    136          6           0        7.292525   -6.130368   -1.463203
    137          1           0        4.948675   -5.638080   -1.786033
    138          1           0        6.722648   -4.944609    0.259503
    139          1           0        6.581114   -6.952354   -1.537585
    140          1           0        7.560914   -5.858480   -2.479885
    141          1           0        8.252974   -6.350767   -1.008931
    142          7           0        6.976206   -2.899491   -2.240297
    143          6           0        7.556060   -1.630878   -2.658374
    144          6           0        7.285168   -0.509949   -1.672557
    145          8           0        8.148439    0.253045   -1.246523
    146          6           0        6.892381   -1.386706   -4.014291
    147          1           0        6.317899   -3.270626   -2.916604
    148          1           0        8.629910   -1.771709   -2.769796
    149          1           0        5.805715   -1.355162   -3.925052
    150          1           0        7.242015   -0.387178   -4.267469
    151          1           0        7.191511   -2.170321   -4.703761
    152          7           0        6.033275   -0.371148   -1.213866
    153          6           0        5.592415    0.311712   -0.018272
    154          6           0        6.344219    0.071467    1.280910
    155          8           0        6.694653    0.996498    2.007349
    156          6           0        4.106791    0.165778    0.323818
    157          6           0        3.279166    0.799700   -0.783872
    158          6           0        1.793154    0.490658   -0.638748
    159          8           0        1.410828   -0.689800   -0.755564
    160          8           0        0.992336    1.388177   -0.315250
    161          1           0        5.331146   -0.920610   -1.685041
    162          1           0        5.673243    1.388195   -0.211275
    163          1           0        3.881196    0.693088    1.250776
    164          1           0        3.874950   -0.862447    0.578188
    165          1           0        3.681826    0.581753   -1.777484
    166          1           0        3.406016    1.878083   -0.697272
    167          7           0        6.587558   -1.210206    1.580746
    168          6           0        7.348265   -1.607747    2.743624
    169          1           0        8.411082   -1.468427    2.547209
    170          1           0        7.054069   -0.997410    3.597799
    171          1           0        7.155310   -2.657933    2.963810
    172          1           0        6.188353   -1.892275    0.952242
    173         20           0       -1.053511    0.272517   -1.597871
    174          8           0       -1.506341   -1.823409   -3.195412
    175          1           0       -1.412713   -2.775624   -3.156430
    176          1           0       -1.131247   -1.580205   -4.037764
 ---------------------------------------------------------------------

 SCF Done:  E(RB3LYP) =  -5333.57101713     A.U. after   17 cycles

 The electronic state is 1-A.
 Alpha  occ. eigenvalues -- -145.37616 -19.22611 -19.14585 -19.13614 -19.12591
 Alpha  occ. eigenvalues --  -19.11069 -19.10864 -19.10162 -19.09581 -19.09125
 Alpha  occ. eigenvalues --  -19.08602 -19.07654 -19.07305 -19.06746 -19.06674
 Alpha  occ. eigenvalues --  -19.05294 -19.04960 -19.04366 -19.04169 -19.04013
 Alpha  occ. eigenvalues --  -19.03978 -19.03897 -19.03692 -19.02926 -15.43325
 Alpha  occ. eigenvalues --  -14.59005 -14.39295 -14.36599 -14.35810 -14.35208
 Alpha  occ. eigenvalues --  -14.35125 -14.34805 -14.33422 -14.32036 -14.32027
 Alpha  occ. eigenvalues --  -14.30772 -14.30768 -14.30360 -14.30001 -14.29556
 Alpha  occ. eigenvalues --  -12.56941 -12.56903 -12.56895 -10.35351 -10.31306
 Alpha  occ. eigenvalues --  -10.29235 -10.29093 -10.29003 -10.28403 -10.27464
 Alpha  occ. eigenvalues --  -10.26857 -10.26764 -10.26724 -10.26477 -10.25839
 Alpha  occ. eigenvalues --  -10.25718 -10.25352 -10.25052 -10.23954 -10.23878
 Alpha  occ. eigenvalues --  -10.23818 -10.23427 -10.23293 -10.23173 -10.23071
 Alpha  occ. eigenvalues --  -10.23022 -10.22849 -10.22619 -10.22250 -10.22016
 Alpha  occ. eigenvalues --  -10.21922 -10.21691 -10.21332 -10.20432 -10.20352
 Alpha  occ. eigenvalues --  -10.20208 -10.19428 -10.19142 -10.18746 -10.18696
 Alpha  occ. eigenvalues --  -10.18632 -10.18351 -10.17801 -10.17697 -10.17526
 Alpha  occ. eigenvalues --  -10.17396 -10.17114 -10.16841 -10.16811 -10.16751
 Alpha  occ. eigenvalues --  -10.16227 -10.16020 -10.15646 -10.15592 -10.15331
 Alpha  occ. eigenvalues --  -10.15195 -10.14992  -1.80103  -1.14170  -1.09105
 Alpha  occ. eigenvalues --   -1.07652  -1.07429  -1.07142  -1.06229  -1.03942
 Alpha  occ. eigenvalues --   -1.03792  -1.03593  -1.03345  -1.02908  -1.01952
 Alpha  occ. eigenvalues --   -1.01773  -1.01575  -1.00740  -1.00732  -0.99301
 Alpha  occ. eigenvalues --   -0.98833  -0.98256  -0.98117  -0.97942  -0.97627
 Alpha  occ. eigenvalues --   -0.97197  -0.96747  -0.95735  -0.93418  -0.92927
 Alpha  occ. eigenvalues --   -0.92526  -0.92325  -0.91108  -0.91016  -0.90478
 Alpha  occ. eigenvalues --   -0.89960  -0.89195  -0.88925  -0.88652  -0.88411
 Alpha  occ. eigenvalues --   -0.88076  -0.87507  -0.87138  -0.86452  -0.85790
 Alpha  occ. eigenvalues --   -0.82463  -0.81762  -0.81594  -0.80926  -0.78886
 Alpha  occ. eigenvalues --   -0.77701  -0.77375  -0.77025  -0.76386  -0.75745
 Alpha  occ. eigenvalues --   -0.75353  -0.74627  -0.74009  -0.72735  -0.71511
 Alpha  occ. eigenvalues --   -0.71336  -0.71215  -0.70824  -0.70656  -0.69830
 Alpha  occ. eigenvalues --   -0.69354  -0.69024  -0.68517  -0.68031  -0.67523
 Alpha  occ. eigenvalues --   -0.66679  -0.65332  -0.64710  -0.64291  -0.64172
 Alpha  occ. eigenvalues --   -0.63169  -0.63051  -0.62279  -0.61843  -0.61604
 Alpha  occ. eigenvalues --   -0.61512  -0.61436  -0.59944  -0.59552  -0.58848
 Alpha  occ. eigenvalues --   -0.58585  -0.58362  -0.57660  -0.57472  -0.56616
 Alpha  occ. eigenvalues --   -0.56578  -0.56535  -0.56046  -0.55791  -0.55463
 Alpha  occ. eigenvalues --   -0.55317  -0.55198  -0.54652  -0.54573  -0.54376
 Alpha  occ. eigenvalues --   -0.53880  -0.53451  -0.53183  -0.52766  -0.52650
 Alpha  occ. eigenvalues --   -0.52246  -0.52151  -0.51902  -0.51333  -0.51301
 Alpha  occ. eigenvalues --   -0.51124  -0.50239  -0.50087  -0.49572  -0.49332
 Alpha  occ. eigenvalues --   -0.49026  -0.48877  -0.48773  -0.48331  -0.48178
 Alpha  occ. eigenvalues --   -0.48091  -0.47942  -0.47563  -0.47396  -0.47115
 Alpha  occ. eigenvalues --   -0.46571  -0.46472  -0.46227  -0.45882  -0.45660
 Alpha  occ. eigenvalues --   -0.45590  -0.45346  -0.45314  -0.45153  -0.44979
 Alpha  occ. eigenvalues --   -0.44806  -0.44517  -0.44427  -0.44142  -0.44111
 Alpha  occ. eigenvalues --   -0.43856  -0.43644  -0.43423  -0.43321  -0.43177
 Alpha  occ. eigenvalues --   -0.42850  -0.42780  -0.42586  -0.42410  -0.42277
 Alpha  occ. eigenvalues --   -0.42024  -0.41946  -0.41840  -0.41674  -0.41384
 Alpha  occ. eigenvalues --   -0.41076  -0.40891  -0.40724  -0.40708  -0.40602
 Alpha  occ. eigenvalues --   -0.40421  -0.40392  -0.40353  -0.40223  -0.40111
 Alpha  occ. eigenvalues --   -0.40034  -0.39858  -0.39735  -0.39573  -0.39432
 Alpha  occ. eigenvalues --   -0.39223  -0.39149  -0.39097  -0.39030  -0.38951
 Alpha  occ. eigenvalues --   -0.38792  -0.38618  -0.38577  -0.38487  -0.38172
 Alpha  occ. eigenvalues --   -0.37978  -0.37932  -0.37874  -0.37672  -0.37529
 Alpha  occ. eigenvalues --   -0.37339  -0.37178  -0.37068  -0.36837  -0.36794
 Alpha  occ. eigenvalues --   -0.36672  -0.36559  -0.36359  -0.36182  -0.36124
 Alpha  occ. eigenvalues --   -0.35949  -0.35680  -0.35622  -0.35368  -0.35262
 Alpha  occ. eigenvalues --   -0.35171  -0.34859  -0.34708  -0.34228  -0.33913
 Alpha  occ. eigenvalues --   -0.33870  -0.33812  -0.33466  -0.33404  -0.33292
 Alpha  occ. eigenvalues --   -0.33093  -0.32928  -0.32857  -0.32382  -0.32150
 Alpha  occ. eigenvalues --   -0.31864  -0.31698  -0.31351  -0.31192  -0.31164
 Alpha  occ. eigenvalues --   -0.30473  -0.30385  -0.30371  -0.29834  -0.29598
 Alpha  occ. eigenvalues --   -0.28750  -0.28218  -0.27737  -0.27431  -0.27236
 Alpha  occ. eigenvalues --   -0.26727  -0.26721  -0.26248  -0.25886  -0.25736
 Alpha  occ. eigenvalues --   -0.25689  -0.25315  -0.24886  -0.24606  -0.24280
 Alpha  occ. eigenvalues --   -0.24123  -0.23822  -0.23244  -0.23144  -0.22892
 Alpha  occ. eigenvalues --   -0.22540  -0.22337  -0.22112  -0.22071  -0.21928
 Alpha  occ. eigenvalues --   -0.21485  -0.21437  -0.21333  -0.21035  -0.20909
 Alpha  occ. eigenvalues --   -0.20585  -0.19961  -0.19624  -0.19229  -0.19094
 Alpha  occ. eigenvalues --   -0.19067  -0.18803  -0.18354
 Alpha virt. eigenvalues --   -0.10944  -0.04902  -0.04486  -0.04383  -0.01839
 Alpha virt. eigenvalues --   -0.01287   0.00278   0.00408   0.00727   0.01111
 Alpha virt. eigenvalues --    0.01652   0.01868   0.01942   0.02312   0.02365

 Mulliken charges:
               1
     1  C    0.056889
     2  C    0.023096
     3  O   -0.295078
     4  H    0.050020
     5  H    0.025088
     6  H    0.013395
     7  N   -0.113461
     8  C   -0.002078
     9  C    0.052983
    10  O   -0.287841
    11  C    0.136785
    12  C    0.156450
    13  O   -0.459851
    14  O   -0.383512
    15  H    0.112897
    16  H    0.051736
    17  H   -0.008634
    18  H    0.001446
    19  N   -0.133029
    20  C    0.161980
    21  C    0.026547
    22  O   -0.301211
    23  C    0.014787
    24  C    0.000046
    25  C   -0.033943
    26  C    0.036406
    27  N    0.068469
    28  H    0.162528
    29  H    0.004402
    30  H    0.030954
    31  H    0.043591
    32  H    0.005612
    33  H   -0.020784
    34  H    0.033346
    35  H    0.060387
    36  H    0.074703
    37  H    0.069375
    38  H    0.192336
    39  H    0.195318
    40  H    0.195658
    41  N   -0.146430
    42  C    0.089298
    43  C    0.082961
    44  O   -0.294897
    45  C    0.167587
    46  C    0.045675
    47  O   -0.420347
    48  O   -0.399114
    49  H    0.159712
    50  H    0.015185
    51  H   -0.029444
    52  H   -0.003929
    53  N   -0.154225
    54  C    0.256275
    55  C    0.031477
    56  O   -0.300570
    57  H    0.150068
    58  H    0.018993
    59  H    0.032248
    60  N   -0.160846
    61  C    0.148554
    62  C    0.049934
    63  O   -0.301376
    64  C    0.047643
    65  C    0.081612
    66  N   -0.030783
    67  O   -0.331793
    68  H    0.150282
    69  H    0.016456
    70  H    0.040781
    71  H    0.036609
    72  H    0.115152
    73  H    0.086852
    74  N   -0.185471
    75  C    0.263427
    76  C    0.002882
    77  O   -0.300302
    78  H    0.149447
    79  H    0.033943
    80  H    0.022140
    81  N   -0.142610
    82  C    0.127987
    83  C    0.151443
    84  O   -0.362737
    85  C    0.116008
    86  C   -0.005455
    87  C    0.001622
    88  C    0.032657
    89  C   -0.007974
    90  C   -0.041875
    91  C    0.158350
    92  O   -0.206885
    93  H    0.146422
    94  H   -0.017887
    95  H   -0.028625
    96  H   -0.015623
    97  H   -0.039635
    98  H   -0.033392
    99  H   -0.037813
   100  H   -0.041241
   101  H    0.177586
   102  N   -0.116704
   103  C    0.134775
   104  C    0.041796
   105  O   -0.288568
   106  C   -0.094906
   107  C   -0.000346
   108  C    0.052035
   109  C    0.048373
   110  H    0.129247
   111  H    0.033034
   112  H   -0.026616
   113  H    0.014216
   114  H   -0.002356
   115  H    0.018901
   116  H    0.016914
   117  H    0.003940
   118  H    0.010733
   119  H   -0.003390
   120  H    0.010365
   121  N   -0.138832
   122  C    0.094985
   123  C    0.089388
   124  O   -0.281873
   125  C    0.285827
   126  O   -0.343564
   127  H    0.148626
   128  H   -0.005969
   129  H   -0.024746
   130  H    0.005149
   131  H    0.169746
   132  N   -0.106843
   133  C    0.075994
   134  C    0.056062
   135  O   -0.254621
   136  C    0.062843
   137  H    0.113604
   138  H    0.021907
   139  H    0.023553
   140  H   -0.001013
   141  H    0.047377
   142  N   -0.119887
   143  C    0.077530
   144  C    0.063580
   145  O   -0.250385
   146  C    0.015507
   147  H    0.100253
   148  H    0.013763
   149  H    0.026585
   150  H    0.031892
   151  H    0.019450
   152  N   -0.128249
   153  C    0.154614
   154  C    0.040702
   155  O   -0.284498
   156  C   -0.078690
   157  C    0.084569
   158  C    0.133307
   159  O   -0.446606
   160  O   -0.341488
   161  H    0.107398
   162  H   -0.027418
   163  H    0.038295
   164  H    0.030154
   165  H   -0.009936
   166  H   -0.013381
   167  N   -0.169012
   168  C    0.159139
   169  H    0.024913
   170  H    0.013682
   171  H   -0.001915
   172  H    0.138352
   173  Ca   1.257367
   174  O   -0.257139
   175  H    0.206007
   176  H    0.188708
 Sum of Mulliken charges =  -0.00000

 Dipole moment (field-independent basis, Debye):
    X=             28.2232    Y=             14.7180    Z=            -12.9382  Tot=             34.3593
 Quadrupole moment (field-independent basis, Debye-Ang):
   XX=           -680.2260   YY=           -295.6226   ZZ=           -499.9468
   XY=            144.4993   XZ=            -16.8292   YZ=             21.1754

 ESP charges:
               1
     1  C   -0.425705
     2  C    0.790830
     3  O   -0.608492
     4  H    0.135688
     5  H    0.107854
     6  H    0.094480
     7  N   -0.865715
     8  C    0.532810
     9  C    0.446364
    10  O   -0.536627
    11  C   -0.521151
    12  C    0.796864
    13  O   -0.812565
    14  O   -0.626778
    15  H    0.391662
    16  H    0.033635
    17  H    0.101893
    18  H    0.154711
    19  N   -0.325365
    20  C   -0.085397
    21  C    0.565172
    22  O   -0.604143
    23  C   -0.296408
    24  C    0.391347
    25  C   -0.308858
    26  C    0.184361
    27  N   -0.359745
    28  H    0.306420
    29  H    0.119670
    30  H    0.095128
    31  H    0.125409
    32  H   -0.075700
    33  H   -0.064696
    34  H    0.081420
    35  H    0.101187
    36  H    0.051469
    37  H    0.055739
    38  H    0.307311
    39  H    0.353433
    40  H    0.302477
    41  N   -0.312985
    42  C    0.059334
    43  C    0.387927
    44  O   -0.539036
    45  C   -0.282563
    46  C    0.803184
    47  O   -0.775726
    48  O   -0.754417
    49  H    0.236993
    50  H    0.100923
    51  H    0.074780
    52  H    0.077598
    53  N    0.056943
    54  C   -0.403881
    55  C    0.657562
    56  O   -0.587348
    57  H    0.092592
    58  H    0.150981
    59  H    0.165342
    60  N   -0.363825
    61  C   -0.027930
    62  C    0.304712
    63  O   -0.506738
    64  C   -0.252488
    65  C    0.685188
    66  N   -0.793000
    67  O   -0.467317
    68  H    0.198423
    69  H    0.138806
    70  H    0.100271
    71  H    0.099069
    72  H    0.345487
    73  H    0.352713
    74  N    0.110975
    75  C   -0.417186
    76  C    0.724193
    77  O   -0.560269
    78  H    0.116871
    79  H    0.180942
    80  H    0.120035
    81  N   -0.685972
    82  C    0.241483
    83  C    0.622698
    84  O   -0.588262
    85  C    0.075718
    86  C    0.047735
    87  C   -0.332521
    88  C   -0.244439
    89  C    0.015037
    90  C   -0.104655
    91  C    0.184445
    92  O   -0.542681
    93  H    0.336846
    94  H    0.022684
    95  H   -0.010907
    96  H   -0.035769
    97  H    0.164149
    98  H    0.154002
    99  H    0.075790
   100  H    0.100466
   101  H    0.425658
   102  N   -0.627895
   103  C   -0.311889
   104  C    0.738234
   105  O   -0.574035
   106  C    0.303664
   107  C    0.200918
   108  C   -0.498166
   109  C   -0.378218
   110  H    0.335879
   111  H    0.187182
   112  H    0.008713
   113  H   -0.024010
   114  H   -0.010219
   115  H    0.128176
   116  H    0.101957
   117  H    0.119601
   118  H    0.084752
   119  H    0.077492
   120  H    0.089847
   121  N   -0.406520
   122  C   -0.197539
   123  C    0.637043
   124  O   -0.461958
   125  C    0.237209
   126  O   -0.538136
   127  H    0.358610
   128  H    0.072603
   129  H   -0.013349
   130  H    0.038163
   131  H    0.307668
   132  N   -0.500624
   133  C    0.113438
   134  C    0.628130
   135  O   -0.557121
   136  C   -0.325358
   137  H    0.295921
   138  H    0.068106
   139  H    0.111995
   140  H    0.066351
   141  H    0.121420
   142  N   -0.551659
   143  C    0.320941
   144  C    0.261508
   145  O   -0.486874
   146  C   -0.445506
   147  H    0.293213
   148  H    0.043718
   149  H    0.128141
   150  H    0.120232
   151  H    0.117391
   152  N    0.099509
   153  C   -0.458204
   154  C    0.642638
   155  O   -0.576686
   156  C    0.392359
   157  C   -0.231148
   158  C    0.768500
   159  O   -0.750835
   160  O   -0.665082
   161  H    0.018860
   162  H    0.109097
   163  H   -0.026000
   164  H   -0.198468
   165  H    0.037873
   166  H    0.045761
   167  N   -0.140450
   168  C   -0.296253
   169  H    0.127574
   170  H    0.096135
   171  H    0.098415
   172  H    0.199310
   173  Ca   1.490570
   174  O   -0.726800
   175  H    0.416184
   176  H    0.389371
 Sum of ESP charges =   0.00000

 Normal termination of Gaussian 16 at Wed Sep 18 16:09:33 2019.
