 Gaussian 16, Revision A.03,
 Gaussian 16:  ES64L-G16RevA.03 25-Dec-2016

 ----------------------------------------------------------------------
 #b3lyp/svp scf=(tight,noincore) Test #IOP(5/87=12) Density=Current Pop
 =(MK,readradii) iop(6/33=2) iop(6/42=6)
 ----------------------------------------------------------------------

 -----------------
 CaMKII_loop3_94.0
 -----------------
 Symbolic Z-matrix:
 Charge =  0 Multiplicity = 1

                         Standard orientation:
 ---------------------------------------------------------------------
 Center     Atomic      Atomic             Coordinates (Angstroms)
 Number     Number       Type             X           Y           Z
 ---------------------------------------------------------------------
      1          6           0        2.463619    3.773250    4.293439
      2          6           0        1.582095    3.461697    3.087598
      3          8           0        2.133480    3.141651    2.036673
      4          1           0        3.446574    3.325747    4.149698
      5          1           0        2.568770    4.852649    4.397928
      6          1           0        2.006471    3.363385    5.194455
      7          7           0        0.256454    3.440097    3.236966
      8          6           0       -0.586308    2.829389    2.228111
      9          6           0       -1.052655    3.810039    1.162773
     10          8           0       -2.124107    4.395251    1.303909
     11          6           0       -1.731670    2.156540    2.977458
     12          6           0       -2.544602    1.237084    2.069524
     13          8           0       -3.781859    1.352080    2.164765
     14          8           0       -2.002276    0.615396    1.134919
     15          1           0       -0.204250    3.652622    4.118434
     16          1           0        0.077586    2.152850    1.684290
     17          1           0       -2.282996    2.988497    3.402646
     18          1           0       -1.322105    1.474496    3.722624
     19          7           0       -0.244642    4.034687    0.118959
     20          6           0       -0.310151    5.218366   -0.729105
     21          6           0       -1.528532    5.296305   -1.640627
     22          8           0       -1.852186    6.377578   -2.119268
     23          6           0        0.903358    5.248746   -1.652779
     24          6           0        2.194677    5.225983   -0.835785
     25          6           0        2.598453    6.405340    0.048851
     26          6           0        3.898889    6.117936    0.796691
     27          7           0        4.305512    7.234003    1.659276
     28          1           0        0.664358    3.608115    0.059328
     29          1           0       -0.229939    6.145560   -0.155628
     30          1           0        0.875233    6.009751   -2.425683
     31          1           0        0.810184    4.323920   -2.221123
     32          1           0        2.948073    5.102900   -1.623278
     33          1           0        2.188967    4.329335   -0.222116
     34          1           0        1.774235    6.558444    0.741039
     35          1           0        2.565022    7.291633   -0.580963
     36          1           0        4.684372    5.953305    0.050961
     37          1           0        3.790577    5.200508    1.375132
     38          1           0        5.255316    7.305305    1.998965
     39          1           0        4.035292    8.100122    1.220050
     40          1           0        3.831603    7.175718    2.554437
     41          7           0       -2.264507    4.199729   -1.785405
     42          6           0       -3.391685    4.150104   -2.699958
     43          6           0       -4.579762    3.824347   -1.809534
     44          8           0       -5.721979    3.782714   -2.259210
     45          6           0       -3.095960    3.264386   -3.901727
     46          6           0       -2.681011    1.890890   -3.388866
     47          8           0       -2.152136    1.181684   -4.278089
     48          8           0       -2.698449    1.485183   -2.213112
     49          1           0       -1.923735    3.341093   -1.385757
     50          1           0       -3.645140    5.130220   -3.110486
     51          1           0       -2.176835    3.666127   -4.337518
     52          1           0       -3.933066    3.184083   -4.595561
     53          7           0       -4.384394    3.692932   -0.495661
     54          6           0       -5.393230    3.468319    0.508529
     55          6           0       -6.208599    2.190010    0.344517
     56          8           0       -7.219429    2.026580    1.023203
     57          1           0       -3.482099    3.870150   -0.071565
     58          1           0       -6.114976    4.282679    0.472472
     59          1           0       -4.790763    3.503715    1.409794
     60          7           0       -5.790357    1.228345   -0.473819
     61          6           0       -6.468633   -0.022919   -0.752172
     62          6           0       -6.260778   -1.104447    0.310840
     63          8           0       -6.600127   -2.258856    0.083947
     64          6           0       -6.164813   -0.530934   -2.166250
     65          6           0       -4.957152   -1.433534   -2.303976
     66          7           0       -4.953112   -2.393934   -3.233822
     67          8           0       -3.971617   -1.323866   -1.580032
     68          1           0       -4.945142    1.450218   -0.974302
     69          1           0       -7.525835    0.190877   -0.617958
     70          1           0       -6.021080    0.371543   -2.765229
     71          1           0       -7.076945   -1.062296   -2.432277
     72          1           0       -5.815252   -2.435869   -3.755315
     73          1           0       -4.120731   -2.900751   -3.508373
     74          7           0       -5.981120   -0.721775    1.561382
     75          6           0       -6.081663   -1.590239    2.721322
     76          6           0       -4.927738   -2.551220    2.961887
     77          8           0       -4.889417   -3.215328    3.988577
     78          1           0       -5.448360    0.126389    1.658253
     79          1           0       -6.980292   -2.198978    2.719927
     80          1           0       -6.084300   -0.962672    3.613484
     81          7           0       -3.870853   -2.507532    2.143055
     82          6           0       -2.686170   -3.286922    2.396981
     83          6           0       -1.341966   -2.718058    1.944534
     84          8           0       -1.123705   -2.312385    0.808404
     85          6           0       -3.049111   -4.735559    2.031980
     86          6           0       -3.140418   -4.970924    0.546226
     87          6           0       -4.377458   -4.819120   -0.076340
     88          6           0       -2.011678   -5.343765   -0.210634
     89          6           0       -4.441620   -5.117824   -1.444828
     90          6           0       -2.107873   -5.710731   -1.550590
     91          6           0       -3.353051   -5.570982   -2.207629
     92          8           0       -3.455760   -6.009777   -3.491923
     93          1           0       -3.958028   -1.970957    1.285624
     94          1           0       -2.599174   -3.348513    3.482863
     95          1           0       -3.928374   -5.019715    2.611594
     96          1           0       -2.200865   -5.327262    2.343213
     97          1           0       -5.263518   -4.425412    0.407077
     98          1           0       -1.024286   -5.367112    0.228698
     99          1           0       -5.382290   -4.997177   -1.966924
    100          1           0       -1.258515   -6.176912   -2.034808
    101          1           0       -2.549072   -6.082181   -3.779282
    102          7           0       -0.298654   -2.727102    2.771768
    103          6           0        1.057131   -2.339209    2.432083
    104          6           0        1.618295   -3.419162    1.522744
    105          8           0        1.532491   -4.604653    1.853120
    106          6           0        1.956417   -2.245320    3.666332
    107          6           0        1.336878   -1.483558    4.828352
    108          6           0        3.220581   -1.472972    3.326969
    109          6           0        2.202801   -1.234792    6.062731
    110          1           0       -0.324635   -3.088608    3.710724
    111          1           0        1.174592   -1.339881    2.014294
    112          1           0        2.150577   -3.266574    4.024022
    113          1           0        0.443753   -1.999729    5.187790
    114          1           0        1.027694   -0.500640    4.470611
    115          1           0        3.568603   -1.822045    2.360310
    116          1           0        3.037059   -0.410840    3.152625
    117          1           0        3.908670   -1.603100    4.170177
    118          1           0        2.974187   -0.499588    5.820783
    119          1           0        1.573387   -0.862910    6.873189
    120          1           0        2.698626   -2.156774    6.337696
    121          7           0        1.835257   -3.045947    0.261935
    122          6           0        2.830675   -3.676006   -0.576557
    123          6           0        4.270959   -3.323442   -0.218954
    124          8           0        4.593790   -2.375737    0.490226
    125          6           0        2.475296   -3.392985   -2.033302
    126          8           0        2.737360   -2.024307   -2.295302
    127          1           0        1.625884   -2.088771    0.031770
    128          1           0        2.778242   -4.760538   -0.422798
    129          1           0        1.426158   -3.659579   -2.124609
    130          1           0        3.116173   -3.982051   -2.695101
    131          1           0        2.103767   -1.511663   -1.794147
    132          7           0        5.272127   -4.044225   -0.728302
    133          6           0        6.668636   -3.761072   -0.449222
    134          6           0        7.178937   -2.479355   -1.096210
    135          8           0        7.831348   -1.643967   -0.457471
    136          6           0        7.577710   -4.899475   -0.901022
    137          1           0        5.028859   -4.938880   -1.144129
    138          1           0        6.790636   -3.580724    0.613412
    139          1           0        8.603937   -4.820116   -0.547383
    140          1           0        7.101739   -5.845493   -0.614488
    141          1           0        7.723778   -4.898100   -1.974456
    142          7           0        6.841054   -2.230825   -2.356475
    143          6           0        7.252105   -0.998256   -2.997655
    144          6           0        6.683798    0.249536   -2.339670
    145          8           0        7.071997    1.385810   -2.584990
    146          6           0        6.887525   -1.198876   -4.468754
    147          1           0        6.373078   -2.925817   -2.925407
    148          1           0        8.336909   -0.929904   -2.958575
    149          1           0        5.829959   -1.440140   -4.593036
    150          1           0        7.015836   -0.232032   -4.941562
    151          1           0        7.586160   -1.906774   -4.890880
    152          7           0        5.702811    0.178863   -1.433595
    153          6           0        5.169572    1.303064   -0.688459
    154          6           0        5.953010    1.616679    0.580427
    155          8           0        6.111551    2.765573    0.976666
    156          6           0        3.717100    1.040870   -0.300284
    157          6           0        2.829331    1.131540   -1.532171
    158          6           0        1.388984    0.723535   -1.240909
    159          8           0        0.409775    1.506982   -1.289496
    160          8           0        1.170234   -0.464747   -0.933285
    161          1           0        5.303962   -0.742571   -1.411727
    162          1           0        5.202625    2.263646   -1.223611
    163          1           0        3.292845    1.819961    0.333849
    164          1           0        3.721735    0.076817    0.195276
    165          1           0        3.242466    0.422436   -2.246168
    166          1           0        2.867656    2.167349   -1.874416
    167          7           0        6.392905    0.515141    1.186650
    168          6           0        7.166391    0.493483    2.409782
    169          1           0        8.167861    0.118337    2.199529
    170          1           0        7.235048    1.503043    2.814758
    171          1           0        6.680067   -0.157285    3.135927
    172          1           0        6.118634   -0.377815    0.789151
    173         20           0       -1.453217   -0.444710   -1.138956
    174          8           0       -1.507713   -3.019112   -1.919906
    175          1           0       -1.961879   -3.793249   -1.579693
    176          1           0       -1.028120   -3.343244   -2.682684
 ---------------------------------------------------------------------

 SCF Done:  E(RB3LYP) =  -5333.59336382     A.U. after   19 cycles

 The electronic state is 1-A.
 Alpha  occ. eigenvalues -- -145.35786 -19.17434 -19.14712 -19.12998 -19.12614
 Alpha  occ. eigenvalues --  -19.12274 -19.11455 -19.10772 -19.10217 -19.09665
 Alpha  occ. eigenvalues --  -19.09651 -19.09387 -19.08579 -19.08311 -19.07721
 Alpha  occ. eigenvalues --  -19.06787 -19.06384 -19.05973 -19.04168 -19.03575
 Alpha  occ. eigenvalues --  -19.03406 -19.03110 -19.02122 -18.99958 -15.41528
 Alpha  occ. eigenvalues --  -14.57801 -14.39111 -14.37901 -14.37869 -14.36273
 Alpha  occ. eigenvalues --  -14.34963 -14.34724 -14.34702 -14.34337 -14.33715
 Alpha  occ. eigenvalues --  -14.33083 -14.31059 -14.30770 -14.29594 -14.28722
 Alpha  occ. eigenvalues --  -12.55150 -12.55107 -12.55087 -10.33181 -10.31254
 Alpha  occ. eigenvalues --  -10.31229 -10.30042 -10.29659 -10.28444 -10.28274
 Alpha  occ. eigenvalues --  -10.27984 -10.27634 -10.27474 -10.26583 -10.26343
 Alpha  occ. eigenvalues --  -10.26096 -10.25538 -10.25507 -10.25426 -10.24984
 Alpha  occ. eigenvalues --  -10.24903 -10.24798 -10.24502 -10.23034 -10.22983
 Alpha  occ. eigenvalues --  -10.22813 -10.22642 -10.22574 -10.22425 -10.22386
 Alpha  occ. eigenvalues --  -10.22258 -10.22236 -10.22167 -10.21936 -10.21144
 Alpha  occ. eigenvalues --  -10.20994 -10.20488 -10.20403 -10.20132 -10.19786
 Alpha  occ. eigenvalues --  -10.19758 -10.19549 -10.19473 -10.18932 -10.18743
 Alpha  occ. eigenvalues --  -10.18603 -10.18558 -10.18479 -10.18317 -10.18156
 Alpha  occ. eigenvalues --  -10.18108 -10.17977 -10.17613 -10.17320 -10.16571
 Alpha  occ. eigenvalues --  -10.16545 -10.14295  -1.78280  -1.12964  -1.06750
 Alpha  occ. eigenvalues --   -1.06653  -1.06163  -1.05853  -1.05575  -1.05565
 Alpha  occ. eigenvalues --   -1.04669  -1.04388  -1.03864  -1.02633  -1.02586
 Alpha  occ. eigenvalues --   -1.02253  -1.02204  -1.01153  -1.01078  -1.00965
 Alpha  occ. eigenvalues --   -1.00586  -0.99501  -0.99450  -0.97872  -0.97298
 Alpha  occ. eigenvalues --   -0.96937  -0.96206  -0.95417  -0.94316  -0.94225
 Alpha  occ. eigenvalues --   -0.92890  -0.92674  -0.92437  -0.92286  -0.91585
 Alpha  occ. eigenvalues --   -0.90223  -0.89557  -0.89378  -0.88775  -0.87992
 Alpha  occ. eigenvalues --   -0.87702  -0.87461  -0.86662  -0.85915  -0.85208
 Alpha  occ. eigenvalues --   -0.85143  -0.82501  -0.81831  -0.80976  -0.79399
 Alpha  occ. eigenvalues --   -0.78745  -0.78323  -0.78028  -0.77263  -0.75756
 Alpha  occ. eigenvalues --   -0.75559  -0.74942  -0.74658  -0.74190  -0.73274
 Alpha  occ. eigenvalues --   -0.73036  -0.72867  -0.72606  -0.70507  -0.70363
 Alpha  occ. eigenvalues --   -0.69453  -0.69261  -0.68602  -0.68467  -0.67822
 Alpha  occ. eigenvalues --   -0.66845  -0.65943  -0.65425  -0.65227  -0.64628
 Alpha  occ. eigenvalues --   -0.64517  -0.62676  -0.62386  -0.62202  -0.61754
 Alpha  occ. eigenvalues --   -0.61728  -0.60830  -0.60773  -0.60457  -0.59897
 Alpha  occ. eigenvalues --   -0.59412  -0.59045  -0.58948  -0.58208  -0.58004
 Alpha  occ. eigenvalues --   -0.57244  -0.56469  -0.56373  -0.55777  -0.55518
 Alpha  occ. eigenvalues --   -0.55381  -0.55191  -0.55010  -0.54858  -0.54688
 Alpha  occ. eigenvalues --   -0.54487  -0.54121  -0.53948  -0.53770  -0.53670
 Alpha  occ. eigenvalues --   -0.53219  -0.52818  -0.52703  -0.51985  -0.51902
 Alpha  occ. eigenvalues --   -0.51283  -0.50990  -0.50639  -0.49890  -0.49769
 Alpha  occ. eigenvalues --   -0.49743  -0.49227  -0.49130  -0.49018  -0.48592
 Alpha  occ. eigenvalues --   -0.48415  -0.48184  -0.48042  -0.47916  -0.47453
 Alpha  occ. eigenvalues --   -0.47372  -0.47239  -0.47130  -0.46883  -0.46658
 Alpha  occ. eigenvalues --   -0.46544  -0.46382  -0.46189  -0.45583  -0.45489
 Alpha  occ. eigenvalues --   -0.45252  -0.45082  -0.44882  -0.44519  -0.44351
 Alpha  occ. eigenvalues --   -0.44259  -0.44047  -0.43990  -0.43934  -0.43771
 Alpha  occ. eigenvalues --   -0.43570  -0.43419  -0.43412  -0.43220  -0.43066
 Alpha  occ. eigenvalues --   -0.42965  -0.42862  -0.42790  -0.42386  -0.42349
 Alpha  occ. eigenvalues --   -0.42248  -0.42102  -0.42026  -0.41981  -0.41730
 Alpha  occ. eigenvalues --   -0.41585  -0.41479  -0.41348  -0.41138  -0.40965
 Alpha  occ. eigenvalues --   -0.40811  -0.40720  -0.40530  -0.40382  -0.40120
 Alpha  occ. eigenvalues --   -0.40081  -0.39926  -0.39903  -0.39769  -0.39733
 Alpha  occ. eigenvalues --   -0.39605  -0.39570  -0.39400  -0.39235  -0.39046
 Alpha  occ. eigenvalues --   -0.38702  -0.38526  -0.38429  -0.38363  -0.38333
 Alpha  occ. eigenvalues --   -0.38194  -0.38048  -0.37965  -0.37822  -0.37414
 Alpha  occ. eigenvalues --   -0.37313  -0.37090  -0.37005  -0.36880  -0.36600
 Alpha  occ. eigenvalues --   -0.36466  -0.36270  -0.36048  -0.35957  -0.35870
 Alpha  occ. eigenvalues --   -0.35735  -0.35386  -0.35095  -0.34832  -0.34822
 Alpha  occ. eigenvalues --   -0.34377  -0.34151  -0.33845  -0.33729  -0.33628
 Alpha  occ. eigenvalues --   -0.33578  -0.33317  -0.33162  -0.33058  -0.32836
 Alpha  occ. eigenvalues --   -0.32812  -0.32588  -0.32253  -0.31890  -0.31756
 Alpha  occ. eigenvalues --   -0.31723  -0.31147  -0.30462  -0.29955  -0.29684
 Alpha  occ. eigenvalues --   -0.29455  -0.29023  -0.28505  -0.28331  -0.27749
 Alpha  occ. eigenvalues --   -0.27493  -0.27169  -0.27064  -0.26974  -0.26929
 Alpha  occ. eigenvalues --   -0.26482  -0.26158  -0.25896  -0.25764  -0.25435
 Alpha  occ. eigenvalues --   -0.25296  -0.25167  -0.24740  -0.24466  -0.24194
 Alpha  occ. eigenvalues --   -0.24105  -0.23848  -0.23568  -0.23274  -0.23038
 Alpha  occ. eigenvalues --   -0.22312  -0.22098  -0.21618  -0.21316  -0.21131
 Alpha  occ. eigenvalues --   -0.20809  -0.20641  -0.19502  -0.19188  -0.18818
 Alpha  occ. eigenvalues --   -0.18349  -0.18034  -0.16052
 Alpha virt. eigenvalues --   -0.10087  -0.04816  -0.03452  -0.02118  -0.01818
 Alpha virt. eigenvalues --   -0.01195  -0.00801  -0.00406  -0.00219   0.00141
 Alpha virt. eigenvalues --    0.00489   0.00719   0.01111   0.01250   0.01522

 Mulliken charges:
               1
     1  C    0.047846
     2  C    0.025452
     3  O   -0.293928
     4  H    0.052115
     5  H   -0.005164
     6  H    0.032067
     7  N   -0.111841
     8  C    0.060220
     9  C    0.097597
    10  O   -0.287389
    11  C    0.100069
    12  C    0.116452
    13  O   -0.359038
    14  O   -0.450559
    15  H    0.123727
    16  H    0.019451
    17  H    0.008753
    18  H   -0.005386
    19  N   -0.106481
    20  C    0.099358
    21  C    0.057506
    22  O   -0.290334
    23  C    0.013667
    24  C   -0.026859
    25  C   -0.033303
    26  C    0.032746
    27  N    0.087994
    28  H    0.143042
    29  H   -0.014463
    30  H    0.021471
    31  H    0.028802
    32  H    0.022015
    33  H    0.032286
    34  H    0.016947
    35  H    0.023719
    36  H    0.082981
    37  H    0.095399
    38  H    0.188499
    39  H    0.186723
    40  H    0.181832
    41  N   -0.166728
    42  C    0.126623
    43  C    0.027569
    44  O   -0.298271
    45  C    0.124823
    46  C    0.091064
    47  O   -0.393161
    48  O   -0.467232
    49  H    0.158438
    50  H    0.021618
    51  H    0.011428
    52  H    0.028056
    53  N   -0.178864
    54  C    0.255090
    55  C    0.025410
    56  O   -0.315705
    57  H    0.139542
    58  H    0.006590
    59  H    0.032141
    60  N   -0.150389
    61  C    0.145370
    62  C    0.044060
    63  O   -0.308087
    64  C    0.080360
    65  C    0.080425
    66  N   -0.030120
    67  O   -0.349825
    68  H    0.138598
    69  H    0.030922
    70  H    0.065141
    71  H    0.013272
    72  H    0.119807
    73  H    0.135364
    74  N   -0.160111
    75  C    0.259309
    76  C    0.007757
    77  O   -0.303067
    78  H    0.159336
    79  H    0.027349
    80  H    0.038564
    81  N   -0.139290
    82  C    0.115814
    83  C    0.170335
    84  O   -0.342238
    85  C    0.165484
    86  C   -0.023284
    87  C    0.006259
    88  C   -0.012721
    89  C   -0.019229
    90  C   -0.149815
    91  C    0.135891
    92  O   -0.177435
    93  H    0.148929
    94  H   -0.009967
    95  H    0.033264
    96  H   -0.023947
    97  H    0.007407
    98  H   -0.007678
    99  H   -0.022851
   100  H   -0.038791
   101  H    0.164258
   102  N   -0.094532
   103  C    0.115798
   104  C    0.085117
   105  O   -0.283584
   106  C   -0.131890
   107  C    0.008463
   108  C    0.047124
   109  C    0.028881
   110  H    0.126793
   111  H    0.011441
   112  H   -0.002401
   113  H   -0.019357
   114  H   -0.007217
   115  H    0.030966
   116  H    0.004225
   117  H    0.011658
   118  H    0.007812
   119  H    0.013516
   120  H    0.007484
   121  N   -0.110056
   122  C    0.052633
   123  C    0.104675
   124  O   -0.280556
   125  C    0.287562
   126  O   -0.346425
   127  H    0.134407
   128  H    0.003355
   129  H   -0.014116
   130  H   -0.023397
   131  H    0.176131
   132  N   -0.128363
   133  C    0.122999
   134  C    0.025479
   135  O   -0.270260
   136  C    0.045974
   137  H    0.114872
   138  H    0.013841
   139  H    0.040953
   140  H    0.026522
   141  H   -0.000638
   142  N   -0.144437
   143  C    0.104168
   144  C    0.062631
   145  O   -0.282990
   146  C    0.032289
   147  H    0.115364
   148  H    0.026015
   149  H    0.026886
   150  H    0.032206
   151  H    0.023183
   152  N   -0.137378
   153  C    0.129639
   154  C    0.071422
   155  O   -0.308302
   156  C   -0.041030
   157  C    0.101566
   158  C    0.161928
   159  O   -0.374326
   160  O   -0.476441
   161  H    0.129058
   162  H   -0.011389
   163  H    0.025224
   164  H    0.004711
   165  H    0.003668
   166  H   -0.014403
   167  N   -0.158096
   168  C    0.130814
   169  H    0.029294
   170  H    0.015429
   171  H    0.014103
   172  H    0.144060
   173  Ca   1.299777
   174  O   -0.285934
   175  H    0.186048
   176  H    0.162509
 Sum of Mulliken charges =  -0.00000

 Dipole moment (field-independent basis, Debye):
    X=             30.0079    Y=              5.7708    Z=              5.7113  Tot=             31.0869
 Quadrupole moment (field-independent basis, Debye-Ang):
   XX=           -627.3366   YY=           -390.5036   ZZ=           -538.9560
   XY=             97.3803   XZ=             36.3400   YZ=            119.4161

 ESP charges:
               1
     1  C   -0.420296
     2  C    0.873757
     3  O   -0.668445
     4  H    0.131892
     5  H    0.078569
     6  H    0.111855
     7  N   -0.891815
     8  C    0.593402
     9  C    0.476140
    10  O   -0.504687
    11  C   -0.340712
    12  C    0.836914
    13  O   -0.689650
    14  O   -0.936767
    15  H    0.383556
    16  H   -0.011454
    17  H    0.068685
    18  H    0.054484
    19  N   -0.400389
    20  C   -0.223188
    21  C    0.592874
    22  O   -0.592879
    23  C    0.041323
    24  C   -0.074613
    25  C   -0.185738
    26  C    0.158480
    27  N   -0.318511
    28  H    0.329552
    29  H    0.123220
    30  H    0.058334
    31  H    0.033182
    32  H    0.048090
    33  H    0.076235
    34  H    0.042665
    35  H    0.083369
    36  H    0.068955
    37  H    0.050894
    38  H    0.326897
    39  H    0.292755
    40  H    0.304771
    41  N   -0.425382
    42  C    0.156829
    43  C    0.328711
    44  O   -0.543047
    45  C   -0.406334
    46  C    0.853264
    47  O   -0.736106
    48  O   -0.772633
    49  H    0.342574
    50  H    0.098409
    51  H    0.122186
    52  H    0.121553
    53  N   -0.041064
    54  C   -0.322285
    55  C    0.773516
    56  O   -0.635611
    57  H    0.120941
    58  H    0.109529
    59  H    0.145167
    60  N   -0.666953
    61  C    0.317559
    62  C    0.296867
    63  O   -0.500093
    64  C   -0.453436
    65  C    0.601263
    66  N   -0.641059
    67  O   -0.531204
    68  H    0.366179
    69  H    0.084655
    70  H    0.174043
    71  H    0.116760
    72  H    0.328855
    73  H    0.315329
    74  N   -0.087768
    75  C   -0.388941
    76  C    0.724265
    77  O   -0.589769
    78  H    0.246895
    79  H    0.152884
    80  H    0.163982
    81  N   -0.590047
    82  C    0.114275
    83  C    1.020246
    84  O   -0.630191
    85  C   -0.271463
    86  C    0.168227
    87  C   -0.181058
    88  C   -0.229768
    89  C   -0.179769
    90  C   -0.277041
    91  C    0.336039
    92  O   -0.517564
    93  H    0.325195
    94  H    0.057492
    95  H    0.142266
    96  H    0.056917
    97  H    0.164480
    98  H    0.184251
    99  H    0.134767
   100  H    0.125006
   101  H    0.379625
   102  N   -1.080894
   103  C    0.503527
   104  C    0.474544
   105  O   -0.544044
   106  C    0.062713
   107  C    0.234209
   108  C   -0.239411
   109  C   -0.272425
   110  H    0.400006
   111  H   -0.020292
   112  H   -0.023886
   113  H   -0.058448
   114  H   -0.043434
   115  H   -0.011822
   116  H    0.061476
   117  H    0.082736
   118  H    0.044595
   119  H    0.070501
   120  H    0.059167
   121  N   -0.354924
   122  C   -0.007802
   123  C    0.538952
   124  O   -0.430064
   125  C    0.201834
   126  O   -0.560892
   127  H    0.175739
   128  H    0.047223
   129  H   -0.007982
   130  H    0.007080
   131  H    0.336381
   132  N   -0.492658
   133  C    0.263461
   134  C    0.540615
   135  O   -0.582419
   136  C   -0.377204
   137  H    0.277811
   138  H    0.025021
   139  H    0.128682
   140  H    0.103669
   141  H    0.084093
   142  N   -0.486673
   143  C    0.325059
   144  C    0.158671
   145  O   -0.515915
   146  C   -0.412198
   147  H    0.276124
   148  H    0.061082
   149  H    0.123120
   150  H    0.126309
   151  H    0.106026
   152  N    0.391882
   153  C   -0.381566
   154  C    0.574502
   155  O   -0.596084
   156  C   -0.137311
   157  C   -0.007943
   158  C    0.593942
   159  O   -0.683819
   160  O   -0.527152
   161  H   -0.035439
   162  H    0.141113
   163  H    0.119552
   164  H    0.018363
   165  H   -0.030755
   166  H    0.017400
   167  N   -0.204191
   168  C   -0.155933
   169  H    0.084674
   170  H    0.085704
   171  H    0.057660
   172  H    0.209617
   173  Ca   1.496700
   174  O   -0.710568
   175  H    0.300318
   176  H    0.368175
 Sum of ESP charges =   0.00000

 Normal termination of Gaussian 16 at Sun Sep 15 01:19:57 2019.
