 Gaussian 16, Revision A.03,
 Gaussian 16:  ES64L-G16RevA.03 25-Dec-2016

 ----------------------------------------------------------------------
 #b3lyp/svp scf=(tight,noincore) Test #IOP(5/87=12) Density=Current Pop
 =(MK,readradii) iop(6/33=2) iop(6/42=6)
 ----------------------------------------------------------------------

 -----------------
 CaMKII_loop3_63.0
 -----------------
 Symbolic Z-matrix:
 Charge =  0 Multiplicity = 1

                         Standard orientation:
 ---------------------------------------------------------------------
 Center     Atomic      Atomic             Coordinates (Angstroms)
 Number     Number       Type             X           Y           Z
 ---------------------------------------------------------------------
      1          6           0        1.756107    1.412286    6.129318
      2          6           0        1.357764    1.518359    4.671693
      3          8           0        2.223269    1.440138    3.799407
      4          1           0        2.808959    1.138619    6.198934
      5          1           0        1.597989    2.372682    6.620629
      6          1           0        1.149685    0.649837    6.617138
      7          7           0        0.059381    1.462885    4.352281
      8          6           0       -0.399100    1.565715    2.982821
      9          6           0       -0.241114    2.987639    2.461216
     10          8           0       -0.709209    3.953458    3.061035
     11          6           0       -1.826229    1.057774    3.009239
     12          6           0       -2.548075    1.245134    1.684424
     13          8           0       -1.960341    1.660589    0.662384
     14          8           0       -3.794265    1.086192    1.703052
     15          1           0       -0.642376    1.439323    5.084116
     16          1           0        0.199939    0.862120    2.396898
     17          1           0       -2.413046    1.623499    3.735670
     18          1           0       -1.892099   -0.006160    3.262037
     19          7           0        0.414391    3.164913    1.315577
     20          6           0        0.829873    4.417038    0.708160
     21          6           0       -0.281898    5.214533    0.035874
     22          8           0       -0.064801    6.373623   -0.335984
     23          6           0        1.935007    4.119169   -0.292316
     24          6           0        2.579048    5.422315   -0.763507
     25          6           0        3.884889    5.220130   -1.531688
     26          6           0        4.604376    6.440952   -2.103032
     27          7           0        5.939214    5.998099   -2.517747
     28          1           0        0.903454    2.382278    0.911474
     29          1           0        1.358058    4.994484    1.465112
     30          1           0        1.454241    3.584039   -1.107240
     31          1           0        2.757022    3.509420    0.071274
     32          1           0        2.785380    6.140654    0.036565
     33          1           0        1.992937    5.885552   -1.556845
     34          1           0        3.624906    4.625114   -2.404651
     35          1           0        4.601572    4.690828   -0.909190
     36          1           0        4.682201    7.089986   -1.230967
     37          1           0        4.000291    6.820884   -2.925306
     38          1           0        6.137972    5.094295   -2.102375
     39          1           0        6.004091    5.769275   -3.495924
     40          1           0        6.698055    6.635457   -2.294283
     41          7           0       -1.475963    4.643171   -0.138353
     42          6           0       -2.529737    5.363910   -0.822675
     43          6           0       -3.957324    5.076047   -0.382415
     44          8           0       -4.908332    5.674504   -0.871835
     45          6           0       -2.538929    5.229954   -2.339010
     46          6           0       -2.582003    3.812869   -2.898041
     47          8           0       -2.619836    2.877316   -2.057678
     48          8           0       -2.641651    3.561820   -4.118498
     49          1           0       -1.566934    3.666794    0.116424
     50          1           0       -2.381824    6.429761   -0.675766
     51          1           0       -1.641786    5.590651   -2.825356
     52          1           0       -3.301420    5.880054   -2.772804
     53          7           0       -4.071287    4.294952    0.692994
     54          6           0       -5.290410    4.054243    1.438245
     55          6           0       -6.115869    2.943098    0.816174
     56          8           0       -7.173607    2.623056    1.357805
     57          1           0       -3.251914    3.754174    0.952969
     58          1           0       -5.840861    4.996181    1.494421
     59          1           0       -5.057248    3.713281    2.451300
     60          7           0       -5.748886    2.237574   -0.252498
     61          6           0       -6.590703    1.284644   -0.957033
     62          6           0       -6.743487   -0.070834   -0.277448
     63          8           0       -7.711303   -0.763187   -0.617122
     64          6           0       -5.910363    1.079530   -2.302829
     65          6           0       -4.956394   -0.081903   -2.537598
     66          7           0       -5.265287   -0.939850   -3.514845
     67          8           0       -3.999374   -0.242760   -1.777310
     68          1           0       -4.927820    2.558266   -0.742301
     69          1           0       -7.549883    1.800435   -0.975286
     70          1           0       -5.401930    1.973518   -2.662663
     71          1           0       -6.714731    0.921031   -3.016111
     72          1           0       -6.182113   -0.847041   -3.938304
     73          1           0       -4.577217   -1.663931   -3.682374
     74          7           0       -6.044007   -0.287185    0.833686
     75          6           0       -6.218897   -1.455229    1.682031
     76          6           0       -5.217301   -2.585840    1.546668
     77          8           0       -5.413905   -3.673095    2.082600
     78          1           0       -5.289898    0.316669    1.115075
     79          1           0       -7.247967   -1.792758    1.592652
     80          1           0       -6.153639   -1.084942    2.700868
     81          7           0       -4.129554   -2.321420    0.814760
     82          6           0       -3.105304   -3.312748    0.564999
     83          6           0       -1.740479   -2.627730    0.554773
     84          8           0       -1.652132   -1.422944    0.317951
     85          6           0       -3.268556   -4.128921   -0.716293
     86          6           0       -4.590671   -4.817676   -0.908457
     87          6           0       -4.819415   -6.194880   -0.938208
     88          6           0       -5.739236   -4.032056   -1.067512
     89          6           0       -6.105533   -6.739501   -0.987092
     90          6           0       -7.045935   -4.522529   -1.145455
     91          6           0       -7.243482   -5.926065   -1.180983
     92          8           0       -8.463683   -6.506586   -1.281502
     93          1           0       -4.009066   -1.421057    0.356143
     94          1           0       -3.172560   -3.969468    1.429577
     95          1           0       -2.469589   -4.867515   -0.755404
     96          1           0       -3.070273   -3.414366   -1.517726
     97          1           0       -4.004999   -6.917106   -0.899259
     98          1           0       -5.614302   -2.958087   -1.116323
     99          1           0       -6.243320   -7.797929   -1.182399
    100          1           0       -7.867936   -3.831748   -1.203212
    101          1           0       -9.120358   -5.822957   -1.452467
    102          7           0       -0.724064   -3.441918    0.857425
    103          6           0        0.657852   -3.009725    0.880180
    104          6           0        1.543398   -3.888570    0.009123
    105          8           0        1.324050   -5.085336   -0.203805
    106          6           0        1.131470   -2.867753    2.323415
    107          6           0        0.209214   -2.377159    3.433038
    108          6           0        2.378251   -1.984811    2.418028
    109          6           0        0.329747   -3.135396    4.753170
    110          1           0       -0.880723   -4.406440    1.118874
    111          1           0        0.640081   -2.029792    0.402775
    112          1           0        1.434401   -3.891218    2.583130
    113          1           0       -0.844265   -2.370466    3.166135
    114          1           0        0.485857   -1.344454    3.647252
    115          1           0        2.069172   -1.000095    2.076700
    116          1           0        2.731551   -1.920434    3.444008
    117          1           0        3.244548   -2.427885    1.932113
    118          1           0        1.285896   -3.647559    4.825066
    119          1           0        0.117439   -2.533321    5.639979
    120          1           0       -0.448403   -3.893704    4.734396
    121          7           0        2.674149   -3.342981   -0.439246
    122          6           0        3.774737   -3.923692   -1.161730
    123          6           0        5.131990   -3.765657   -0.489876
    124          8           0        5.245936   -3.029988    0.493947
    125          6           0        3.835364   -3.169302   -2.490006
    126          8           0        4.379443   -1.877645   -2.306159
    127          1           0        2.810516   -2.368205   -0.199214
    128          1           0        3.682386   -5.008823   -1.266912
    129          1           0        2.839764   -3.103458   -2.921685
    130          1           0        4.466848   -3.735602   -3.180319
    131          1           0        4.133633   -1.360647   -3.082040
    132          7           0        6.225674   -4.277957   -1.042147
    133          6           0        7.600659   -4.093604   -0.602226
    134          6           0        7.994016   -2.641493   -0.838542
    135          8           0        8.711610   -2.096033   -0.003478
    136          6           0        8.526421   -5.053047   -1.338796
    137          1           0        6.160428   -4.817607   -1.894802
    138          1           0        7.797736   -4.452719    0.402561
    139          1           0        8.643613   -4.866270   -2.405511
    140          1           0        9.485993   -4.830718   -0.874586
    141          1           0        8.282037   -6.103699   -1.158501
    142          7           0        7.664572   -1.879695   -1.883641
    143          6           0        7.950862   -0.452752   -1.960259
    144          6           0        7.253777    0.421805   -0.934723
    145          8           0        7.881891    1.364641   -0.472736
    146          6           0        7.795730    0.007158   -3.405706
    147          1           0        7.050431   -2.369176   -2.519046
    148          1           0        9.024592   -0.444598   -1.790153
    149          1           0        8.403072   -0.668646   -4.004225
    150          1           0        6.752777   -0.082746   -3.712083
    151          1           0        8.198624    0.993087   -3.664009
    152          7           0        6.007805    0.082006   -0.592536
    153          6           0        5.173825    0.813460    0.328687
    154          6           0        5.729363    0.592467    1.739587
    155          8           0        5.836309    1.519901    2.538541
    156          6           0        3.696901    0.455016    0.183726
    157          6           0        3.165907    0.931887   -1.170393
    158          6           0        1.691453    0.584448   -1.265627
    159          8           0        1.219530   -0.175367   -2.133826
    160          8           0        0.878580    1.178639   -0.522205
    161          1           0        5.687688   -0.842428   -0.842629
    162          1           0        5.163320    1.896458    0.234330
    163          1           0        3.128246    0.933114    0.974899
    164          1           0        3.680728   -0.635059    0.252821
    165          1           0        3.728889    0.526389   -2.011537
    166          1           0        3.265373    2.015519   -1.262308
    167          7           0        6.078867   -0.656330    2.048867
    168          6           0        6.925294   -0.937524    3.193197
    169          1           0        7.919926   -1.219654    2.848491
    170          1           0        6.997652   -0.048878    3.819454
    171          1           0        6.496427   -1.756180    3.770909
    172          1           0        5.830438   -1.408040    1.433224
    173         20           0       -1.377524    0.448159   -1.517441
    174          8           0       -1.372769   -1.872771   -2.562554
    175          1           0       -0.899813   -2.687971   -2.437810
    176          1           0       -2.145453   -2.115615   -3.083789
 ---------------------------------------------------------------------

 SCF Done:  E(RB3LYP) =  -5333.54120720     A.U. after   18 cycles

 The electronic state is 1-A.
 Alpha  occ. eigenvalues -- -145.37844 -19.20268 -19.20101 -19.15421 -19.15141
 Alpha  occ. eigenvalues --  -19.13386 -19.12381 -19.12331 -19.11333 -19.10696
 Alpha  occ. eigenvalues --  -19.08621 -19.08431 -19.06947 -19.06750 -19.06657
 Alpha  occ. eigenvalues --  -19.05879 -19.05727 -19.05522 -19.04470 -19.04160
 Alpha  occ. eigenvalues --  -19.03106 -19.02839 -19.01459 -18.99205 -15.43593
 Alpha  occ. eigenvalues --  -14.58227 -14.41391 -14.38685 -14.38650 -14.38298
 Alpha  occ. eigenvalues --  -14.37865 -14.36397 -14.33062 -14.32976 -14.32380
 Alpha  occ. eigenvalues --  -14.30996 -14.30347 -14.30274 -14.29908 -14.29558
 Alpha  occ. eigenvalues --  -12.57213 -12.57173 -12.57144 -10.34167 -10.34022
 Alpha  occ. eigenvalues --  -10.31329 -10.31221 -10.30848 -10.30750 -10.29449
 Alpha  occ. eigenvalues --  -10.29362 -10.28829 -10.28283 -10.27706 -10.26097
 Alpha  occ. eigenvalues --  -10.25932 -10.25819 -10.25567 -10.25512 -10.25183
 Alpha  occ. eigenvalues --  -10.24666 -10.24244 -10.24192 -10.23728 -10.23591
 Alpha  occ. eigenvalues --  -10.23559 -10.23164 -10.22948 -10.22941 -10.22895
 Alpha  occ. eigenvalues --  -10.22329 -10.21503 -10.21133 -10.20525 -10.20194
 Alpha  occ. eigenvalues --  -10.20151 -10.20081 -10.20023 -10.19785 -10.19755
 Alpha  occ. eigenvalues --  -10.19735 -10.19486 -10.18767 -10.18639 -10.18186
 Alpha  occ. eigenvalues --  -10.18101 -10.18028 -10.17983 -10.17728 -10.17685
 Alpha  occ. eigenvalues --  -10.17406 -10.17232 -10.17211 -10.17161 -10.17053
 Alpha  occ. eigenvalues --  -10.15781 -10.12246  -1.80383  -1.13592  -1.08995
 Alpha  occ. eigenvalues --   -1.08205  -1.08022  -1.07768  -1.07616  -1.06000
 Alpha  occ. eigenvalues --   -1.05849  -1.05713  -1.05069  -1.04630  -1.04149
 Alpha  occ. eigenvalues --   -1.03857  -1.03608  -1.00174  -0.99823  -0.99747
 Alpha  occ. eigenvalues --   -0.99149  -0.98544  -0.98348  -0.98057  -0.97857
 Alpha  occ. eigenvalues --   -0.97446  -0.96638  -0.95608  -0.95234  -0.94933
 Alpha  occ. eigenvalues --   -0.94788  -0.93350  -0.92850  -0.92499  -0.90338
 Alpha  occ. eigenvalues --   -0.89590  -0.88888  -0.88758  -0.88445  -0.88228
 Alpha  occ. eigenvalues --   -0.87707  -0.87540  -0.86615  -0.85840  -0.84429
 Alpha  occ. eigenvalues --   -0.84355  -0.83527  -0.82705  -0.81187  -0.80535
 Alpha  occ. eigenvalues --   -0.80422  -0.79591  -0.78530  -0.76091  -0.75975
 Alpha  occ. eigenvalues --   -0.75554  -0.74713  -0.73360  -0.73065  -0.72744
 Alpha  occ. eigenvalues --   -0.72426  -0.72279  -0.71350  -0.71222  -0.70990
 Alpha  occ. eigenvalues --   -0.70543  -0.69885  -0.69368  -0.68401  -0.68122
 Alpha  occ. eigenvalues --   -0.67450  -0.66328  -0.65998  -0.65537  -0.64540
 Alpha  occ. eigenvalues --   -0.63492  -0.62969  -0.62752  -0.62550  -0.62116
 Alpha  occ. eigenvalues --   -0.61902  -0.61534  -0.61367  -0.60597  -0.60571
 Alpha  occ. eigenvalues --   -0.60305  -0.59835  -0.59665  -0.59520  -0.58568
 Alpha  occ. eigenvalues --   -0.57978  -0.57736  -0.57457  -0.57359  -0.57135
 Alpha  occ. eigenvalues --   -0.57055  -0.56664  -0.56585  -0.55580  -0.55355
 Alpha  occ. eigenvalues --   -0.54869  -0.54697  -0.54360  -0.54207  -0.53563
 Alpha  occ. eigenvalues --   -0.53332  -0.53139  -0.52915  -0.52268  -0.52115
 Alpha  occ. eigenvalues --   -0.51742  -0.51500  -0.50970  -0.50908  -0.50422
 Alpha  occ. eigenvalues --   -0.49910  -0.49779  -0.49600  -0.49457  -0.49196
 Alpha  occ. eigenvalues --   -0.49056  -0.48765  -0.48074  -0.48041  -0.47864
 Alpha  occ. eigenvalues --   -0.47405  -0.47312  -0.47193  -0.47053  -0.46833
 Alpha  occ. eigenvalues --   -0.46714  -0.46474  -0.46360  -0.46172  -0.45916
 Alpha  occ. eigenvalues --   -0.45684  -0.45411  -0.45239  -0.44782  -0.44728
 Alpha  occ. eigenvalues --   -0.44725  -0.44296  -0.44124  -0.44000  -0.43922
 Alpha  occ. eigenvalues --   -0.43900  -0.43680  -0.43547  -0.43437  -0.43213
 Alpha  occ. eigenvalues --   -0.42949  -0.42912  -0.42566  -0.42416  -0.42303
 Alpha  occ. eigenvalues --   -0.42227  -0.42123  -0.41991  -0.41931  -0.41742
 Alpha  occ. eigenvalues --   -0.41567  -0.41466  -0.41182  -0.41080  -0.40810
 Alpha  occ. eigenvalues --   -0.40658  -0.40564  -0.40427  -0.40375  -0.40336
 Alpha  occ. eigenvalues --   -0.40213  -0.40051  -0.39896  -0.39686  -0.39612
 Alpha  occ. eigenvalues --   -0.39140  -0.38993  -0.38929  -0.38903  -0.38669
 Alpha  occ. eigenvalues --   -0.38614  -0.38494  -0.38305  -0.38132  -0.38029
 Alpha  occ. eigenvalues --   -0.37804  -0.37731  -0.37657  -0.37509  -0.37264
 Alpha  occ. eigenvalues --   -0.37135  -0.37040  -0.36982  -0.36681  -0.36500
 Alpha  occ. eigenvalues --   -0.36416  -0.36224  -0.36084  -0.35918  -0.35689
 Alpha  occ. eigenvalues --   -0.35504  -0.35466  -0.35337  -0.35135  -0.34626
 Alpha  occ. eigenvalues --   -0.34539  -0.34499  -0.34263  -0.34152  -0.34018
 Alpha  occ. eigenvalues --   -0.33771  -0.33594  -0.33270  -0.32933  -0.32771
 Alpha  occ. eigenvalues --   -0.32694  -0.32629  -0.32439  -0.32265  -0.31826
 Alpha  occ. eigenvalues --   -0.31600  -0.31412  -0.30810  -0.30791  -0.30334
 Alpha  occ. eigenvalues --   -0.30063  -0.29679  -0.29591  -0.29020  -0.28779
 Alpha  occ. eigenvalues --   -0.28593  -0.28244  -0.27915  -0.27622  -0.27515
 Alpha  occ. eigenvalues --   -0.26934  -0.26211  -0.25951  -0.24726  -0.24480
 Alpha  occ. eigenvalues --   -0.24025  -0.23976  -0.23918  -0.23749  -0.23121
 Alpha  occ. eigenvalues --   -0.22970  -0.22775  -0.22621  -0.22226  -0.22191
 Alpha  occ. eigenvalues --   -0.22068  -0.21738  -0.21171  -0.21001  -0.20714
 Alpha  occ. eigenvalues --   -0.20485  -0.19743  -0.19681  -0.18851  -0.18479
 Alpha  occ. eigenvalues --   -0.18329  -0.17840  -0.15174
 Alpha virt. eigenvalues --   -0.09997  -0.05020  -0.04040  -0.03961  -0.03288
 Alpha virt. eigenvalues --   -0.02324  -0.01724  -0.01302  -0.01102  -0.00761
 Alpha virt. eigenvalues --   -0.00233  -0.00040   0.00322   0.00843   0.01584

 Mulliken charges:
               1
     1  C    0.058829
     2  C    0.038155
     3  O   -0.294145
     4  H    0.032026
     5  H    0.034441
     6  H    0.010644
     7  N   -0.138147
     8  C    0.133196
     9  C    0.056097
    10  O   -0.287755
    11  C    0.033310
    12  C    0.159031
    13  O   -0.464438
    14  O   -0.386532
    15  H    0.114359
    16  H   -0.005326
    17  H    0.012890
    18  H    0.011719
    19  N   -0.111438
    20  C    0.151017
    21  C    0.072461
    22  O   -0.320243
    23  C   -0.018181
    24  C    0.073258
    25  C   -0.154945
    26  C    0.075836
    27  N    0.088525
    28  H    0.143092
    29  H    0.001994
    30  H    0.022905
    31  H    0.023315
    32  H    0.013892
    33  H    0.025179
    34  H    0.021842
    35  H    0.023983
    36  H    0.074996
    37  H    0.091184
    38  H    0.182369
    39  H    0.181907
    40  H    0.197950
    41  N   -0.135890
    42  C    0.169445
    43  C    0.047804
    44  O   -0.278084
    45  C    0.045220
    46  C    0.059910
    47  O   -0.459806
    48  O   -0.369385
    49  H    0.178481
    50  H    0.012997
    51  H   -0.026708
    52  H    0.021057
    53  N   -0.178150
    54  C    0.255148
    55  C    0.022997
    56  O   -0.320691
    57  H    0.132805
    58  H    0.030067
    59  H    0.031093
    60  N   -0.144598
    61  C    0.158722
    62  C    0.055426
    63  O   -0.312619
    64  C    0.067779
    65  C    0.059886
    66  N   -0.026298
    67  O   -0.350747
    68  H    0.136584
    69  H    0.031264
    70  H    0.076064
    71  H   -0.019442
    72  H    0.151797
    73  H    0.116955
    74  N   -0.148994
    75  C    0.228268
    76  C    0.040768
    77  O   -0.287210
    78  H    0.157526
    79  H    0.029885
    80  H    0.028226
    81  N   -0.163675
    82  C    0.089844
    83  C    0.117602
    84  O   -0.339466
    85  C    0.199154
    86  C    0.023945
    87  C   -0.040878
    88  C   -0.014393
    89  C   -0.001736
    90  C   -0.031751
    91  C    0.127914
    92  O   -0.185839
    93  H    0.156930
    94  H    0.004208
    95  H   -0.028562
    96  H   -0.093290
    97  H   -0.042330
    98  H   -0.031596
    99  H   -0.021656
   100  H   -0.027857
   101  H    0.177807
   102  N   -0.126024
   103  C    0.128022
   104  C    0.055377
   105  O   -0.285269
   106  C   -0.086396
   107  C    0.020340
   108  C    0.006036
   109  C    0.021280
   110  H    0.139003
   111  H    0.014180
   112  H   -0.024447
   113  H    0.009716
   114  H    0.023094
   115  H    0.048493
   116  H    0.010902
   117  H    0.011241
   118  H    0.008759
   119  H    0.014097
   120  H    0.002974
   121  N   -0.118195
   122  C    0.101663
   123  C    0.102959
   124  O   -0.279710
   125  C    0.213016
   126  O   -0.311463
   127  H    0.156718
   128  H    0.042331
   129  H    0.031249
   130  H   -0.019003
   131  H    0.202611
   132  N   -0.123996
   133  C    0.109912
   134  C    0.046651
   135  O   -0.269556
   136  C    0.013501
   137  H    0.117283
   138  H    0.030031
   139  H    0.009017
   140  H    0.048399
   141  H    0.042295
   142  N   -0.148159
   143  C    0.138133
   144  C    0.078451
   145  O   -0.269806
   146  C    0.033999
   147  H    0.088359
   148  H    0.018455
   149  H    0.016456
   150  H   -0.008041
   151  H    0.018459
   152  N   -0.159526
   153  C    0.110459
   154  C    0.075624
   155  O   -0.263754
   156  C   -0.031203
   157  C    0.153218
   158  C    0.110025
   159  O   -0.414426
   160  O   -0.432620
   161  H    0.145830
   162  H   -0.032200
   163  H    0.083161
   164  H   -0.026581
   165  H   -0.066494
   166  H   -0.045104
   167  N   -0.175125
   168  C    0.129804
   169  H    0.024725
   170  H    0.040573
   171  H    0.004820
   172  H    0.120100
   173  Ca   1.304820
   174  O   -0.276688
   175  H    0.191423
   176  H    0.184559
 Sum of Mulliken charges =  -0.00000

 Dipole moment (field-independent basis, Debye):
    X=             34.8615    Y=             -4.5435    Z=            -19.0266  Tot=             39.9748
 Quadrupole moment (field-independent basis, Debye-Ang):
   XX=           -557.1739   YY=           -507.4374   ZZ=           -516.0961
   XY=            107.0752   XZ=            -87.3365   YZ=            -15.8968

 ESP charges:
               1
     1  C   -0.440247
     2  C    0.889105
     3  O   -0.660789
     4  H    0.126791
     5  H    0.110162
     6  H    0.093756
     7  N   -0.838445
     8  C    0.417261
     9  C    0.440525
    10  O   -0.563337
    11  C   -0.437909
    12  C    1.114144
    13  O   -1.054203
    14  O   -0.775953
    15  H    0.379860
    16  H   -0.040512
    17  H    0.103557
    18  H    0.077528
    19  N    0.121176
    20  C   -0.687739
    21  C    0.897864
    22  O   -0.614496
    23  C    0.455503
    24  C   -0.553992
    25  C    0.442509
    26  C   -0.217026
    27  N   -0.193612
    28  H   -0.085635
    29  H    0.195374
    30  H   -0.001325
    31  H    0.022417
    32  H    0.131513
    33  H    0.140491
    34  H   -0.061862
    35  H   -0.046148
    36  H    0.119205
    37  H    0.134810
    38  H    0.247126
    39  H    0.292603
    40  H    0.315050
    41  N   -0.725248
    42  C   -0.003825
    43  C    0.507185
    44  O   -0.547640
    45  C   -0.090832
    46  C    0.752059
    47  O   -0.852456
    48  O   -0.710596
    49  H    0.512357
    50  H    0.116074
    51  H    0.011616
    52  H    0.043394
    53  N   -0.214615
    54  C   -0.378976
    55  C    0.647031
    56  O   -0.602437
    57  H    0.214636
    58  H    0.172110
    59  H    0.172815
    60  N   -0.397506
    61  C    0.054248
    62  C    0.367240
    63  O   -0.545653
    64  C   -0.381226
    65  C    0.665541
    66  N   -0.807369
    67  O   -0.552792
    68  H    0.292907
    69  H    0.127626
    70  H    0.197351
    71  H    0.085119
    72  H    0.406199
    73  H    0.383946
    74  N    0.048030
    75  C   -0.428860
    76  C    0.728966
    77  O   -0.560171
    78  H    0.221803
    79  H    0.172379
    80  H    0.130717
    81  N   -0.666936
    82  C    0.628323
    83  C    0.418143
    84  O   -0.591863
    85  C   -0.181319
    86  C    0.300297
    87  C   -0.433746
    88  C   -0.443768
    89  C    0.038299
    90  C   -0.061555
    91  C    0.167653
    92  O   -0.505778
    93  H    0.252615
    94  H   -0.063678
    95  H    0.028276
    96  H   -0.041354
    97  H    0.162952
    98  H    0.216419
    99  H    0.082878
   100  H    0.101912
   101  H    0.408152
   102  N   -0.667758
   103  C    0.057888
   104  C    0.607953
   105  O   -0.555686
   106  C    0.200198
   107  C    0.176261
   108  C   -0.360505
   109  C   -0.393575
   110  H    0.331729
   111  H    0.148923
   112  H   -0.017758
   113  H    0.019274
   114  H    0.030529
   115  H    0.034722
   116  H    0.114423
   117  H    0.074135
   118  H    0.081782
   119  H    0.108119
   120  H    0.078556
   121  N   -0.482242
   122  C    0.284658
   123  C    0.472243
   124  O   -0.445576
   125  C   -0.254903
   126  O   -0.240002
   127  H    0.237883
   128  H    0.046351
   129  H    0.133772
   130  H    0.065096
   131  H    0.366363
   132  N   -0.476972
   133  C    0.205385
   134  C    0.388085
   135  O   -0.509056
   136  C   -0.249765
   137  H    0.279748
   138  H    0.089719
   139  H    0.056377
   140  H    0.098044
   141  H    0.088626
   142  N   -0.263816
   143  C   -0.056043
   144  C    0.431521
   145  O   -0.525969
   146  C   -0.316187
   147  H    0.217873
   148  H    0.156869
   149  H    0.101167
   150  H    0.063584
   151  H    0.115361
   152  N    0.346186
   153  C   -0.750458
   154  C    0.752230
   155  O   -0.572774
   156  C    0.073406
   157  C    0.280714
   158  C    0.565634
   159  O   -0.757552
   160  O   -0.576831
   161  H   -0.322986
   162  H    0.180834
   163  H    0.218596
   164  H   -0.127833
   165  H   -0.066969
   166  H   -0.187456
   167  N   -0.236671
   168  C   -0.228981
   169  H    0.089548
   170  H    0.119168
   171  H    0.074580
   172  H    0.272755
   173  Ca   1.641029
   174  O   -0.800274
   175  H    0.439771
   176  H    0.384766
 Sum of ESP charges =   0.00000

 Normal termination of Gaussian 16 at Sat Sep 14 23:49:32 2019.
