 Gaussian 16, Revision A.03,
 Gaussian 16:  ES64L-G16RevA.03 25-Dec-2016

 ----------------------------------------------------------------------
 #b3lyp/svp scf=(tight,noincore) Test #IOP(5/87=12) Density=Current Pop
 =(MK,readradii) iop(6/33=2) iop(6/42=6)
 ----------------------------------------------------------------------

 -----------------
 CaMKII_loop3_58.0
 -----------------
 Symbolic Z-matrix:
 Charge =  0 Multiplicity = 1

                         Standard orientation:
 ---------------------------------------------------------------------
 Center     Atomic      Atomic             Coordinates (Angstroms)
 Number     Number       Type             X           Y           Z
 ---------------------------------------------------------------------
      1          6           0        2.206675    1.806044    5.941573
      2          6           0        1.838416    1.498918    4.495040
      3          8           0        2.633735    1.599533    3.566899
      4          1           0        2.966808    1.102027    6.279855
      5          1           0        2.597322    2.821751    6.010296
      6          1           0        1.321271    1.713200    6.570216
      7          7           0        0.544196    1.402555    4.189899
      8          6           0       -0.107464    1.400990    2.903417
      9          6           0       -0.279757    2.815540    2.382588
     10          8           0       -0.901645    3.664764    3.024673
     11          6           0       -1.455640    0.699538    3.076875
     12          6           0       -2.338654    0.932890    1.851954
     13          8           0       -1.775382    0.872713    0.744929
     14          8           0       -3.578730    1.038744    1.985763
     15          1           0       -0.078355    1.702570    4.924012
     16          1           0        0.408076    0.833886    2.131724
     17          1           0       -1.951448    1.172929    3.926213
     18          1           0       -1.324130   -0.363440    3.285400
     19          7           0        0.306058    3.131062    1.226143
     20          6           0        0.650443    4.494709    0.875764
     21          6           0       -0.517651    5.215403    0.218757
     22          8           0       -0.647118    6.423939    0.409492
     23          6           0        1.912002    4.588965    0.024950
     24          6           0        2.625033    5.907954    0.312620
     25          6           0        3.996848    6.047268   -0.331521
     26          6           0        3.986938    5.886324   -1.854970
     27          7           0        5.202031    6.428438   -2.472839
     28          1           0        0.445352    2.395978    0.545665
     29          1           0        0.997680    5.041186    1.758764
     30          1           0        1.686357    4.460940   -1.033016
     31          1           0        2.558397    3.769065    0.339338
     32          1           0        2.828665    5.973391    1.380493
     33          1           0        1.947509    6.687677   -0.032044
     34          1           0        4.723279    5.357898    0.107189
     35          1           0        4.286225    7.059034   -0.049402
     36          1           0        3.128209    6.486556   -2.161574
     37          1           0        3.895364    4.822019   -2.039550
     38          1           0        5.003513    6.570738   -3.448411
     39          1           0        5.585639    7.278276   -2.095851
     40          1           0        5.968847    5.761116   -2.481436
     41          7           0       -1.406519    4.515520   -0.485073
     42          6           0       -2.444476    5.140674   -1.264704
     43          6           0       -3.820156    4.852652   -0.670272
     44          8           0       -4.768222    5.297005   -1.312316
     45          6           0       -2.310845    4.685854   -2.720823
     46          6           0       -2.173329    3.195495   -2.988438
     47          8           0       -2.333491    2.358680   -2.079929
     48          8           0       -2.039664    2.902817   -4.197352
     49          1           0       -1.343659    3.507068   -0.559061
     50          1           0       -2.446760    6.230610   -1.298376
     51          1           0       -1.503736    5.229189   -3.218079
     52          1           0       -3.141297    5.061520   -3.313381
     53          7           0       -3.991519    4.194183    0.482096
     54          6           0       -5.249866    4.031397    1.169529
     55          6           0       -6.246291    3.101793    0.491390
     56          8           0       -7.434734    3.410469    0.537467
     57          1           0       -3.135719    3.784198    0.823299
     58          1           0       -5.785942    4.972491    1.310819
     59          1           0       -5.111420    3.591773    2.162134
     60          7           0       -5.615460    2.131231   -0.170624
     61          6           0       -6.377945    1.142394   -0.905007
     62          6           0       -6.701456   -0.030582   -0.000094
     63          8           0       -7.729796   -0.658096   -0.243696
     64          6           0       -5.728812    0.670109   -2.204112
     65          6           0       -5.017071   -0.673377   -2.074621
     66          7           0       -5.696799   -1.818680   -2.230671
     67          8           0       -3.841572   -0.698064   -1.717980
     68          1           0       -4.647216    1.932472    0.038897
     69          1           0       -7.330379    1.586382   -1.175459
     70          1           0       -5.026153    1.456189   -2.490028
     71          1           0       -6.513639    0.564734   -2.948386
     72          1           0       -6.696862   -1.875157   -2.134836
     73          1           0       -5.177290   -2.681246   -2.175088
     74          7           0       -5.948317   -0.259985    1.082290
     75          6           0       -6.185505   -1.376278    1.971858
     76          6           0       -5.108577   -2.436653    2.066899
     77          8           0       -5.284996   -3.407372    2.799893
     78          1           0       -5.139458    0.290860    1.332925
     79          1           0       -7.131466   -1.888972    1.768628
     80          1           0       -6.259223   -1.006046    2.996404
     81          7           0       -4.009755   -2.324149    1.312955
     82          6           0       -2.942278   -3.295492    1.273147
     83          6           0       -1.555137   -2.797444    0.880351
     84          8           0       -1.343271   -1.980981   -0.001466
     85          6           0       -3.246496   -4.463857    0.342139
     86          6           0       -4.548051   -4.713129   -0.380093
     87          6           0       -5.761733   -5.046121    0.229655
     88          6           0       -4.472305   -4.751646   -1.777547
     89          6           0       -6.846728   -5.327788   -0.599591
     90          6           0       -5.512137   -5.120046   -2.640525
     91          6           0       -6.731335   -5.438474   -2.001495
     92          8           0       -7.716553   -5.982637   -2.763356
     93          1           0       -3.980680   -1.447767    0.797193
     94          1           0       -2.926506   -3.746861    2.262145
     95          1           0       -3.038456   -5.398326    0.856325
     96          1           0       -2.529356   -4.395975   -0.481999
     97          1           0       -5.851656   -4.998131    1.302134
     98          1           0       -3.512743   -4.537521   -2.229200
     99          1           0       -7.782270   -5.744056   -0.251193
    100          1           0       -5.347715   -5.236251   -3.695780
    101          1           0       -7.500139   -5.749332   -3.675295
    102          7           0       -0.632095   -3.222931    1.757593
    103          6           0        0.716668   -2.696019    1.633487
    104          6           0        1.456290   -3.574811    0.632146
    105          8           0        1.357112   -4.784258    0.846158
    106          6           0        1.540739   -2.823649    2.910835
    107          6           0        0.846107   -2.513652    4.234273
    108          6           0        2.701194   -1.839116    2.766127
    109          6           0        1.668167   -2.940339    5.444832
    110          1           0       -0.826854   -3.855978    2.513847
    111          1           0        0.675647   -1.656411    1.306785
    112          1           0        1.897571   -3.839975    3.066886
    113          1           0       -0.162000   -2.903260    4.357673
    114          1           0        0.605249   -1.453909    4.317522
    115          1           0        3.391739   -1.766612    3.608024
    116          1           0        3.520372   -2.158232    2.116117
    117          1           0        2.346805   -0.832037    2.557080
    118          1           0        1.294385   -2.424296    6.330093
    119          1           0        1.408331   -3.988160    5.606253
    120          1           0        2.756784   -2.865679    5.438594
    121          7           0        2.109155   -2.955745   -0.355288
    122          6           0        3.009712   -3.575134   -1.298238
    123          6           0        4.463659   -3.415566   -0.864675
    124          8           0        4.709294   -2.542250   -0.030181
    125          6           0        2.692564   -3.113119   -2.718118
    126          8           0        3.119591   -1.793737   -2.962615
    127          1           0        2.008371   -1.945931   -0.326685
    128          1           0        2.831370   -4.652291   -1.373245
    129          1           0        1.629528   -3.295181   -2.899525
    130          1           0        3.298585   -3.719922   -3.388139
    131          1           0        2.394218   -1.244419   -2.648474
    132          7           0        5.347537   -4.294858   -1.336592
    133          6           0        6.693026   -4.226184   -0.799709
    134          6           0        7.506652   -2.966679   -1.078204
    135          8           0        8.396724   -2.701879   -0.273870
    136          6           0        7.456995   -5.457563   -1.259118
    137          1           0        5.045261   -5.008485   -1.984562
    138          1           0        6.728453   -4.248777    0.287091
    139          1           0        8.083675   -5.738625   -0.420741
    140          1           0        6.783405   -6.314186   -1.233162
    141          1           0        7.869852   -5.291120   -2.257891
    142          7           0        7.178031   -2.183561   -2.099887
    143          6           0        7.708678   -0.875633   -2.448938
    144          6           0        7.261933    0.137517   -1.421687
    145          8           0        8.007947    1.030693   -1.035553
    146          6           0        7.271532   -0.507692   -3.861710
    147          1           0        6.585701   -2.613302   -2.790009
    148          1           0        8.788776   -1.004267   -2.335183
    149          1           0        6.189993   -0.502176   -3.969144
    150          1           0        7.747513    0.465559   -4.034119
    151          1           0        7.734273   -1.295348   -4.448284
    152          7           0        5.989581    0.083131   -0.999118
    153          6           0        5.265564    0.878589   -0.035352
    154          6           0        5.698239    0.571318    1.387384
    155          8           0        6.043450    1.484857    2.142086
    156          6           0        3.763738    0.642117   -0.142581
    157          6           0        3.109101    1.267283   -1.372507
    158          6           0        1.647378    0.863646   -1.467589
    159          8           0        1.352231   -0.341278   -1.589843
    160          8           0        0.767441    1.752295   -1.382061
    161          1           0        5.384830   -0.628937   -1.400906
    162          1           0        5.533868    1.934906   -0.124273
    163          1           0        3.192709    0.806523    0.777960
    164          1           0        3.708079   -0.406967   -0.433831
    165          1           0        3.645805    0.780752   -2.183702
    166          1           0        3.137005    2.357753   -1.325628
    167          7           0        5.939139   -0.693093    1.747431
    168          6           0        6.546657   -1.087640    2.997213
    169          1           0        7.406206   -1.727910    2.796268
    170          1           0        6.873997   -0.199608    3.538919
    171          1           0        5.820078   -1.633885    3.598509
    172          1           0        5.521805   -1.391985    1.138758
    173         20           0       -1.274675    0.071114   -1.686677
    174          8           0       -0.204791    0.528424   -4.021118
    175          1           0       -0.720541    1.285092   -4.303353
    176          1           0        0.352996    0.329311   -4.766388
 ---------------------------------------------------------------------

 SCF Done:  E(RB3LYP) =  -5333.58922651     A.U. after   15 cycles

 The electronic state is 1-A.
 Alpha  occ. eigenvalues -- -145.38249 -19.16593 -19.15043 -19.14341 -19.14208
 Alpha  occ. eigenvalues --  -19.13930 -19.11551 -19.11341 -19.10982 -19.10038
 Alpha  occ. eigenvalues --  -19.09767 -19.09515 -19.07920 -19.07790 -19.07767
 Alpha  occ. eigenvalues --  -19.06883 -19.06563 -19.06137 -19.05996 -19.05585
 Alpha  occ. eigenvalues --  -19.05316 -19.05271 -19.04160 -19.03264 -15.44007
 Alpha  occ. eigenvalues --  -14.58568 -14.40422 -14.37638 -14.37612 -14.36510
 Alpha  occ. eigenvalues --  -14.35535 -14.34505 -14.34503 -14.34128 -14.32634
 Alpha  occ. eigenvalues --  -14.32615 -14.32026 -14.31774 -14.31240 -14.31026
 Alpha  occ. eigenvalues --  -12.57622 -12.57583 -12.57563 -10.34202 -10.32391
 Alpha  occ. eigenvalues --  -10.31487 -10.29920 -10.29549 -10.29271 -10.28642
 Alpha  occ. eigenvalues --  -10.28515 -10.27136 -10.26800 -10.26347 -10.26250
 Alpha  occ. eigenvalues --  -10.25997 -10.25894 -10.25593 -10.25524 -10.25323
 Alpha  occ. eigenvalues --  -10.25322 -10.25226 -10.25127 -10.24989 -10.23765
 Alpha  occ. eigenvalues --  -10.23621 -10.23498 -10.23475 -10.23140 -10.22949
 Alpha  occ. eigenvalues --  -10.22294 -10.22124 -10.21945 -10.21815 -10.21577
 Alpha  occ. eigenvalues --  -10.20610 -10.20566 -10.20252 -10.19622 -10.19610
 Alpha  occ. eigenvalues --  -10.19561 -10.19544 -10.19503 -10.19490 -10.19391
 Alpha  occ. eigenvalues --  -10.19362 -10.19174 -10.18852 -10.18844 -10.18696
 Alpha  occ. eigenvalues --  -10.18263 -10.18232 -10.17873 -10.17685 -10.16753
 Alpha  occ. eigenvalues --  -10.16625 -10.14657  -1.80810  -1.13858  -1.08538
 Alpha  occ. eigenvalues --   -1.08270  -1.08178  -1.07371  -1.06370  -1.05608
 Alpha  occ. eigenvalues --   -1.05456  -1.04273  -1.03664  -1.03125  -1.02596
 Alpha  occ. eigenvalues --   -1.02581  -1.01642  -1.01374  -1.01332  -1.00663
 Alpha  occ. eigenvalues --   -1.00195  -1.00055  -0.99610  -0.99153  -0.98940
 Alpha  occ. eigenvalues --   -0.98036  -0.97127  -0.97037  -0.95324  -0.94813
 Alpha  occ. eigenvalues --   -0.94495  -0.93433  -0.92197  -0.91436  -0.90815
 Alpha  occ. eigenvalues --   -0.90633  -0.90307  -0.89847  -0.89723  -0.89384
 Alpha  occ. eigenvalues --   -0.88737  -0.88486  -0.88179  -0.87919  -0.86650
 Alpha  occ. eigenvalues --   -0.85245  -0.82554  -0.81947  -0.81102  -0.80648
 Alpha  occ. eigenvalues --   -0.79368  -0.79140  -0.78079  -0.77394  -0.76780
 Alpha  occ. eigenvalues --   -0.75788  -0.75115  -0.74690  -0.73787  -0.73490
 Alpha  occ. eigenvalues --   -0.73376  -0.72298  -0.71994  -0.71694  -0.71106
 Alpha  occ. eigenvalues --   -0.69557  -0.69543  -0.69145  -0.68226  -0.67493
 Alpha  occ. eigenvalues --   -0.67318  -0.66431  -0.65616  -0.64884  -0.64548
 Alpha  occ. eigenvalues --   -0.63965  -0.63155  -0.63014  -0.62470  -0.62320
 Alpha  occ. eigenvalues --   -0.62292  -0.61634  -0.61377  -0.60633  -0.59872
 Alpha  occ. eigenvalues --   -0.59699  -0.59222  -0.58928  -0.58719  -0.58336
 Alpha  occ. eigenvalues --   -0.57844  -0.57293  -0.56647  -0.56579  -0.56419
 Alpha  occ. eigenvalues --   -0.56129  -0.55972  -0.55553  -0.55346  -0.55091
 Alpha  occ. eigenvalues --   -0.54783  -0.54687  -0.54437  -0.54040  -0.53733
 Alpha  occ. eigenvalues --   -0.53436  -0.53252  -0.53020  -0.52577  -0.52145
 Alpha  occ. eigenvalues --   -0.51902  -0.51539  -0.50588  -0.50270  -0.50207
 Alpha  occ. eigenvalues --   -0.49990  -0.49723  -0.49439  -0.49179  -0.48969
 Alpha  occ. eigenvalues --   -0.48845  -0.48606  -0.48397  -0.48326  -0.48191
 Alpha  occ. eigenvalues --   -0.48007  -0.47800  -0.47472  -0.47235  -0.47033
 Alpha  occ. eigenvalues --   -0.46680  -0.46661  -0.46257  -0.45974  -0.45645
 Alpha  occ. eigenvalues --   -0.45567  -0.45540  -0.45426  -0.45184  -0.45074
 Alpha  occ. eigenvalues --   -0.44918  -0.44711  -0.44568  -0.44478  -0.44359
 Alpha  occ. eigenvalues --   -0.43896  -0.43591  -0.43534  -0.43433  -0.43212
 Alpha  occ. eigenvalues --   -0.42917  -0.42836  -0.42703  -0.42496  -0.42459
 Alpha  occ. eigenvalues --   -0.42390  -0.42325  -0.42196  -0.42088  -0.41991
 Alpha  occ. eigenvalues --   -0.41766  -0.41723  -0.41649  -0.41322  -0.41257
 Alpha  occ. eigenvalues --   -0.41214  -0.41031  -0.40780  -0.40550  -0.40467
 Alpha  occ. eigenvalues --   -0.40313  -0.40089  -0.40070  -0.39925  -0.39800
 Alpha  occ. eigenvalues --   -0.39673  -0.39607  -0.39361  -0.39196  -0.39147
 Alpha  occ. eigenvalues --   -0.39112  -0.38961  -0.38921  -0.38636  -0.38449
 Alpha  occ. eigenvalues --   -0.38308  -0.38082  -0.38003  -0.37720  -0.37511
 Alpha  occ. eigenvalues --   -0.37324  -0.37251  -0.37007  -0.36823  -0.36788
 Alpha  occ. eigenvalues --   -0.36571  -0.36525  -0.36300  -0.36158  -0.36053
 Alpha  occ. eigenvalues --   -0.35908  -0.35802  -0.35630  -0.35533  -0.35355
 Alpha  occ. eigenvalues --   -0.35303  -0.34921  -0.34599  -0.34542  -0.34244
 Alpha  occ. eigenvalues --   -0.34100  -0.33783  -0.33699  -0.33470  -0.33296
 Alpha  occ. eigenvalues --   -0.32968  -0.32888  -0.32863  -0.32661  -0.32495
 Alpha  occ. eigenvalues --   -0.31805  -0.31571  -0.31121  -0.30960  -0.30462
 Alpha  occ. eigenvalues --   -0.29774  -0.29557  -0.29133  -0.28727  -0.28590
 Alpha  occ. eigenvalues --   -0.28355  -0.28289  -0.27013  -0.26733  -0.26715
 Alpha  occ. eigenvalues --   -0.26693  -0.26502  -0.26204  -0.26102  -0.25732
 Alpha  occ. eigenvalues --   -0.25592  -0.25210  -0.24976  -0.24957  -0.24845
 Alpha  occ. eigenvalues --   -0.24289  -0.23906  -0.23589  -0.23074  -0.22755
 Alpha  occ. eigenvalues --   -0.22701  -0.22606  -0.22561  -0.22538  -0.22441
 Alpha  occ. eigenvalues --   -0.22118  -0.21611  -0.21417  -0.21283  -0.20810
 Alpha  occ. eigenvalues --   -0.19593  -0.19555  -0.19401
 Alpha virt. eigenvalues --   -0.10362  -0.04771  -0.04190  -0.02747  -0.02220
 Alpha virt. eigenvalues --   -0.01548  -0.01026  -0.00749  -0.00306  -0.00109
 Alpha virt. eigenvalues --    0.00239   0.00800   0.01221   0.01344   0.01572

 Mulliken charges:
               1
     1  C    0.066858
     2  C    0.014884
     3  O   -0.287524
     4  H    0.037800
     5  H    0.051700
     6  H   -0.001445
     7  N   -0.112715
     8  C    0.127292
     9  C    0.052021
    10  O   -0.282924
    11  C    0.078441
    12  C    0.141599
    13  O   -0.455696
    14  O   -0.383159
    15  H    0.116895
    16  H   -0.015709
    17  H   -0.004254
    18  H    0.011540
    19  N   -0.150540
    20  C    0.157372
    21  C    0.063649
    22  O   -0.292708
    23  C   -0.015131
    24  C    0.008080
    25  C   -0.033495
    26  C   -0.001373
    27  N    0.095071
    28  H    0.157504
    29  H    0.000494
    30  H    0.010089
    31  H    0.029303
    32  H    0.029067
    33  H    0.030716
    34  H    0.048230
    35  H    0.013492
    36  H    0.079582
    37  H    0.102075
    38  H    0.186634
    39  H    0.183935
    40  H    0.194721
    41  N   -0.161995
    42  C    0.170506
    43  C    0.034205
    44  O   -0.295010
    45  C    0.058726
    46  C    0.155319
    47  O   -0.462549
    48  O   -0.401506
    49  H    0.147368
    50  H    0.018064
    51  H   -0.026695
    52  H    0.023037
    53  N   -0.133574
    54  C    0.219438
    55  C    0.033738
    56  O   -0.270185
    57  H    0.135151
    58  H    0.018291
    59  H    0.029147
    60  N   -0.150622
    61  C    0.110839
    62  C    0.019587
    63  O   -0.287554
    64  C    0.182124
    65  C    0.014723
    66  N   -0.046531
    67  O   -0.359479
    68  H    0.137914
    69  H    0.026002
    70  H    0.051144
    71  H    0.004005
    72  H    0.140947
    73  H    0.117969
    74  N   -0.173738
    75  C    0.241126
    76  C    0.004848
    77  O   -0.311546
    78  H    0.136667
    79  H    0.047450
    80  H    0.032626
    81  N   -0.127968
    82  C    0.149063
    83  C    0.167783
    84  O   -0.345106
    85  C    0.138872
    86  C   -0.048124
    87  C    0.024987
    88  C   -0.054221
    89  C    0.000461
    90  C   -0.068053
    91  C    0.132475
    92  O   -0.187135
    93  H    0.141191
    94  H   -0.011052
    95  H    0.012866
    96  H   -0.014839
    97  H    0.007445
    98  H   -0.032413
    99  H   -0.009753
   100  H   -0.041549
   101  H    0.175897
   102  N   -0.113249
   103  C    0.123049
   104  C    0.046128
   105  O   -0.291979
   106  C   -0.067526
   107  C    0.016966
   108  C    0.019254
   109  C    0.023856
   110  H    0.139748
   111  H    0.003056
   112  H   -0.005880
   113  H   -0.028269
   114  H   -0.005594
   115  H   -0.007587
   116  H   -0.000449
   117  H    0.040841
   118  H    0.003168
   119  H    0.001245
   120  H    0.018736
   121  N   -0.108978
   122  C    0.071801
   123  C    0.119168
   124  O   -0.284423
   125  C    0.265606
   126  O   -0.347297
   127  H    0.162397
   128  H    0.008098
   129  H    0.019312
   130  H   -0.033979
   131  H    0.172207
   132  N   -0.117305
   133  C    0.050062
   134  C    0.054388
   135  O   -0.259210
   136  C    0.071662
   137  H    0.130675
   138  H    0.033812
   139  H    0.036706
   140  H    0.006970
   141  H    0.024886
   142  N   -0.130385
   143  C    0.075307
   144  C    0.060775
   145  O   -0.264501
   146  C    0.050894
   147  H    0.100229
   148  H    0.022807
   149  H    0.031101
   150  H    0.032452
   151  H    0.023449
   152  N   -0.135761
   153  C    0.160547
   154  C    0.057746
   155  O   -0.285348
   156  C   -0.094335
   157  C    0.132832
   158  C    0.149388
   159  O   -0.464358
   160  O   -0.394583
   161  H    0.119280
   162  H   -0.032939
   163  H    0.064686
   164  H   -0.006095
   165  H   -0.019622
   166  H   -0.029945
   167  N   -0.176362
   168  C    0.136648
   169  H    0.021694
   170  H    0.039764
   171  H   -0.001021
   172  H    0.137274
   173  Ca   1.321929
   174  O   -0.324778
   175  H    0.162893
   176  H    0.173094
 Sum of Mulliken charges =  -0.00000

 Dipole moment (field-independent basis, Debye):
    X=             28.2584    Y=              0.3769    Z=            -16.3801  Tot=             32.6648
 Quadrupole moment (field-independent basis, Debye-Ang):
   XX=           -646.5747   YY=           -464.9970   ZZ=           -502.1985
   XY=            141.0763   XZ=            -71.3484   YZ=            -25.7678

 ESP charges:
               1
     1  C   -0.458614
     2  C    0.775086
     3  O   -0.602313
     4  H    0.126345
     5  H    0.150526
     6  H    0.096995
     7  N   -0.616010
     8  C   -0.013183
     9  C    0.736692
    10  O   -0.577194
    11  C   -0.231727
    12  C    0.738265
    13  O   -0.851871
    14  O   -0.646539
    15  H    0.326569
    16  H    0.153879
    17  H    0.070337
    18  H    0.056359
    19  N   -0.305732
    20  C   -0.310918
    21  C    0.608899
    22  O   -0.585055
    23  C    0.481563
    24  C   -0.300984
    25  C    0.151577
    26  C    0.038685
    27  N   -0.373612
    28  H    0.103389
    29  H    0.124748
    30  H   -0.117190
    31  H   -0.035846
    32  H    0.102417
    33  H    0.066631
    34  H   -0.025574
    35  H   -0.004560
    36  H    0.092770
    37  H    0.057595
    38  H    0.323491
    39  H    0.320353
    40  H    0.340421
    41  N   -0.361138
    42  C   -0.073488
    43  C    0.511119
    44  O   -0.536853
    45  C   -0.112342
    46  C    0.731537
    47  O   -0.785789
    48  O   -0.689702
    49  H    0.277597
    50  H    0.125486
    51  H    0.018814
    52  H    0.076899
    53  N   -0.305290
    54  C   -0.159622
    55  C    0.539366
    56  O   -0.539116
    57  H    0.247251
    58  H    0.110924
    59  H    0.094516
    60  N   -0.462826
    61  C    0.404625
    62  C    0.231915
    63  O   -0.516912
    64  C   -0.587616
    65  C    0.834392
    66  N   -0.832345
    67  O   -0.707750
    68  H    0.341512
    69  H    0.054843
    70  H    0.211292
    71  H    0.148082
    72  H    0.367797
    73  H    0.364920
    74  N   -0.091652
    75  C   -0.101405
    76  C    0.612993
    77  O   -0.588335
    78  H    0.125078
    79  H    0.100292
    80  H    0.075941
    81  N   -0.595062
    82  C    0.130938
    83  C    0.909296
    84  O   -0.722035
    85  C   -0.077379
    86  C    0.050818
    87  C   -0.100764
    88  C   -0.138982
    89  C   -0.289987
    90  C   -0.347304
    91  C    0.426964
    92  O   -0.537845
    93  H    0.380690
    94  H    0.076360
    95  H    0.050007
    96  H   -0.010952
    97  H    0.161638
    98  H    0.122354
    99  H    0.163491
   100  H    0.151349
   101  H    0.393375
   102  N   -1.030666
   103  C    0.815130
   104  C    0.404827
   105  O   -0.554337
   106  C   -0.404864
   107  C    0.363566
   108  C    0.018731
   109  C   -0.356502
   110  H    0.392445
   111  H    0.016633
   112  H    0.084908
   113  H   -0.045058
   114  H   -0.052684
   115  H    0.051915
   116  H    0.046730
   117  H   -0.165945
   118  H    0.073806
   119  H    0.063041
   120  H    0.100458
   121  N   -0.242693
   122  C    0.120332
   123  C    0.534460
   124  O   -0.513953
   125  C    0.126473
   126  O   -0.573263
   127  H   -0.134410
   128  H    0.018252
   129  H    0.042654
   130  H    0.013651
   131  H    0.361366
   132  N   -0.592340
   133  C    0.366023
   134  C    0.365390
   135  O   -0.509589
   136  C   -0.386124
   137  H    0.325584
   138  H    0.048291
   139  H    0.121196
   140  H    0.103441
   141  H    0.093011
   142  N   -0.321634
   143  C    0.156609
   144  C    0.350995
   145  O   -0.513961
   146  C   -0.416336
   147  H    0.256657
   148  H    0.083832
   149  H    0.122341
   150  H    0.132770
   151  H    0.108020
   152  N   -0.042723
   153  C   -0.293981
   154  C    0.560134
   155  O   -0.567737
   156  C    0.122296
   157  C   -0.299692
   158  C    0.676593
   159  O   -0.551851
   160  O   -0.632412
   161  H    0.053162
   162  H    0.110187
   163  H    0.021772
   164  H    0.312610
   165  H    0.015366
   166  H    0.055422
   167  N   -0.142344
   168  C   -0.175579
   169  H    0.073211
   170  H    0.109906
   171  H    0.047931
   172  H    0.157118
   173  Ca   1.642920
   174  O   -0.895999
   175  H    0.391916
   176  H    0.443948
 Sum of ESP charges =  -0.00000

 Normal termination of Gaussian 16 at Wed Sep 18 17:25:48 2019.
