 Gaussian 16, Revision A.03,
 Gaussian 16:  ES64L-G16RevA.03 25-Dec-2016

 ----------------------------------------------------------------------
 #b3lyp/svp scf=(tight,noincore) Test #IOP(5/87=12) Density=Current Pop
 =(MK,readradii) iop(6/33=2) iop(6/42=6)
 ----------------------------------------------------------------------

 -----------------
 CaMKII_loop3_30.0
 -----------------
 Symbolic Z-matrix:
 Charge =  0 Multiplicity = 1

                         Standard orientation:
 ---------------------------------------------------------------------
 Center     Atomic      Atomic             Coordinates (Angstroms)
 Number     Number       Type             X           Y           Z
 ---------------------------------------------------------------------
      1          6           0        2.440509    1.541455    5.343353
      2          6           0        1.675953    1.794400    4.053712
      3          8           0        2.387467    2.043462    3.082982
      4          1           0        3.369856    1.017618    5.117631
      5          1           0        2.667892    2.492390    5.824174
      6          1           0        1.833490    0.931266    6.012605
      7          7           0        0.358877    1.612749    3.965881
      8          6           0       -0.396718    1.885658    2.754478
      9          6           0       -0.340987    3.358130    2.391544
     10          8           0       -1.179974    4.165586    2.801809
     11          6           0       -1.867423    1.493273    2.920791
     12          6           0       -2.664368    1.466556    1.619306
     13          8           0       -2.047887    1.602077    0.541444
     14          8           0       -3.868593    1.156360    1.767358
     15          1           0       -0.048730    1.328214    4.841836
     16          1           0        0.065109    1.245265    2.006071
     17          1           0       -2.431484    2.179109    3.542775
     18          1           0       -1.904773    0.466410    3.274003
     19          7           0        0.703985    3.618209    1.599654
     20          6           0        1.210224    4.944146    1.286421
     21          6           0        0.264147    5.758993    0.413573
     22          8           0        0.367114    6.976861    0.360713
     23          6           0        2.541166    4.770945    0.554442
     24          6           0        3.395988    5.984583    0.217158
     25          6           0        4.716166    5.741695   -0.520091
     26          6           0        5.389131    7.040666   -0.931175
     27          7           0        4.550601    8.006275   -1.664365
     28          1           0        1.194266    2.811357    1.267518
     29          1           0        1.449084    5.453739    2.219299
     30          1           0        2.353601    4.300464   -0.412185
     31          1           0        3.152495    4.119129    1.169676
     32          1           0        3.670997    6.497876    1.141117
     33          1           0        2.739927    6.631033   -0.368577
     34          1           0        4.370241    5.117551   -1.351404
     35          1           0        5.367846    5.129519    0.095745
     36          1           0        6.169730    6.781561   -1.642111
     37          1           0        5.758270    7.478115    0.006468
     38          1           0        4.318126    7.600645   -2.561872
     39          1           0        3.639353    8.201594   -1.285186
     40          1           0        5.093018    8.848809   -1.807268
     41          7           0       -0.565370    5.112264   -0.402604
     42          6           0       -1.517342    5.741728   -1.297771
     43          6           0       -2.957563    5.626314   -0.814508
     44          8           0       -3.864892    6.255492   -1.360667
     45          6           0       -1.456530    5.054678   -2.659375
     46          6           0       -1.773565    3.572266   -2.731781
     47          8           0       -0.928733    2.668852   -2.530280
     48          8           0       -2.960196    3.300941   -3.000837
     49          1           0       -0.629235    4.096495   -0.331658
     50          1           0       -1.318524    6.810191   -1.259579
     51          1           0       -0.431361    5.166769   -3.009896
     52          1           0       -2.198824    5.507447   -3.316185
     53          7           0       -3.224680    4.863040    0.241646
     54          6           0       -4.581491    4.472871    0.601410
     55          6           0       -5.450365    3.717440   -0.385749
     56          8           0       -6.056535    4.347724   -1.258102
     57          1           0       -2.498059    4.467870    0.813977
     58          1           0       -5.080234    5.389751    0.900049
     59          1           0       -4.526153    3.838103    1.481755
     60          7           0       -5.356463    2.390642   -0.376212
     61          6           0       -6.245246    1.469309   -1.064405
     62          6           0       -6.677300    0.242264   -0.274919
     63          8           0       -7.476313   -0.561911   -0.741267
     64          6           0       -5.595506    1.110589   -2.391906
     65          6           0       -4.626291   -0.050352   -2.207958
     66          7           0       -4.844212   -1.149361   -2.941709
     67          8           0       -3.722625   -0.003922   -1.385139
     68          1           0       -4.801721    1.926336    0.322917
     69          1           0       -7.185826    1.946896   -1.359736
     70          1           0       -5.041435    1.935834   -2.842323
     71          1           0       -6.407336    0.755912   -3.026443
     72          1           0       -5.599585   -1.157409   -3.607252
     73          1           0       -4.096408   -1.829039   -2.995802
     74          7           0       -6.210193    0.040626    0.962843
     75          6           0       -6.514007   -1.056164    1.855227
     76          6           0       -5.445561   -2.132573    1.781285
     77          8           0       -5.504004   -3.133374    2.497092
     78          1           0       -5.522280    0.676780    1.335244
     79          1           0       -7.509926   -1.410772    1.595805
     80          1           0       -6.545669   -0.564597    2.839025
     81          7           0       -4.395718   -1.988189    0.972345
     82          6           0       -3.472868   -3.075284    0.729916
     83          6           0       -2.032161   -2.594612    0.747737
     84          8           0       -1.743893   -1.527680    0.206019
     85          6           0       -3.780083   -3.791988   -0.588361
     86          6           0       -5.054672   -4.593998   -0.548327
     87          6           0       -4.971974   -5.973338   -0.314482
     88          6           0       -6.257829   -3.940040   -0.836860
     89          6           0       -6.148759   -6.722240   -0.360552
     90          6           0       -7.413105   -4.708296   -1.050449
     91          6           0       -7.350789   -6.078336   -0.727172
     92          8           0       -8.463964   -6.839417   -0.912904
     93          1           0       -4.265877   -1.104425    0.519794
     94          1           0       -3.649159   -3.825906    1.509139
     95          1           0       -2.847857   -4.324213   -0.786836
     96          1           0       -3.933037   -3.069130   -1.390534
     97          1           0       -3.992114   -6.319041   -0.040686
     98          1           0       -6.238707   -2.876951   -1.024677
     99          1           0       -6.058473   -7.766753   -0.091588
    100          1           0       -8.335352   -4.249023   -1.368770
    101          1           0       -9.218496   -6.358538   -1.271285
    102          7           0       -1.182811   -3.408343    1.385973
    103          6           0        0.246021   -3.157624    1.394810
    104          6           0        0.906745   -4.056660    0.358578
    105          8           0        0.782164   -5.273089    0.436553
    106          6           0        0.889842   -3.329283    2.767008
    107          6           0        0.211125   -2.646143    3.943471
    108          6           0        2.368936   -2.958797    2.816218
    109          6           0        0.780627   -2.793121    5.349837
    110          1           0       -1.541224   -4.191649    1.906811
    111          1           0        0.385323   -2.123903    1.065239
    112          1           0        0.886216   -4.379756    3.078925
    113          1           0       -0.836328   -2.934206    4.085815
    114          1           0        0.282164   -1.566354    3.827248
    115          1           0        2.367782   -1.868494    2.860238
    116          1           0        2.898821   -3.450128    3.638845
    117          1           0        2.905514   -3.259284    1.917557
    118          1           0        0.757163   -3.833526    5.664013
    119          1           0        1.860010   -2.631079    5.385536
    120          1           0        0.309689   -2.061382    6.009515
    121          7           0        1.694414   -3.412414   -0.509538
    122          6           0        2.558440   -4.116594   -1.425774
    123          6           0        4.011007   -4.027948   -0.973125
    124          8           0        4.340713   -3.082875   -0.253798
    125          6           0        2.402884   -3.533413   -2.823415
    126          8           0        2.733644   -2.164647   -2.832225
    127          1           0        1.683349   -2.402236   -0.505289
    128          1           0        2.266903   -5.171567   -1.452955
    129          1           0        1.363615   -3.732737   -3.093210
    130          1           0        2.972031   -4.152652   -3.520491
    131          1           0        2.102632   -1.630644   -2.342773
    132          7           0        4.907407   -4.810346   -1.566353
    133          6           0        6.250728   -4.904272   -1.037990
    134          6           0        7.055376   -3.622166   -1.191440
    135          8           0        7.744894   -3.370418   -0.198371
    136          6           0        6.870351   -6.078697   -1.783237
    137          1           0        4.542022   -5.406123   -2.296589
    138          1           0        6.237352   -5.159040    0.024231
    139          1           0        7.916389   -6.138845   -1.492745
    140          1           0        6.300446   -6.946446   -1.459480
    141          1           0        6.868092   -5.777920   -2.833680
    142          7           0        6.916662   -2.789181   -2.226571
    143          6           0        7.583481   -1.517249   -2.438328
    144          6           0        7.202307   -0.550719   -1.328633
    145          8           0        8.019964    0.223937   -0.832603
    146          6           0        7.085866   -1.040532   -3.797747
    147          1           0        6.458802   -3.148079   -3.053950
    148          1           0        8.655793   -1.730361   -2.474810
    149          1           0        6.026340   -0.789815   -3.772326
    150          1           0        7.691582   -0.198971   -4.132984
    151          1           0        7.188644   -1.860934   -4.506391
    152          7           0        5.930994   -0.625075   -0.917371
    153          6           0        5.508669    0.130343    0.240681
    154          6           0        6.090692   -0.361146    1.566082
    155          8           0        6.505916    0.465322    2.369786
    156          6           0        3.986650    0.133263    0.407865
    157          6           0        3.244867    0.744857   -0.775229
    158          6           0        1.756673    0.413032   -0.766797
    159          8           0        0.964279    1.357768   -0.559223
    160          8           0        1.366200   -0.749942   -1.004329
    161          1           0        5.332480   -1.280003   -1.394917
    162          1           0        5.795276    1.153874    0.010594
    163          1           0        3.739221    0.592575    1.367089
    164          1           0        3.666798   -0.895393    0.545928
    165          1           0        3.666857    0.288597   -1.675979
    166          1           0        3.338247    1.818709   -0.668818
    167          7           0        6.072765   -1.668883    1.836639
    168          6           0        6.784811   -2.139120    3.013910
    169          1           0        7.720917   -2.606075    2.709120
    170          1           0        6.997332   -1.295815    3.671268
    171          1           0        6.171328   -2.868762    3.543493
    172          1           0        5.699407   -2.236052    1.085957
    173         20           0       -1.161603    0.338564   -1.581793
    174          8           0        0.525843    0.105304   -3.651942
    175          1           0        1.456800   -0.094145   -3.751131
    176          1           0        0.321810    0.707243   -4.363728
 ---------------------------------------------------------------------

 SCF Done:  E(RB3LYP) =  -5333.58740530     A.U. after   18 cycles

 The electronic state is 1-A.
 Alpha  occ. eigenvalues -- -145.37582 -19.17849 -19.14499 -19.14262 -19.12942
 Alpha  occ. eigenvalues --  -19.12161 -19.11457 -19.10541 -19.10505 -19.09763
 Alpha  occ. eigenvalues --  -19.08628 -19.08359 -19.08349 -19.07984 -19.07935
 Alpha  occ. eigenvalues --  -19.06603 -19.05793 -19.05450 -19.04708 -19.04618
 Alpha  occ. eigenvalues --  -19.03363 -19.02975 -19.02825 -19.00836 -15.43335
 Alpha  occ. eigenvalues --  -14.58234 -14.38851 -14.37523 -14.37062 -14.36731
 Alpha  occ. eigenvalues --  -14.35012 -14.34778 -14.34171 -14.33152 -14.32841
 Alpha  occ. eigenvalues --  -14.32129 -14.31547 -14.31146 -14.29700 -14.29185
 Alpha  occ. eigenvalues --  -12.56953 -12.56916 -12.56883 -10.35263 -10.30859
 Alpha  occ. eigenvalues --  -10.29928 -10.29595 -10.29570 -10.28002 -10.27930
 Alpha  occ. eigenvalues --  -10.27429 -10.27142 -10.26889 -10.26606 -10.26409
 Alpha  occ. eigenvalues --  -10.26312 -10.25688 -10.25481 -10.25193 -10.24692
 Alpha  occ. eigenvalues --  -10.24571 -10.24337 -10.24157 -10.23782 -10.23650
 Alpha  occ. eigenvalues --  -10.23258 -10.22977 -10.22184 -10.22029 -10.21923
 Alpha  occ. eigenvalues --  -10.21905 -10.21477 -10.21437 -10.21147 -10.20991
 Alpha  occ. eigenvalues --  -10.20743 -10.20441 -10.20250 -10.19571 -10.19089
 Alpha  occ. eigenvalues --  -10.18882 -10.18530 -10.18319 -10.17820 -10.17714
 Alpha  occ. eigenvalues --  -10.17470 -10.17365 -10.17329 -10.17316 -10.17148
 Alpha  occ. eigenvalues --  -10.17096 -10.17085 -10.17047 -10.16903 -10.16875
 Alpha  occ. eigenvalues --  -10.15190 -10.14296  -1.80184  -1.13544  -1.07944
 Alpha  occ. eigenvalues --   -1.07608  -1.07427  -1.06302  -1.04655  -1.04451
 Alpha  occ. eigenvalues --   -1.04256  -1.03782  -1.03652  -1.02981  -1.02880
 Alpha  occ. eigenvalues --   -1.02341  -1.01875  -1.01453  -1.01424  -1.00226
 Alpha  occ. eigenvalues --   -1.00152  -0.99289  -0.98808  -0.98794  -0.96985
 Alpha  occ. eigenvalues --   -0.96500  -0.95926  -0.95392  -0.94462  -0.94252
 Alpha  occ. eigenvalues --   -0.93762  -0.92335  -0.91565  -0.91503  -0.91253
 Alpha  occ. eigenvalues --   -0.91038  -0.90158  -0.89459  -0.89440  -0.88608
 Alpha  occ. eigenvalues --   -0.88326  -0.87621  -0.86595  -0.86508  -0.85429
 Alpha  occ. eigenvalues --   -0.83248  -0.82019  -0.81993  -0.81380  -0.79412
 Alpha  occ. eigenvalues --   -0.77908  -0.77689  -0.77507  -0.77332  -0.75942
 Alpha  occ. eigenvalues --   -0.75434  -0.74291  -0.74129  -0.72825  -0.72491
 Alpha  occ. eigenvalues --   -0.72076  -0.71618  -0.71376  -0.71196  -0.70634
 Alpha  occ. eigenvalues --   -0.69226  -0.68864  -0.68855  -0.67983  -0.67596
 Alpha  occ. eigenvalues --   -0.66703  -0.65754  -0.64920  -0.64134  -0.63896
 Alpha  occ. eigenvalues --   -0.63674  -0.63425  -0.62001  -0.61871  -0.61407
 Alpha  occ. eigenvalues --   -0.60875  -0.60571  -0.60490  -0.60200  -0.59361
 Alpha  occ. eigenvalues --   -0.59197  -0.58630  -0.58093  -0.57725  -0.57578
 Alpha  occ. eigenvalues --   -0.57159  -0.56790  -0.56779  -0.56388  -0.56308
 Alpha  occ. eigenvalues --   -0.55968  -0.55800  -0.55485  -0.55388  -0.54866
 Alpha  occ. eigenvalues --   -0.54687  -0.54362  -0.53620  -0.53369  -0.53188
 Alpha  occ. eigenvalues --   -0.53121  -0.52918  -0.52284  -0.52170  -0.51791
 Alpha  occ. eigenvalues --   -0.51376  -0.51018  -0.50690  -0.50043  -0.49458
 Alpha  occ. eigenvalues --   -0.49326  -0.49191  -0.49086  -0.48675  -0.48619
 Alpha  occ. eigenvalues --   -0.48420  -0.48042  -0.47857  -0.47618  -0.47367
 Alpha  occ. eigenvalues --   -0.47051  -0.46673  -0.46617  -0.46378  -0.46037
 Alpha  occ. eigenvalues --   -0.45842  -0.45768  -0.45550  -0.45269  -0.44999
 Alpha  occ. eigenvalues --   -0.44971  -0.44834  -0.44807  -0.44699  -0.44553
 Alpha  occ. eigenvalues --   -0.44099  -0.43790  -0.43686  -0.43628  -0.43567
 Alpha  occ. eigenvalues --   -0.43256  -0.43220  -0.42893  -0.42833  -0.42780
 Alpha  occ. eigenvalues --   -0.42746  -0.42338  -0.42195  -0.42087  -0.42047
 Alpha  occ. eigenvalues --   -0.41915  -0.41899  -0.41630  -0.41581  -0.41427
 Alpha  occ. eigenvalues --   -0.41367  -0.41127  -0.41103  -0.40936  -0.40774
 Alpha  occ. eigenvalues --   -0.40585  -0.40390  -0.40073  -0.39954  -0.39847
 Alpha  occ. eigenvalues --   -0.39774  -0.39603  -0.39504  -0.39289  -0.39228
 Alpha  occ. eigenvalues --   -0.38984  -0.38888  -0.38807  -0.38686  -0.38581
 Alpha  occ. eigenvalues --   -0.38431  -0.38383  -0.38193  -0.38047  -0.37937
 Alpha  occ. eigenvalues --   -0.37593  -0.37527  -0.37411  -0.37154  -0.36788
 Alpha  occ. eigenvalues --   -0.36658  -0.36656  -0.36504  -0.36206  -0.36141
 Alpha  occ. eigenvalues --   -0.35773  -0.35530  -0.35476  -0.35361  -0.35220
 Alpha  occ. eigenvalues --   -0.35147  -0.34946  -0.34876  -0.34604  -0.34483
 Alpha  occ. eigenvalues --   -0.34409  -0.34346  -0.34263  -0.34217  -0.33573
 Alpha  occ. eigenvalues --   -0.33159  -0.33027  -0.32794  -0.32510  -0.32474
 Alpha  occ. eigenvalues --   -0.32185  -0.32178  -0.32078  -0.31792  -0.31456
 Alpha  occ. eigenvalues --   -0.31084  -0.30979  -0.30945  -0.30224  -0.30113
 Alpha  occ. eigenvalues --   -0.29644  -0.28772  -0.28476  -0.28282  -0.28066
 Alpha  occ. eigenvalues --   -0.27689  -0.27162  -0.26896  -0.26495  -0.26331
 Alpha  occ. eigenvalues --   -0.25972  -0.25781  -0.25659  -0.25093  -0.24949
 Alpha  occ. eigenvalues --   -0.24787  -0.24567  -0.24221  -0.24175  -0.24157
 Alpha  occ. eigenvalues --   -0.23315  -0.23272  -0.23093  -0.22687  -0.22275
 Alpha  occ. eigenvalues --   -0.21944  -0.21535  -0.21125  -0.21044  -0.20945
 Alpha  occ. eigenvalues --   -0.20796  -0.20591  -0.20024  -0.19790  -0.19509
 Alpha  occ. eigenvalues --   -0.18930  -0.17217  -0.16616
 Alpha virt. eigenvalues --   -0.09986  -0.04301  -0.02992  -0.02674  -0.02018
 Alpha virt. eigenvalues --   -0.00501  -0.00414  -0.00189   0.00271   0.00566
 Alpha virt. eigenvalues --    0.00943   0.01786   0.01976   0.02097   0.02231

 Mulliken charges:
               1
     1  C    0.073076
     2  C    0.009322
     3  O   -0.311479
     4  H    0.052978
     5  H    0.036923
     6  H   -0.010595
     7  N   -0.115463
     8  C    0.101437
     9  C    0.072196
    10  O   -0.286906
    11  C    0.083338
    12  C    0.184446
    13  O   -0.432583
    14  O   -0.428961
    15  H    0.117611
    16  H    0.012503
    17  H    0.019686
    18  H   -0.003553
    19  N   -0.118735
    20  C    0.188622
    21  C    0.065073
    22  O   -0.312422
    23  C   -0.021312
    24  C   -0.047128
    25  C   -0.015244
    26  C    0.051717
    27  N    0.067397
    28  H    0.157340
    29  H    0.001673
    30  H    0.024959
    31  H    0.045755
    32  H    0.005170
    33  H   -0.019056
    34  H    0.023907
    35  H    0.069875
    36  H    0.067998
    37  H    0.085832
    38  H    0.189508
    39  H    0.196906
    40  H    0.199476
    41  N   -0.153215
    42  C    0.107778
    43  C    0.046052
    44  O   -0.262832
    45  C    0.155686
    46  C    0.063587
    47  O   -0.476397
    48  O   -0.346042
    49  H    0.155028
    50  H    0.007125
    51  H   -0.054966
    52  H    0.025269
    53  N   -0.149311
    54  C    0.246904
    55  C    0.036356
    56  O   -0.271559
    57  H    0.126172
    58  H   -0.000326
    59  H   -0.014273
    60  N   -0.131138
    61  C    0.088702
    62  C    0.035467
    63  O   -0.299566
    64  C    0.159637
    65  C   -0.001036
    66  N   -0.020322
    67  O   -0.342312
    68  H    0.134975
    69  H    0.029337
    70  H    0.088110
    71  H   -0.022402
    72  H    0.135777
    73  H    0.122324
    74  N   -0.178012
    75  C    0.253951
    76  C    0.029557
    77  O   -0.306295
    78  H    0.126754
    79  H    0.038205
    80  H    0.034520
    81  N   -0.151960
    82  C    0.105990
    83  C    0.148601
    84  O   -0.353326
    85  C    0.148869
    86  C   -0.047875
    87  C    0.010799
    88  C    0.010566
    89  C   -0.009252
    90  C   -0.040286
    91  C    0.187369
    92  O   -0.211624
    93  H    0.158124
    94  H    0.004185
    95  H   -0.018120
    96  H   -0.060739
    97  H   -0.042253
    98  H   -0.021627
    99  H   -0.027681
   100  H   -0.033323
   101  H    0.173304
   102  N   -0.118676
   103  C    0.161689
   104  C    0.059222
   105  O   -0.283568
   106  C   -0.069278
   107  C    0.008977
   108  C    0.024875
   109  C    0.012768
   110  H    0.138133
   111  H    0.007977
   112  H   -0.015359
   113  H   -0.002239
   114  H   -0.011915
   115  H    0.018746
   116  H    0.017455
   117  H    0.017313
   118  H   -0.000814
   119  H   -0.001684
   120  H    0.016194
   121  N   -0.139382
   122  C    0.060926
   123  C    0.112517
   124  O   -0.287213
   125  C    0.266552
   126  O   -0.356158
   127  H    0.152082
   128  H    0.011858
   129  H    0.002039
   130  H   -0.023701
   131  H    0.181639
   132  N   -0.121570
   133  C    0.087333
   134  C    0.064450
   135  O   -0.271048
   136  C    0.041284
   137  H    0.118669
   138  H    0.025747
   139  H    0.035707
   140  H    0.040571
   141  H    0.000954
   142  N   -0.125655
   143  C    0.076583
   144  C    0.082435
   145  O   -0.259716
   146  C    0.041848
   147  H    0.103048
   148  H    0.018581
   149  H    0.018004
   150  H    0.033889
   151  H    0.005817
   152  N   -0.164917
   153  C    0.171295
   154  C    0.053733
   155  O   -0.285527
   156  C   -0.070371
   157  C    0.159511
   158  C    0.140338
   159  O   -0.382506
   160  O   -0.457845
   161  H    0.129975
   162  H   -0.030212
   163  H    0.037630
   164  H    0.008896
   165  H   -0.034528
   166  H   -0.022844
   167  N   -0.166729
   168  C    0.136800
   169  H    0.025939
   170  H    0.038216
   171  H   -0.000862
   172  H    0.134723
   173  Ca   1.307462
   174  O   -0.293103
   175  H    0.173078
   176  H    0.185646
 Sum of Mulliken charges =  -0.00000

 Dipole moment (field-independent basis, Debye):
    X=             26.4567    Y=              5.8515    Z=            -14.1998  Tot=             30.5914
 Quadrupole moment (field-independent basis, Debye-Ang):
   XX=           -613.7982   YY=           -425.9257   ZZ=           -503.4758
   XY=            158.2726   XZ=            -70.2429   YZ=             -2.0782

 ESP charges:
               1
     1  C   -0.442362
     2  C    0.731449
     3  O   -0.601067
     4  H    0.148490
     5  H    0.122938
     6  H    0.081488
     7  N   -0.713641
     8  C    0.436378
     9  C    0.319686
    10  O   -0.494658
    11  C   -0.387124
    12  C    1.026094
    13  O   -0.793219
    14  O   -0.717048
    15  H    0.355079
    16  H   -0.010365
    17  H    0.078483
    18  H    0.041562
    19  N    0.084696
    20  C   -0.635504
    21  C    0.682729
    22  O   -0.596376
    23  C    0.100896
    24  C    0.041812
    25  C    0.002076
    26  C   -0.063335
    27  N   -0.283815
    28  H    0.190477
    29  H    0.215718
    30  H    0.048107
    31  H    0.067147
    32  H    0.002868
    33  H   -0.011223
    34  H    0.010629
    35  H    0.061126
    36  H    0.085178
    37  H    0.113386
    38  H    0.327013
    39  H    0.304301
    40  H    0.315685
    41  N   -0.279995
    42  C   -0.011258
    43  C    0.452597
    44  O   -0.497220
    45  C   -0.242367
    46  C    0.732076
    47  O   -0.807564
    48  O   -0.624130
    49  H    0.237271
    50  H    0.083537
    51  H    0.025906
    52  H    0.092574
    53  N   -0.181335
    54  C   -0.020360
    55  C    0.429989
    56  O   -0.478147
    57  H    0.106303
    58  H    0.046232
    59  H    0.047526
    60  N   -0.304690
    61  C   -0.019331
    62  C    0.439834
    63  O   -0.524853
    64  C   -0.203760
    65  C    0.436547
    66  N   -0.739454
    67  O   -0.517971
    68  H    0.127871
    69  H    0.117825
    70  H    0.168187
    71  H    0.076223
    72  H    0.377134
    73  H    0.377503
    74  N   -0.182070
    75  C   -0.417436
    76  C    0.731224
    77  O   -0.588975
    78  H    0.245530
    79  H    0.182191
    80  H    0.166763
    81  N   -0.641880
    82  C    0.162430
    83  C    0.748023
    84  O   -0.703918
    85  C   -0.041338
    86  C   -0.067792
    87  C   -0.130813
    88  C    0.105922
    89  C   -0.319135
    90  C   -0.525693
    91  C    0.539973
    92  O   -0.610992
    93  H    0.390822
    94  H    0.076191
    95  H    0.024007
    96  H   -0.045390
    97  H    0.127364
    98  H    0.124952
    99  H    0.172283
   100  H    0.189181
   101  H    0.425901
   102  N   -0.689010
   103  C   -0.258842
   104  C    0.848838
   105  O   -0.599133
   106  C    0.398211
   107  C    0.139995
   108  C   -0.599882
   109  C   -0.275575
   110  H    0.349761
   111  H    0.155514
   112  H   -0.038091
   113  H   -0.024788
   114  H    0.001534
   115  H    0.114659
   116  H    0.176293
   117  H    0.137596
   118  H    0.051031
   119  H    0.050161
   120  H    0.076158
   121  N   -0.758327
   122  C    0.181688
   123  C    0.473307
   124  O   -0.458818
   125  C    0.153497
   126  O   -0.628136
   127  H    0.510672
   128  H    0.016751
   129  H    0.012845
   130  H    0.023957
   131  H    0.486554
   132  N   -0.514481
   133  C    0.290943
   134  C    0.428391
   135  O   -0.531207
   136  C   -0.432113
   137  H    0.284575
   138  H    0.062001
   139  H    0.129522
   140  H    0.137251
   141  H    0.091535
   142  N   -0.314045
   143  C    0.068248
   144  C    0.413883
   145  O   -0.514047
   146  C   -0.303191
   147  H    0.246726
   148  H    0.084491
   149  H    0.074218
   150  H    0.109380
   151  H    0.080175
   152  N   -0.034514
   153  C   -0.555977
   154  C    0.754658
   155  O   -0.591809
   156  C    0.369736
   157  C   -0.167546
   158  C    0.956883
   159  O   -0.816000
   160  O   -0.913682
   161  H    0.154106
   162  H    0.160410
   163  H   -0.025004
   164  H   -0.178308
   165  H   -0.013142
   166  H   -0.016949
   167  N   -0.278132
   168  C   -0.197005
   169  H    0.094463
   170  H    0.110445
   171  H    0.058418
   172  H    0.250724
   173  Ca   1.677436
   174  O   -0.857727
   175  H    0.389447
   176  H    0.442612
 Sum of ESP charges =   0.00000

 Normal termination of Gaussian 16 at Wed Sep 18 16:03:45 2019.
