 Gaussian 16, Revision A.03,
 Gaussian 16:  ES64L-G16RevA.03 25-Dec-2016

 ----------------------------------------------------------------------
 #b3lyp/svp scf=(tight,noincore) Test #IOP(5/87=12) Density=Current Pop
 =(MK,readradii) iop(6/33=2) iop(6/42=6)
 ----------------------------------------------------------------------

 -----------------
 CaMKII_loop3_47.0
 -----------------
 Symbolic Z-matrix:
 Charge =  0 Multiplicity = 1

                         Standard orientation:
 ---------------------------------------------------------------------
 Center     Atomic      Atomic             Coordinates (Angstroms)
 Number     Number       Type             X           Y           Z
 ---------------------------------------------------------------------
      1          6           0        1.870436    1.668886    5.949269
      2          6           0        1.403030    1.467677    4.509253
      3          8           0        2.236674    1.130976    3.673149
      4          1           0        1.482223    2.614290    6.328146
      5          1           0        1.502444    0.851524    6.569229
      6          1           0        2.960185    1.685958    5.979546
      7          7           0        0.162132    1.839409    4.187248
      8          6           0       -0.489341    1.843705    2.893816
      9          6           0       -0.278509    3.216783    2.256865
     10          8           0       -0.744204    4.227075    2.788031
     11          6           0       -1.982425    1.558423    3.026160
     12          6           0       -2.755186    1.614509    1.715209
     13          8           0       -4.000905    1.618227    1.788478
     14          8           0       -2.108575    1.643180    0.634111
     15          1           0       -0.308455    2.369461    4.908006
     16          1           0       -0.043926    1.065646    2.276298
     17          1           0       -2.385034    2.294218    3.707565
     18          1           0       -2.125914    0.560095    3.454239
     19          7           0        0.567143    3.382443    1.247296
     20          6           0        0.945913    4.697429    0.777144
     21          6           0       -0.208221    5.516571    0.212449
     22          8           0       -0.233751    6.746961    0.321939
     23          6           0        2.012738    4.483801   -0.293439
     24          6           0        2.927997    5.676164   -0.559278
     25          6           0        4.106635    5.355489   -1.470365
     26          6           0        5.116024    6.473168   -1.712502
     27          7           0        6.372829    6.094068   -2.367120
     28          1           0        1.014784    2.525863    0.947315
     29          1           0        1.447773    5.147702    1.624724
     30          1           0        1.497433    4.214415   -1.209568
     31          1           0        2.667983    3.648202   -0.056522
     32          1           0        3.429189    5.891847    0.387130
     33          1           0        2.369522    6.543679   -0.932272
     34          1           0        3.662534    4.971530   -2.384777
     35          1           0        4.555295    4.486866   -0.985392
     36          1           0        5.333143    6.851716   -0.715326
     37          1           0        4.600506    7.264388   -2.260236
     38          1           0        6.132107    5.917765   -3.333645
     39          1           0        7.089472    6.805116   -2.344018
     40          1           0        6.750044    5.193426   -2.104341
     41          7           0       -1.294290    4.892468   -0.238164
     42          6           0       -2.259685    5.479986   -1.138905
     43          6           0       -3.689503    5.285612   -0.650706
     44          8           0       -4.576151    6.030031   -1.044909
     45          6           0       -2.083557    4.943167   -2.563758
     46          6           0       -2.274963    3.432828   -2.689618
     47          8           0       -1.288832    2.725072   -2.401994
     48          8           0       -3.360928    3.110467   -3.219301
     49          1           0       -1.295169    3.888875   -0.076608
     50          1           0       -2.263544    6.562991   -1.221270
     51          1           0       -1.030165    5.188740   -2.720474
     52          1           0       -2.697052    5.393508   -3.332403
     53          7           0       -3.961982    4.311548    0.222652
     54          6           0       -5.237864    4.258559    0.907864
     55          6           0       -6.213052    3.340475    0.179078
     56          8           0       -7.335709    3.752458   -0.089084
     57          1           0       -3.231467    3.689617    0.530142
     58          1           0       -5.752212    5.217788    0.922867
     59          1           0       -5.060428    4.057314    1.961295
     60          7           0       -5.686540    2.207333   -0.297234
     61          6           0       -6.359926    1.186414   -1.067737
     62          6           0       -6.597517   -0.145558   -0.363747
     63          8           0       -7.348982   -0.927431   -0.931616
     64          6           0       -5.728749    1.027402   -2.442666
     65          6           0       -4.578554    0.040238   -2.501472
     66          7           0       -4.555689   -0.884263   -3.463384
     67          8           0       -3.761779   -0.124589   -1.594052
     68          1           0       -4.880068    1.887975    0.219016
     69          1           0       -7.358353    1.580988   -1.242819
     70          1           0       -5.391859    2.026469   -2.746264
     71          1           0       -6.421783    0.497872   -3.097191
     72          1           0       -5.351380   -0.872228   -4.083732
     73          1           0       -3.981258   -1.719476   -3.402163
     74          7           0       -6.077893   -0.306226    0.855096
     75          6           0       -6.426146   -1.431539    1.708905
     76          6           0       -5.383911   -2.538337    1.638594
     77          8           0       -5.555557   -3.531845    2.332914
     78          1           0       -5.463538    0.392710    1.225171
     79          1           0       -7.356647   -1.896897    1.381170
     80          1           0       -6.482595   -1.105392    2.749838
     81          7           0       -4.252297   -2.303196    0.978021
     82          6           0       -3.189022   -3.222853    0.641749
     83          6           0       -1.830027   -2.542861    0.783675
     84          8           0       -1.683879   -1.369536    0.449239
     85          6           0       -3.362075   -3.666313   -0.806697
     86          6           0       -4.549984   -4.574295   -1.009035
     87          6           0       -4.387090   -5.886362   -0.558650
     88          6           0       -5.737939   -4.120500   -1.603369
     89          6           0       -5.488590   -6.750870   -0.511501
     90          6           0       -6.865294   -4.942320   -1.479349
     91          6           0       -6.711036   -6.254767   -0.987427
     92          8           0       -7.748114   -7.138674   -1.004103
     93          1           0       -4.221576   -1.457315    0.411945
     94          1           0       -3.166035   -4.048184    1.341963
     95          1           0       -2.501063   -4.237122   -1.160159
     96          1           0       -3.365694   -2.812153   -1.492991
     97          1           0       -3.507889   -6.176513   -0.002936
     98          1           0       -5.796369   -3.132754   -2.051859
     99          1           0       -5.449029   -7.781303   -0.206962
    100          1           0       -7.866774   -4.621225   -1.713520
    101          1           0       -7.473066   -8.056728   -1.044407
    102          7           0       -0.826770   -3.264389    1.305857
    103          6           0        0.556392   -2.853795    1.397374
    104          6           0        1.371013   -3.792834    0.527721
    105          8           0        1.166114   -5.000596    0.476460
    106          6           0        1.069311   -2.855623    2.835363
    107          6           0        0.250975   -2.059134    3.840167
    108          6           0        2.535417   -2.441913    2.898411
    109          6           0       -0.971032   -2.650888    4.546089
    110          1           0       -1.055812   -4.182920    1.637431
    111          1           0        0.693282   -1.823048    1.076559
    112          1           0        1.020232   -3.855172    3.285467
    113          1           0       -0.068829   -1.112350    3.401961
    114          1           0        0.866725   -1.756236    4.690816
    115          1           0        2.825498   -2.432685    3.948300
    116          1           0        3.068362   -3.262239    2.411858
    117          1           0        2.692738   -1.463346    2.441729
    118          1           0       -1.657424   -2.692282    3.690371
    119          1           0       -0.743671   -3.675879    4.822314
    120          1           0       -1.392891   -1.953385    5.276106
    121          7           0        2.366149   -3.167392   -0.111909
    122          6           0        3.248859   -3.861590   -1.037389
    123          6           0        4.693643   -3.494404   -0.690297
    124          8           0        4.894006   -2.415672   -0.150026
    125          6           0        2.957219   -3.557708   -2.503643
    126          8           0        1.565629   -3.579281   -2.728169
    127          1           0        2.628996   -2.218717    0.107922
    128          1           0        3.007148   -4.919227   -1.017886
    129          1           0        3.492916   -4.232334   -3.166446
    130          1           0        3.268371   -2.525417   -2.667836
    131          1           0        1.190847   -4.415609   -2.457441
    132          7           0        5.655063   -4.386736   -0.919897
    133          6           0        6.995405   -4.269079   -0.370499
    134          6           0        7.757749   -3.011900   -0.744578
    135          8           0        8.298061   -2.363354    0.148927
    136          6           0        7.759305   -5.534220   -0.745698
    137          1           0        5.425114   -5.254125   -1.389748
    138          1           0        6.934222   -4.291682    0.716812
    139          1           0        7.847366   -5.562186   -1.837515
    140          1           0        8.740811   -5.529783   -0.267130
    141          1           0        7.226084   -6.451447   -0.467725
    142          7           0        7.638344   -2.408233   -1.929115
    143          6           0        7.964616   -1.018916   -2.192824
    144          6           0        7.399627    0.057477   -1.286863
    145          8           0        8.087496    1.010747   -0.913618
    146          6           0        7.438709   -0.776930   -3.607238
    147          1           0        7.225536   -2.922512   -2.703394
    148          1           0        9.056083   -0.998837   -2.143865
    149          1           0        7.531509    0.298894   -3.809208
    150          1           0        8.002685   -1.300320   -4.378336
    151          1           0        6.393319   -1.067197   -3.677983
    152          7           0        6.131628   -0.030742   -0.891645
    153          6           0        5.493413    0.816220    0.088476
    154          6           0        5.874942    0.503207    1.527593
    155          8           0        5.979224    1.424846    2.325720
    156          6           0        3.971853    0.753664    0.014708
    157          6           0        3.343522    0.924607   -1.368686
    158          6           0        1.851899    0.622318   -1.325272
    159          8           0        1.157508    0.948332   -0.337529
    160          8           0        1.371828    0.015197   -2.302173
    161          1           0        5.610505   -0.854508   -1.168846
    162          1           0        5.776325    1.838229   -0.173169
    163          1           0        3.472972    1.443685    0.702159
    164          1           0        3.536777   -0.167919    0.416570
    165          1           0        3.800291    0.103112   -1.919238
    166          1           0        3.627051    1.923295   -1.697827
    167          7           0        6.147763   -0.768652    1.849528
    168          6           0        6.733966   -1.139464    3.116400
    169          1           0        6.868600   -2.220366    3.151823
    170          1           0        7.702027   -0.650362    3.226337
    171          1           0        6.074988   -0.828915    3.927429
    172          1           0        5.863871   -1.423583    1.136877
    173         20           0       -1.207477    0.408677   -1.406217
    174          8           0       -0.769394   -2.133789   -2.217177
    175          1           0       -1.383777   -2.424397   -2.886864
    176          1           0        0.028558   -2.624348   -2.404857
 ---------------------------------------------------------------------

 SCF Done:  E(RB3LYP) =  -5333.56936778     A.U. after   20 cycles

 The electronic state is 1-A.
 Alpha  occ. eigenvalues -- -145.35562 -19.19372 -19.17299 -19.16124 -19.14407
 Alpha  occ. eigenvalues --  -19.13143 -19.12588 -19.11679 -19.10612 -19.10342
 Alpha  occ. eigenvalues --  -19.07729 -19.07081 -19.06928 -19.06824 -19.06622
 Alpha  occ. eigenvalues --  -19.06107 -19.05853 -19.05608 -19.05033 -19.04971
 Alpha  occ. eigenvalues --  -19.03368 -19.02961 -19.02119 -19.00912 -15.41339
 Alpha  occ. eigenvalues --  -14.58883 -14.42791 -14.39292 -14.38763 -14.37389
 Alpha  occ. eigenvalues --  -14.36112 -14.35935 -14.33448 -14.33108 -14.32574
 Alpha  occ. eigenvalues --  -14.32041 -14.31617 -14.30342 -14.28479 -14.27833
 Alpha  occ. eigenvalues --  -12.54955 -12.54908 -12.54899 -10.35409 -10.34644
 Alpha  occ. eigenvalues --  -10.31762 -10.31191 -10.30085 -10.29529 -10.29130
 Alpha  occ. eigenvalues --  -10.28979 -10.28727 -10.28043 -10.26473 -10.26341
 Alpha  occ. eigenvalues --  -10.26337 -10.26213 -10.25630 -10.25335 -10.24974
 Alpha  occ. eigenvalues --  -10.24825 -10.24550 -10.24425 -10.24354 -10.24210
 Alpha  occ. eigenvalues --  -10.23711 -10.23668 -10.23054 -10.22954 -10.22205
 Alpha  occ. eigenvalues --  -10.21502 -10.21354 -10.21000 -10.20850 -10.20511
 Alpha  occ. eigenvalues --  -10.20505 -10.20051 -10.19921 -10.19665 -10.19477
 Alpha  occ. eigenvalues --  -10.19054 -10.18458 -10.18317 -10.18315 -10.18308
 Alpha  occ. eigenvalues --  -10.18271 -10.18008 -10.17955 -10.17763 -10.17679
 Alpha  occ. eigenvalues --  -10.17643 -10.17286 -10.17157 -10.16859 -10.15685
 Alpha  occ. eigenvalues --  -10.15620 -10.12084  -1.78215  -1.13986  -1.10788
 Alpha  occ. eigenvalues --   -1.07717  -1.06404  -1.06027  -1.05956  -1.05716
 Alpha  occ. eigenvalues --   -1.05635  -1.04276  -1.03674  -1.03401  -1.03376
 Alpha  occ. eigenvalues --   -1.02457  -1.01972  -1.00426  -1.00078  -1.00043
 Alpha  occ. eigenvalues --   -0.99644  -0.99493  -0.99351  -0.99263  -0.97860
 Alpha  occ. eigenvalues --   -0.96240  -0.96011  -0.95668  -0.95535  -0.95319
 Alpha  occ. eigenvalues --   -0.94154  -0.92794  -0.91959  -0.90812  -0.90533
 Alpha  occ. eigenvalues --   -0.90249  -0.90038  -0.89136  -0.89057  -0.88982
 Alpha  occ. eigenvalues --   -0.88056  -0.87210  -0.86989  -0.86239  -0.84548
 Alpha  occ. eigenvalues --   -0.84403  -0.84065  -0.82701  -0.81159  -0.80887
 Alpha  occ. eigenvalues --   -0.80230  -0.78897  -0.78296  -0.76363  -0.75218
 Alpha  occ. eigenvalues --   -0.75159  -0.75006  -0.73554  -0.73384  -0.72968
 Alpha  occ. eigenvalues --   -0.72865  -0.72027  -0.71746  -0.71414  -0.71328
 Alpha  occ. eigenvalues --   -0.70668  -0.70225  -0.69544  -0.68704  -0.67584
 Alpha  occ. eigenvalues --   -0.67118  -0.66960  -0.66736  -0.65093  -0.63918
 Alpha  occ. eigenvalues --   -0.63747  -0.63547  -0.63282  -0.62697  -0.62613
 Alpha  occ. eigenvalues --   -0.61403  -0.61322  -0.61104  -0.60974  -0.60432
 Alpha  occ. eigenvalues --   -0.59761  -0.59551  -0.58592  -0.58150  -0.57787
 Alpha  occ. eigenvalues --   -0.57493  -0.57204  -0.57078  -0.56589  -0.56421
 Alpha  occ. eigenvalues --   -0.56162  -0.56091  -0.55751  -0.55098  -0.54855
 Alpha  occ. eigenvalues --   -0.54744  -0.54602  -0.54095  -0.53897  -0.53775
 Alpha  occ. eigenvalues --   -0.53285  -0.53179  -0.52501  -0.52423  -0.52052
 Alpha  occ. eigenvalues --   -0.52045  -0.51838  -0.51458  -0.51273  -0.50889
 Alpha  occ. eigenvalues --   -0.49834  -0.49520  -0.49323  -0.48806  -0.48720
 Alpha  occ. eigenvalues --   -0.48400  -0.48329  -0.48128  -0.47984  -0.47541
 Alpha  occ. eigenvalues --   -0.47536  -0.47234  -0.46968  -0.46873  -0.46547
 Alpha  occ. eigenvalues --   -0.46231  -0.46120  -0.46031  -0.45910  -0.45875
 Alpha  occ. eigenvalues --   -0.45752  -0.45394  -0.45039  -0.44979  -0.44870
 Alpha  occ. eigenvalues --   -0.44738  -0.44558  -0.44354  -0.44097  -0.43890
 Alpha  occ. eigenvalues --   -0.43570  -0.43464  -0.43351  -0.43084  -0.42990
 Alpha  occ. eigenvalues --   -0.42936  -0.42746  -0.42617  -0.42568  -0.42539
 Alpha  occ. eigenvalues --   -0.42319  -0.42298  -0.42195  -0.41963  -0.41909
 Alpha  occ. eigenvalues --   -0.41754  -0.41689  -0.41557  -0.41333  -0.41216
 Alpha  occ. eigenvalues --   -0.40984  -0.40865  -0.40668  -0.40517  -0.40183
 Alpha  occ. eigenvalues --   -0.39920  -0.39897  -0.39726  -0.39661  -0.39567
 Alpha  occ. eigenvalues --   -0.39417  -0.39153  -0.39033  -0.38996  -0.38655
 Alpha  occ. eigenvalues --   -0.38497  -0.38371  -0.38148  -0.38043  -0.37698
 Alpha  occ. eigenvalues --   -0.37596  -0.37537  -0.37345  -0.37266  -0.37169
 Alpha  occ. eigenvalues --   -0.37040  -0.36809  -0.36333  -0.36212  -0.36034
 Alpha  occ. eigenvalues --   -0.35560  -0.35510  -0.35373  -0.35317  -0.35194
 Alpha  occ. eigenvalues --   -0.35139  -0.34985  -0.34748  -0.34679  -0.34570
 Alpha  occ. eigenvalues --   -0.34471  -0.34164  -0.33976  -0.33926  -0.33793
 Alpha  occ. eigenvalues --   -0.33638  -0.33556  -0.33172  -0.33149  -0.32757
 Alpha  occ. eigenvalues --   -0.32570  -0.32420  -0.32362  -0.32173  -0.31974
 Alpha  occ. eigenvalues --   -0.31740  -0.31688  -0.31017  -0.30982  -0.30117
 Alpha  occ. eigenvalues --   -0.29892  -0.29813  -0.29113  -0.28820  -0.28521
 Alpha  occ. eigenvalues --   -0.28348  -0.27777  -0.27696  -0.27065  -0.26221
 Alpha  occ. eigenvalues --   -0.26026  -0.25657  -0.25189  -0.25173  -0.24888
 Alpha  occ. eigenvalues --   -0.24884  -0.23760  -0.23729  -0.23541  -0.23342
 Alpha  occ. eigenvalues --   -0.23291  -0.23086  -0.22920  -0.22364  -0.22250
 Alpha  occ. eigenvalues --   -0.22175  -0.21350  -0.21189  -0.21112  -0.20973
 Alpha  occ. eigenvalues --   -0.20933  -0.20496  -0.19967  -0.19377  -0.19090
 Alpha  occ. eigenvalues --   -0.17803  -0.17170  -0.16771
 Alpha virt. eigenvalues --   -0.10447  -0.05425  -0.04621  -0.04062  -0.03389
 Alpha virt. eigenvalues --   -0.02225  -0.01515  -0.01249  -0.01087  -0.00590
 Alpha virt. eigenvalues --    0.00188   0.00375   0.00797   0.00829   0.01636

 Mulliken charges:
               1
     1  C    0.040555
     2  C    0.013991
     3  O   -0.287360
     4  H    0.019938
     5  H    0.025142
     6  H    0.036889
     7  N   -0.121980
     8  C    0.129352
     9  C    0.030470
    10  O   -0.297385
    11  C    0.090622
    12  C    0.195361
    13  O   -0.396381
    14  O   -0.478132
    15  H    0.115796
    16  H    0.010539
    17  H    0.006280
    18  H    0.009306
    19  N   -0.142380
    20  C    0.188485
    21  C    0.067360
    22  O   -0.291059
    23  C   -0.015565
    24  C    0.016355
    25  C   -0.083731
    26  C    0.050694
    27  N    0.090104
    28  H    0.149476
    29  H   -0.005685
    30  H    0.028094
    31  H    0.002612
    32  H    0.003701
    33  H    0.037985
    34  H    0.029429
    35  H    0.033623
    36  H    0.069394
    37  H    0.083047
    38  H    0.186157
    39  H    0.198914
    40  H    0.196609
    41  N   -0.129889
    42  C    0.089254
    43  C    0.062403
    44  O   -0.278721
    45  C    0.146460
    46  C    0.109795
    47  O   -0.478635
    48  O   -0.364077
    49  H    0.156982
    50  H    0.015812
    51  H   -0.046554
    52  H    0.002348
    53  N   -0.161187
    54  C    0.225230
    55  C    0.034383
    56  O   -0.278000
    57  H    0.114817
    58  H    0.012447
    59  H    0.016151
    60  N   -0.156709
    61  C    0.104193
    62  C    0.047801
    63  O   -0.292462
    64  C    0.153325
    65  C    0.052913
    66  N   -0.040621
    67  O   -0.380610
    68  H    0.128700
    69  H    0.027091
    70  H    0.097276
    71  H   -0.016961
    72  H    0.131395
    73  H    0.118030
    74  N   -0.170146
    75  C    0.233960
    76  C    0.000590
    77  O   -0.292405
    78  H    0.134612
    79  H    0.042909
    80  H    0.042179
    81  N   -0.138517
    82  C    0.140316
    83  C    0.137581
    84  O   -0.344520
    85  C    0.144138
    86  C   -0.026730
    87  C    0.009202
    88  C    0.018374
    89  C   -0.031127
    90  C   -0.007237
    91  C    0.156644
    92  O   -0.216153
    93  H    0.154229
    94  H   -0.010352
    95  H   -0.031377
    96  H   -0.056786
    97  H   -0.032226
    98  H   -0.037847
    99  H   -0.050285
   100  H   -0.011124
   101  H    0.174044
   102  N   -0.117033
   103  C    0.143192
   104  C    0.074708
   105  O   -0.278731
   106  C   -0.102762
   107  C   -0.010972
   108  C    0.043510
   109  C    0.040229
   110  H    0.126469
   111  H    0.027279
   112  H   -0.025683
   113  H    0.014293
   114  H   -0.004799
   115  H    0.012425
   116  H   -0.004280
   117  H    0.054894
   118  H   -0.002876
   119  H   -0.000308
   120  H    0.026992
   121  N   -0.130522
   122  C    0.007812
   123  C    0.107806
   124  O   -0.295889
   125  C    0.314175
   126  O   -0.306959
   127  H    0.164450
   128  H    0.007664
   129  H   -0.003015
   130  H    0.011552
   131  H    0.179166
   132  N   -0.098818
   133  C    0.087130
   134  C    0.068777
   135  O   -0.254364
   136  C    0.006335
   137  H    0.127122
   138  H    0.035764
   139  H    0.010489
   140  H    0.056357
   141  H    0.033789
   142  N   -0.128616
   143  C    0.112079
   144  C    0.065049
   145  O   -0.284641
   146  C    0.006066
   147  H    0.101072
   148  H    0.022528
   149  H    0.023637
   150  H    0.026046
   151  H    0.015286
   152  N   -0.142502
   153  C    0.180831
   154  C    0.070508
   155  O   -0.278206
   156  C   -0.080676
   157  C    0.137886
   158  C    0.114552
   159  O   -0.421461
   160  O   -0.399307
   161  H    0.123534
   162  H   -0.041522
   163  H    0.040539
   164  H   -0.024668
   165  H   -0.041336
   166  H   -0.020777
   167  N   -0.164075
   168  C    0.164437
   169  H   -0.004062
   170  H    0.024656
   171  H    0.027303
   172  H    0.118201
   173  Ca   1.291058
   174  O   -0.282894
   175  H    0.158686
   176  H    0.154481
 Sum of Mulliken charges =  -0.00000

 Dipole moment (field-independent basis, Debye):
    X=             39.8706    Y=            -10.2299    Z=            -15.1112  Tot=             43.8481
 Quadrupole moment (field-independent basis, Debye-Ang):
   XX=           -564.4748   YY=           -465.7311   ZZ=           -514.9178
   XY=            145.1674   XZ=            -98.8784   YZ=            -15.9794

 ESP charges:
               1
     1  C   -0.446855
     2  C    0.813630
     3  O   -0.612601
     4  H    0.106158
     5  H    0.102817
     6  H    0.136412
     7  N   -0.792288
     8  C    0.374821
     9  C    0.490712
    10  O   -0.553754
    11  C   -0.475148
    12  C    0.795655
    13  O   -0.593630
    14  O   -0.676214
    15  H    0.364231
    16  H   -0.019167
    17  H    0.118300
    18  H    0.132558
    19  N    0.070331
    20  C   -0.760941
    21  C    0.914250
    22  O   -0.605359
    23  C    0.442974
    24  C   -0.331303
    25  C    0.259898
    26  C   -0.054249
    27  N   -0.313582
    28  H    0.050492
    29  H    0.218076
    30  H   -0.006716
    31  H    0.005134
    32  H    0.064069
    33  H    0.072292
    34  H   -0.042822
    35  H   -0.035114
    36  H    0.090715
    37  H    0.097930
    38  H    0.299164
    39  H    0.337148
    40  H    0.322131
    41  N   -0.503324
    42  C    0.009594
    43  C    0.496669
    44  O   -0.534676
    45  C   -0.181053
    46  C    0.763699
    47  O   -0.765017
    48  O   -0.676390
    49  H    0.150900
    50  H    0.090873
    51  H    0.018640
    52  H    0.072107
    53  N   -0.210453
    54  C   -0.111658
    55  C    0.516512
    56  O   -0.557566
    57  H    0.217800
    58  H    0.090825
    59  H    0.078354
    60  N   -0.082529
    61  C   -0.044886
    62  C    0.375353
    63  O   -0.500586
    64  C   -0.177735
    65  C    0.500321
    66  N   -0.764851
    67  O   -0.406763
    68  H   -0.135096
    69  H    0.115884
    70  H    0.164296
    71  H    0.045561
    72  H    0.372558
    73  H    0.353842
    74  N   -0.090990
    75  C   -0.370238
    76  C    0.834589
    77  O   -0.615117
    78  H    0.221065
    79  H    0.156940
    80  H    0.137734
    81  N   -0.767334
    82  C    0.604083
    83  C    0.447550
    84  O   -0.549221
    85  C   -0.433602
    86  C    0.297736
    87  C   -0.353077
    88  C   -0.384616
    89  C   -0.154682
    90  C   -0.143421
    91  C    0.318539
    92  O   -0.545485
    93  H    0.314524
    94  H   -0.023483
    95  H    0.052026
    96  H    0.135192
    97  H    0.171332
    98  H    0.205589
    99  H    0.120510
   100  H    0.155413
   101  H    0.388240
   102  N   -0.618880
   103  C    0.323091
   104  C    0.316575
   105  O   -0.532986
   106  C    0.266350
   107  C    0.180816
   108  C   -0.468967
   109  C   -0.379913
   110  H    0.297608
   111  H    0.012005
   112  H   -0.043895
   113  H    0.036493
   114  H   -0.028841
   115  H    0.122297
   116  H    0.091866
   117  H    0.053378
   118  H    0.040563
   119  H    0.083011
   120  H    0.117115
   121  N   -0.135030
   122  C    0.110068
   123  C    0.166608
   124  O   -0.151467
   125  C    0.188734
   126  O   -0.576547
   127  H    0.132322
   128  H    0.041648
   129  H    0.007109
   130  H    0.062260
   131  H    0.404999
   132  N   -0.422304
   133  C    0.168928
   134  C    0.483347
   135  O   -0.519714
   136  C   -0.409431
   137  H    0.307864
   138  H    0.110354
   139  H    0.096017
   140  H    0.139065
   141  H    0.128233
   142  N   -0.376403
   143  C    0.116730
   144  C    0.417020
   145  O   -0.535055
   146  C   -0.384442
   147  H    0.235049
   148  H    0.089398
   149  H    0.109127
   150  H    0.125292
   151  H    0.091508
   152  N   -0.141284
   153  C   -0.273052
   154  C    0.530281
   155  O   -0.561581
   156  C    0.035686
   157  C   -0.186216
   158  C    0.691419
   159  O   -0.628279
   160  O   -0.689869
   161  H    0.151638
   162  H    0.134286
   163  H    0.078969
   164  H    0.028087
   165  H    0.013029
   166  H   -0.006940
   167  N    0.033372
   168  C   -0.224295
   169  H    0.073033
   170  H    0.097663
   171  H    0.083823
   172  H   -0.023049
   173  Ca   1.428393
   174  O   -0.717581
   175  H    0.354890
   176  H    0.357449
 Sum of ESP charges =  -0.00000

 Normal termination of Gaussian 16 at Wed Sep 18 16:11:15 2019.
