 Gaussian 16, Revision A.03,
 Gaussian 16:  ES64L-G16RevA.03 25-Dec-2016

 ----------------------------------------------------------------------
 #b3lyp/svp scf=(tight,noincore) Test #IOP(5/87=12) Density=Current Pop
 =(MK,readradii) iop(6/33=2) iop(6/42=6)
 ----------------------------------------------------------------------

 -----------------
 CaMKII_loop3_82.0
 -----------------
 Symbolic Z-matrix:
 Charge =  0 Multiplicity = 1

                         Standard orientation:
 ---------------------------------------------------------------------
 Center     Atomic      Atomic             Coordinates (Angstroms)
 Number     Number       Type             X           Y           Z
 ---------------------------------------------------------------------
      1          6           0        1.777955    2.455011    5.537480
      2          6           0        1.224004    2.433863    4.115688
      3          8           0        1.949250    2.463311    3.126673
      4          1           0        2.745810    1.954654    5.557396
      5          1           0        1.896430    3.487492    5.866442
      6          1           0        1.088742    1.937781    6.204264
      7          7           0       -0.112372    2.337298    4.044461
      8          6           0       -0.802574    2.105012    2.797759
      9          6           0       -0.962760    3.434671    2.061656
     10          8           0       -1.998148    4.078684    2.228442
     11          6           0       -2.143720    1.479524    3.145600
     12          6           0       -2.922347    0.950429    1.945642
     13          8           0       -2.418594    1.040124    0.808942
     14          8           0       -4.085569    0.562325    2.175617
     15          1           0       -0.676849    2.460790    4.868970
     16          1           0       -0.280177    1.453405    2.095826
     17          1           0       -2.735106    2.233075    3.679758
     18          1           0       -2.062454    0.659581    3.862669
     19          7           0        0.103525    3.787059    1.340227
     20          6           0        0.253426    5.013269    0.583034
     21          6           0       -1.026178    5.377652   -0.146375
     22          8           0       -1.432590    6.537815   -0.081951
     23          6           0        1.497294    4.918800   -0.295184
     24          6           0        1.966884    6.259285   -0.862271
     25          6           0        3.279137    6.064601   -1.618504
     26          6           0        3.084990    5.342138   -2.949201
     27          7           0        4.366550    5.211045   -3.672056
     28          1           0        0.903197    3.158795    1.343116
     29          1           0        0.479111    5.794769    1.314966
     30          1           0        1.231036    4.292502   -1.147392
     31          1           0        2.297236    4.483144    0.293710
     32          1           0        2.013755    6.953414   -0.026455
     33          1           0        1.321118    6.648781   -1.655857
     34          1           0        3.941035    5.556780   -0.908217
     35          1           0        3.722924    7.029635   -1.856546
     36          1           0        2.248658    5.680587   -3.563125
     37          1           0        2.678288    4.369472   -2.659522
     38          1           0        5.073091    4.750625   -3.106890
     39          1           0        4.249613    4.759516   -4.561127
     40          1           0        4.670211    6.175590   -3.720454
     41          7           0       -1.810842    4.478199   -0.742182
     42          6           0       -3.030647    4.754674   -1.488800
     43          6           0       -4.327096    4.307843   -0.829055
     44          8           0       -5.419804    4.375799   -1.382111
     45          6           0       -2.889680    4.214793   -2.913109
     46          6           0       -2.493460    2.756841   -3.060707
     47          8           0       -2.594270    2.003919   -2.063538
     48          8           0       -2.295545    2.299624   -4.209656
     49          1           0       -1.470800    3.528946   -0.778116
     50          1           0       -3.187890    5.826904   -1.596952
     51          1           0       -2.076838    4.767792   -3.389951
     52          1           0       -3.802174    4.321491   -3.491098
     53          7           0       -4.226615    3.868822    0.426279
     54          6           0       -5.424370    3.536846    1.167680
     55          6           0       -6.256094    2.408588    0.566041
     56          8           0       -7.465156    2.380436    0.727215
     57          1           0       -3.315424    3.895956    0.873933
     58          1           0       -6.024667    4.453519    1.221098
     59          1           0       -4.941753    3.268898    2.109956
     60          7           0       -5.694944    1.445912   -0.178717
     61          6           0       -6.429291    0.432553   -0.912704
     62          6           0       -6.868039   -0.727798   -0.031292
     63          8           0       -7.825206   -1.394500   -0.393284
     64          6           0       -5.742178   -0.027974   -2.192700
     65          6           0       -4.668808   -1.099740   -2.087853
     66          7           0       -4.890432   -2.082534   -2.962838
     67          8           0       -3.736152   -1.103373   -1.292215
     68          1           0       -4.692102    1.375150   -0.179300
     69          1           0       -7.345232    0.899869   -1.276117
     70          1           0       -5.335114    0.802351   -2.765115
     71          1           0       -6.525126   -0.371076   -2.870176
     72          1           0       -5.612964   -2.138640   -3.676140
     73          1           0       -4.389877   -2.921409   -2.725914
     74          7           0       -6.213363   -1.037572    1.094958
     75          6           0       -6.284791   -2.124148    2.050756
     76          6           0       -5.184206   -3.166463    2.169461
     77          8           0       -5.287649   -4.162140    2.886696
     78          1           0       -5.465928   -0.401474    1.349359
     79          1           0       -7.111473   -2.773719    1.764131
     80          1           0       -6.505652   -1.781796    3.055901
     81          7           0       -4.191607   -2.992266    1.300321
     82          6           0       -2.945566   -3.703691    1.512589
     83          6           0       -1.647253   -2.915208    1.357097
     84          8           0       -1.624149   -1.926136    0.638486
     85          6           0       -2.945915   -5.023664    0.746449
     86          6           0       -3.527967   -4.951514   -0.645245
     87          6           0       -4.910799   -5.063031   -0.766655
     88          6           0       -2.699176   -5.000877   -1.778368
     89          6           0       -5.426666   -5.211149   -2.058337
     90          6           0       -3.235274   -5.069688   -3.068974
     91          6           0       -4.639537   -5.125705   -3.222951
     92          8           0       -5.239315   -5.084274   -4.449592
     93          1           0       -4.174896   -2.274732    0.586833
     94          1           0       -2.884673   -4.025055    2.552308
     95          1           0       -3.574752   -5.699986    1.318859
     96          1           0       -1.935715   -5.425380    0.742014
     97          1           0       -5.576553   -5.138628    0.095352
     98          1           0       -1.651860   -5.142650   -1.563825
     99          1           0       -6.485449   -5.396916   -2.138769
    100          1           0       -2.521575   -5.103615   -3.878964
    101          1           0       -4.579135   -5.220591   -5.131707
    102          7           0       -0.532039   -3.394900    1.918340
    103          6           0        0.728601   -2.678849    1.839232
    104          6           0        1.644689   -3.366114    0.851229
    105          8           0        1.610631   -4.597600    0.829222
    106          6           0        1.457876   -2.638341    3.178641
    107          6           0        0.622235   -1.913795    4.232509
    108          6           0        2.724104   -1.792168    3.093451
    109          6           0        0.926261   -2.477870    5.613664
    110          1           0       -0.637068   -4.135725    2.594985
    111          1           0        0.652570   -1.640971    1.514689
    112          1           0        1.683025   -3.644594    3.511150
    113          1           0       -0.443933   -2.063448    4.046525
    114          1           0        0.731236   -0.823736    4.191411
    115          1           0        3.152624   -1.623093    4.079140
    116          1           0        3.481856   -2.317182    2.504578
    117          1           0        2.588340   -0.848753    2.567392
    118          1           0        0.238588   -2.277247    6.429602
    119          1           0        0.744483   -3.546765    5.514564
    120          1           0        1.944901   -2.229777    5.921920
    121          7           0        2.459396   -2.703300    0.029080
    122          6           0        3.512165   -3.272303   -0.785912
    123          6           0        4.903421   -3.103189   -0.197264
    124          8           0        5.137796   -2.276056    0.680415
    125          6           0        3.437087   -2.771382   -2.222694
    126          8           0        3.723438   -1.390215   -2.169967
    127          1           0        2.559339   -1.704849    0.157173
    128          1           0        3.348722   -4.339472   -0.946338
    129          1           0        2.386760   -2.863813   -2.518107
    130          1           0        4.239005   -3.325648   -2.706240
    131          1           0        3.201786   -0.933021   -2.831597
    132          7           0        5.822242   -3.920919   -0.718499
    133          6           0        7.251333   -3.749277   -0.534278
    134          6           0        7.739095   -2.337163   -0.834646
    135          8           0        8.540301   -1.755435   -0.115645
    136          6           0        8.011129   -4.801861   -1.326539
    137          1           0        5.526298   -4.657491   -1.342982
    138          1           0        7.452480   -3.932953    0.521896
    139          1           0        9.074504   -4.609479   -1.182584
    140          1           0        7.821132   -5.796217   -0.940070
    141          1           0        7.728838   -4.766205   -2.385047
    142          7           0        7.363335   -1.685475   -1.936375
    143          6           0        7.777922   -0.350167   -2.319483
    144          6           0        7.206034    0.663285   -1.336804
    145          8           0        7.908546    1.588582   -0.937677
    146          6           0        7.247714   -0.060507   -3.712385
    147          1           0        6.780335   -2.252317   -2.531018
    148          1           0        8.865795   -0.322506   -2.306551
    149          1           0        6.201124    0.244001   -3.732979
    150          1           0        7.793546    0.789139   -4.122103
    151          1           0        7.373587   -0.846775   -4.453492
    152          7           0        5.970878    0.435229   -0.872714
    153          6           0        5.292825    1.202945    0.147951
    154          6           0        5.942052    1.061301    1.512114
    155          8           0        5.921447    2.055001    2.233457
    156          6           0        3.812605    0.815477    0.133155
    157          6           0        2.908567    1.473937   -0.898032
    158          6           0        1.444202    1.061900   -0.848446
    159          8           0        1.013323    0.130402   -0.144134
    160          8           0        0.580462    1.631650   -1.553739
    161          1           0        5.524241   -0.375487   -1.281803
    162          1           0        5.267238    2.264119   -0.108675
    163          1           0        3.365868    1.084498    1.088274
    164          1           0        3.783832   -0.271390    0.053202
    165          1           0        3.152953    1.165461   -1.913127
    166          1           0        2.905941    2.568183   -0.837043
    167          7           0        6.572879   -0.064638    1.843502
    168          6           0        7.252991   -0.287781    3.103722
    169          1           0        8.195127   -0.805569    2.921088
    170          1           0        7.452704    0.669812    3.583847
    171          1           0        6.624674   -0.897315    3.753991
    172          1           0        6.544159   -0.793661    1.132797
    173         20           0       -1.300186   -0.107098   -1.135986
    174          8           0       -0.278122   -2.380673   -2.078242
    175          1           0        0.102841   -2.628827   -2.926880
    176          1           0       -0.362543   -3.209356   -1.601737
 ---------------------------------------------------------------------

 SCF Done:  E(RB3LYP) =  -5333.56783488     A.U. after   20 cycles

 The electronic state is 1-A.
 Alpha  occ. eigenvalues -- -145.35594 -19.21122 -19.20440 -19.18209 -19.15663
 Alpha  occ. eigenvalues --  -19.12721 -19.12411 -19.11042 -19.10802 -19.10769
 Alpha  occ. eigenvalues --  -19.09374 -19.08760 -19.08055 -19.07829 -19.07720
 Alpha  occ. eigenvalues --  -19.06790 -19.05404 -19.03615 -19.03518 -19.02576
 Alpha  occ. eigenvalues --  -19.01841 -19.01665 -19.01420 -18.99194 -15.41392
 Alpha  occ. eigenvalues --  -14.58734 -14.41586 -14.39367 -14.37823 -14.37621
 Alpha  occ. eigenvalues --  -14.36529 -14.34765 -14.34574 -14.34097 -14.33316
 Alpha  occ. eigenvalues --  -14.33133 -14.30945 -14.29260 -14.27293 -14.27293
 Alpha  occ. eigenvalues --  -12.55005 -12.54956 -12.54946 -10.34171 -10.33862
 Alpha  occ. eigenvalues --  -10.31752 -10.30722 -10.30357 -10.29826 -10.29600
 Alpha  occ. eigenvalues --  -10.28757 -10.28367 -10.27922 -10.27832 -10.27784
 Alpha  occ. eigenvalues --  -10.27307 -10.27006 -10.26947 -10.26317 -10.26223
 Alpha  occ. eigenvalues --  -10.25963 -10.24908 -10.24304 -10.24120 -10.23700
 Alpha  occ. eigenvalues --  -10.23541 -10.23372 -10.23283 -10.22836 -10.22822
 Alpha  occ. eigenvalues --  -10.22337 -10.21476 -10.21228 -10.21005 -10.20910
 Alpha  occ. eigenvalues --  -10.20884 -10.20866 -10.20521 -10.20216 -10.20112
 Alpha  occ. eigenvalues --  -10.20062 -10.19988 -10.19751 -10.19669 -10.19433
 Alpha  occ. eigenvalues --  -10.19388 -10.18943 -10.18666 -10.18649 -10.18295
 Alpha  occ. eigenvalues --  -10.17953 -10.17598 -10.17517 -10.16726 -10.15921
 Alpha  occ. eigenvalues --  -10.14813 -10.12692  -1.78354  -1.13735  -1.09187
 Alpha  occ. eigenvalues --   -1.08169  -1.07104  -1.06754  -1.06747  -1.06473
 Alpha  occ. eigenvalues --   -1.06255  -1.05550  -1.05202  -1.04306  -1.03703
 Alpha  occ. eigenvalues --   -1.03675  -1.02963  -1.02268  -1.00830  -1.00600
 Alpha  occ. eigenvalues --   -1.00053  -0.98786  -0.98583  -0.97325  -0.97145
 Alpha  occ. eigenvalues --   -0.96032  -0.95957  -0.95051  -0.94773  -0.94718
 Alpha  occ. eigenvalues --   -0.94031  -0.93291  -0.92286  -0.91682  -0.91408
 Alpha  occ. eigenvalues --   -0.90821  -0.90096  -0.89184  -0.88572  -0.87785
 Alpha  occ. eigenvalues --   -0.87374  -0.86497  -0.86048  -0.84713  -0.84610
 Alpha  occ. eigenvalues --   -0.84541  -0.83885  -0.83014  -0.81834  -0.81244
 Alpha  occ. eigenvalues --   -0.80566  -0.79830  -0.79233  -0.76942  -0.75921
 Alpha  occ. eigenvalues --   -0.75719  -0.75631  -0.74262  -0.74102  -0.74050
 Alpha  occ. eigenvalues --   -0.73803  -0.72199  -0.71885  -0.71789  -0.71031
 Alpha  occ. eigenvalues --   -0.70898  -0.70252  -0.69544  -0.69050  -0.68111
 Alpha  occ. eigenvalues --   -0.68061  -0.66738  -0.66314  -0.65398  -0.63653
 Alpha  occ. eigenvalues --   -0.63629  -0.63525  -0.63381  -0.63168  -0.62812
 Alpha  occ. eigenvalues --   -0.62584  -0.62517  -0.61982  -0.61029  -0.60390
 Alpha  occ. eigenvalues --   -0.60310  -0.60154  -0.60143  -0.59873  -0.59054
 Alpha  occ. eigenvalues --   -0.58743  -0.58122  -0.57697  -0.57577  -0.57198
 Alpha  occ. eigenvalues --   -0.56615  -0.56494  -0.56021  -0.55544  -0.54884
 Alpha  occ. eigenvalues --   -0.54697  -0.54423  -0.54366  -0.54009  -0.53419
 Alpha  occ. eigenvalues --   -0.53105  -0.52568  -0.52411  -0.52356  -0.52275
 Alpha  occ. eigenvalues --   -0.51960  -0.51900  -0.51516  -0.51225  -0.50525
 Alpha  occ. eigenvalues --   -0.50411  -0.50238  -0.49775  -0.49397  -0.49312
 Alpha  occ. eigenvalues --   -0.49279  -0.48970  -0.48216  -0.48128  -0.47946
 Alpha  occ. eigenvalues --   -0.47815  -0.47747  -0.47635  -0.47540  -0.47378
 Alpha  occ. eigenvalues --   -0.47039  -0.46911  -0.46784  -0.46545  -0.46476
 Alpha  occ. eigenvalues --   -0.46427  -0.46279  -0.45700  -0.45413  -0.45227
 Alpha  occ. eigenvalues --   -0.45058  -0.44812  -0.44654  -0.44537  -0.44173
 Alpha  occ. eigenvalues --   -0.44068  -0.44018  -0.43863  -0.43742  -0.43542
 Alpha  occ. eigenvalues --   -0.43417  -0.43307  -0.43256  -0.43031  -0.42956
 Alpha  occ. eigenvalues --   -0.42811  -0.42704  -0.42593  -0.42421  -0.42310
 Alpha  occ. eigenvalues --   -0.41910  -0.41678  -0.41479  -0.41171  -0.41073
 Alpha  occ. eigenvalues --   -0.40966  -0.40794  -0.40573  -0.40490  -0.40350
 Alpha  occ. eigenvalues --   -0.40304  -0.40126  -0.39970  -0.39949  -0.39659
 Alpha  occ. eigenvalues --   -0.39496  -0.39465  -0.39360  -0.39328  -0.39154
 Alpha  occ. eigenvalues --   -0.39079  -0.38887  -0.38786  -0.38721  -0.38644
 Alpha  occ. eigenvalues --   -0.38360  -0.38153  -0.38101  -0.37987  -0.37605
 Alpha  occ. eigenvalues --   -0.37328  -0.37019  -0.36960  -0.36818  -0.36723
 Alpha  occ. eigenvalues --   -0.36574  -0.36105  -0.36045  -0.35945  -0.35749
 Alpha  occ. eigenvalues --   -0.35612  -0.35593  -0.35300  -0.35258  -0.35037
 Alpha  occ. eigenvalues --   -0.34836  -0.34545  -0.34508  -0.34265  -0.33990
 Alpha  occ. eigenvalues --   -0.33900  -0.33824  -0.33716  -0.33468  -0.33217
 Alpha  occ. eigenvalues --   -0.32797  -0.32377  -0.31964  -0.31756  -0.31426
 Alpha  occ. eigenvalues --   -0.31138  -0.31026  -0.30746  -0.30623  -0.30260
 Alpha  occ. eigenvalues --   -0.29213  -0.29171  -0.28623  -0.28468  -0.28381
 Alpha  occ. eigenvalues --   -0.28266  -0.28186  -0.28048  -0.27797  -0.27159
 Alpha  occ. eigenvalues --   -0.26960  -0.26653  -0.26111  -0.25978  -0.25912
 Alpha  occ. eigenvalues --   -0.25521  -0.24764  -0.24674  -0.24537  -0.23787
 Alpha  occ. eigenvalues --   -0.23567  -0.23372  -0.22829  -0.22652  -0.22442
 Alpha  occ. eigenvalues --   -0.21739  -0.21495  -0.20869  -0.20214  -0.20160
 Alpha  occ. eigenvalues --   -0.19711  -0.18821  -0.18415  -0.18034  -0.17878
 Alpha  occ. eigenvalues --   -0.17356  -0.17077  -0.15303
 Alpha virt. eigenvalues --   -0.10370  -0.05316  -0.04599  -0.04284  -0.03829
 Alpha virt. eigenvalues --   -0.03090  -0.02383  -0.02341  -0.01869  -0.00959
 Alpha virt. eigenvalues --   -0.00372  -0.00049   0.00072   0.00165   0.02022

 Mulliken charges:
               1
     1  C    0.047739
     2  C    0.045319
     3  O   -0.292692
     4  H    0.040674
     5  H    0.042064
     6  H    0.008232
     7  N   -0.122219
     8  C    0.069799
     9  C    0.101372
    10  O   -0.294646
    11  C    0.045863
    12  C    0.168952
    13  O   -0.458706
    14  O   -0.382377
    15  H    0.122915
    16  H    0.013534
    17  H    0.014003
    18  H   -0.010042
    19  N   -0.125555
    20  C    0.203924
    21  C    0.018326
    22  O   -0.287262
    23  C   -0.091122
    24  C    0.049892
    25  C   -0.036873
    26  C   -0.030969
    27  N    0.092195
    28  H    0.148589
    29  H   -0.001057
    30  H    0.034635
    31  H    0.038357
    32  H    0.032446
    33  H    0.023598
    34  H    0.042571
    35  H    0.011805
    36  H    0.089903
    37  H    0.090019
    38  H    0.202098
    39  H    0.199526
    40  H    0.190360
    41  N   -0.152340
    42  C    0.184137
    43  C    0.039970
    44  O   -0.287841
    45  C    0.064224
    46  C    0.092109
    47  O   -0.454752
    48  O   -0.394021
    49  H    0.141124
    50  H    0.010948
    51  H   -0.039857
    52  H    0.027884
    53  N   -0.189125
    54  C    0.263062
    55  C    0.046851
    56  O   -0.291063
    57  H    0.150958
    58  H    0.012683
    59  H    0.009842
    60  N   -0.151207
    61  C    0.158069
    62  C    0.032486
    63  O   -0.288007
    64  C    0.066959
    65  C    0.091082
    66  N   -0.062664
    67  O   -0.349358
    68  H    0.148381
    69  H    0.020294
    70  H    0.068757
    71  H   -0.010167
    72  H    0.142166
    73  H    0.136815
    74  N   -0.170406
    75  C    0.243209
    76  C    0.027666
    77  O   -0.296631
    78  H    0.139639
    79  H    0.018412
    80  H    0.034614
    81  N   -0.145039
    82  C    0.116735
    83  C    0.113513
    84  O   -0.336846
    85  C    0.134842
    86  C   -0.045008
    87  C   -0.008140
    88  C   -0.015600
    89  C   -0.013222
    90  C   -0.056397
    91  C    0.141635
    92  O   -0.192935
    93  H    0.167489
    94  H   -0.003470
    95  H    0.018490
    96  H   -0.021850
    97  H    0.020247
    98  H   -0.038360
    99  H   -0.006802
   100  H   -0.049681
   101  H    0.175635
   102  N   -0.099161
   103  C    0.152256
   104  C    0.031102
   105  O   -0.304228
   106  C   -0.128310
   107  C    0.035213
   108  C    0.041809
   109  C    0.033020
   110  H    0.133672
   111  H    0.036247
   112  H   -0.014983
   113  H   -0.015034
   114  H    0.013043
   115  H    0.005062
   116  H    0.011316
   117  H    0.032808
   118  H    0.006531
   119  H   -0.009092
   120  H    0.013562
   121  N   -0.106297
   122  C    0.051715
   123  C    0.105925
   124  O   -0.255114
   125  C    0.271787
   126  O   -0.315919
   127  H    0.146347
   128  H    0.014468
   129  H   -0.025596
   130  H   -0.027116
   131  H    0.189106
   132  N   -0.123235
   133  C    0.108460
   134  C    0.023091
   135  O   -0.253553
   136  C    0.034350
   137  H    0.123107
   138  H    0.026188
   139  H    0.050970
   140  H    0.038366
   141  H    0.008055
   142  N   -0.139374
   143  C    0.132686
   144  C    0.031539
   145  O   -0.254591
   146  C    0.039729
   147  H    0.094982
   148  H    0.024783
   149  H   -0.010938
   150  H    0.019814
   151  H    0.016444
   152  N   -0.161373
   153  C    0.180946
   154  C    0.050921
   155  O   -0.287217
   156  C   -0.036755
   157  C    0.094179
   158  C    0.078575
   159  O   -0.423104
   160  O   -0.410211
   161  H    0.123765
   162  H   -0.041030
   163  H    0.063753
   164  H    0.004310
   165  H   -0.047612
   166  H   -0.026341
   167  N   -0.159826
   168  C    0.136160
   169  H    0.021881
   170  H    0.036690
   171  H    0.013783
   172  H    0.145505
   173  Ca   1.287286
   174  O   -0.285625
   175  H    0.187528
   176  H    0.193472
 Sum of Mulliken charges =  -0.00000

 Dipole moment (field-independent basis, Debye):
    X=             36.9046    Y=             -7.3341    Z=            -19.2697  Tot=             42.2736
 Quadrupole moment (field-independent basis, Debye-Ang):
   XX=           -689.5498   YY=           -489.4804   ZZ=           -472.6061
   XY=             74.4508   XZ=            -90.9466   YZ=            -14.5502

 ESP charges:
               1
     1  C   -0.392889
     2  C    0.773018
     3  O   -0.623361
     4  H    0.121751
     5  H    0.112090
     6  H    0.081905
     7  N   -0.724392
     8  C    0.107116
     9  C    0.551364
    10  O   -0.470560
    11  C   -0.266784
    12  C    0.763802
    13  O   -0.878719
    14  O   -0.683122
    15  H    0.379959
    16  H    0.090144
    17  H    0.094579
    18  H    0.065386
    19  N   -0.210243
    20  C   -0.408117
    21  C    0.613299
    22  O   -0.587941
    23  C    0.205621
    24  C   -0.174343
    25  C   -0.083863
    26  C    0.121256
    27  N   -0.564428
    28  H    0.229662
    29  H    0.156709
    30  H    0.017747
    31  H    0.081731
    32  H    0.091713
    33  H    0.060042
    34  H    0.043443
    35  H    0.036665
    36  H    0.108062
    37  H    0.050046
    38  H    0.383671
    39  H    0.402776
    40  H    0.358803
    41  N   -0.299250
    42  C    0.046779
    43  C    0.374437
    44  O   -0.525627
    45  C   -0.278836
    46  C    0.891302
    47  O   -0.880900
    48  O   -0.750277
    49  H    0.220299
    50  H    0.101934
    51  H    0.015416
    52  H    0.103576
    53  N   -0.020941
    54  C   -0.366065
    55  C    0.652636
    56  O   -0.582910
    57  H    0.099990
    58  H    0.137654
    59  H    0.134846
    60  N   -0.395938
    61  C   -0.060391
    62  C    0.477296
    63  O   -0.562305
    64  C   -0.286586
    65  C    0.854257
    66  N   -0.890467
    67  O   -0.801628
    68  H    0.421322
    69  H    0.151020
    70  H    0.164436
    71  H    0.070756
    72  H    0.414314
    73  H    0.378483
    74  N   -0.182314
    75  C   -0.154361
    76  C    0.568729
    77  O   -0.563729
    78  H    0.189968
    79  H    0.084422
    80  H    0.100413
    81  N   -0.423174
    82  C    0.076356
    83  C    0.520497
    84  O   -0.498335
    85  C   -0.169450
    86  C    0.108617
    87  C   -0.207416
    88  C   -0.137295
    89  C   -0.206078
    90  C   -0.377772
    91  C    0.377084
    92  O   -0.551163
    93  H    0.361188
    94  H    0.061419
    95  H    0.093026
    96  H    0.031789
    97  H    0.195061
    98  H    0.136465
    99  H    0.155568
   100  H    0.143557
   101  H    0.416359
   102  N   -0.458377
   103  C   -0.041700
   104  C    0.617740
   105  O   -0.607592
   106  C    0.367316
   107  C    0.063558
   108  C   -0.508768
   109  C   -0.348579
   110  H    0.298399
   111  H    0.060906
   112  H   -0.040251
   113  H   -0.013123
   114  H    0.042749
   115  H    0.146510
   116  H    0.079809
   117  H    0.113131
   118  H    0.100104
   119  H    0.068642
   120  H    0.072522
   121  N   -0.311472
   122  C    0.174076
   123  C    0.400579
   124  O   -0.375408
   125  C   -0.098342
   126  O   -0.416317
   127  H    0.173920
   128  H    0.034612
   129  H    0.068766
   130  H    0.051973
   131  H    0.395329
   132  N   -0.465052
   133  C    0.187730
   134  C    0.421427
   135  O   -0.488322
   136  C   -0.381671
   137  H    0.310755
   138  H    0.082205
   139  H    0.135854
   140  H    0.129657
   141  H    0.083020
   142  N   -0.320623
   143  C    0.008781
   144  C    0.436440
   145  O   -0.522719
   146  C   -0.214671
   147  H    0.252311
   148  H    0.125186
   149  H    0.042910
   150  H    0.078742
   151  H    0.072475
   152  N   -0.083122
   153  C   -0.245115
   154  C    0.533378
   155  O   -0.561116
   156  C    0.094016
   157  C   -0.094546
   158  C    0.822303
   159  O   -0.777930
   160  O   -0.824188
   161  H    0.016804
   162  H    0.097181
   163  H    0.088453
   164  H   -0.105369
   165  H   -0.009549
   166  H   -0.019769
   167  N   -0.093597
   168  C   -0.172745
   169  H    0.077296
   170  H    0.102885
   171  H    0.058102
   172  H    0.133273
   173  Ca   1.689293
   174  O   -0.789379
   175  H    0.419349
   176  H    0.367282
 Sum of ESP charges =   0.00000

 Normal termination of Gaussian 16 at Sun Sep 15 01:04:11 2019.
