 Gaussian 16, Revision A.03,
 Gaussian 16:  ES64L-G16RevA.03 25-Dec-2016

 ----------------------------------------------------------------------
 #b3lyp/svp scf=(tight,noincore) Test #IOP(5/87=12) Density=Current Pop
 =(MK,readradii) iop(6/33=2) iop(6/42=6)
 ----------------------------------------------------------------------

 -----------------
 CaMKII_loop3_68.0
 -----------------
 Symbolic Z-matrix:
 Charge =  0 Multiplicity = 1

                         Standard orientation:
 ---------------------------------------------------------------------
 Center     Atomic      Atomic             Coordinates (Angstroms)
 Number     Number       Type             X           Y           Z
 ---------------------------------------------------------------------
      1          6           0        1.968489    3.409340    3.695590
      2          6           0        1.033157    2.930681    2.598212
      3          8           0        1.224523    3.235135    1.420933
      4          1           0        2.998401    3.354389    3.343261
      5          1           0        1.728410    4.440122    3.954554
      6          1           0        1.850899    2.776691    4.575759
      7          7           0       -0.162973    2.400331    2.873537
      8          6           0       -1.205280    2.315737    1.880895
      9          6           0       -1.898357    3.630291    1.529907
     10          8           0       -3.126423    3.631222    1.545768
     11          6           0       -2.106528    1.159206    2.302308
     12          6           0       -2.956762    0.601625    1.165820
     13          8           0       -4.167580    0.339018    1.372601
     14          8           0       -2.570872    0.552629   -0.022998
     15          1           0       -0.346244    2.141773    3.830072
     16          1           0       -0.724243    1.934286    0.979341
     17          1           0       -2.843602    1.507929    3.027300
     18          1           0       -1.571926    0.304059    2.713554
     19          7           0       -1.189927    4.748878    1.325476
     20          6           0       -1.614714    5.987713    0.718974
     21          6           0       -2.570314    5.826963   -0.465715
     22          8           0       -3.494679    6.624908   -0.599630
     23          6           0       -0.304267    6.686647    0.370092
     24          6           0       -0.389289    8.172530    0.029912
     25          6           0       -0.454582    9.026209    1.292238
     26          6           0       -0.445884   10.527342    1.007591
     27          7           0       -0.146449   11.359003    2.177240
     28          1           0       -0.177903    4.693453    1.356049
     29          1           0       -2.155198    6.626898    1.415981
     30          1           0        0.063202    6.195660   -0.529407
     31          1           0        0.340996    6.579798    1.235436
     32          1           0       -1.351995    8.203427   -0.480522
     33          1           0        0.363202    8.481484   -0.700022
     34          1           0        0.430390    8.770514    1.874943
     35          1           0       -1.351556    8.789003    1.851945
     36          1           0       -1.358138   10.768105    0.457022
     37          1           0        0.284309   10.622474    0.202937
     38          1           0       -0.875213   11.157602    2.846598
     39          1           0        0.722756   11.082193    2.612278
     40          1           0       -0.032018   12.353414    2.089199
     41          7           0       -2.443047    4.731491   -1.215211
     42          6           0       -3.433332    4.381990   -2.212098
     43          6           0       -4.758841    3.695332   -1.895192
     44          8           0       -5.660319    3.784337   -2.737400
     45          6           0       -2.738519    3.592650   -3.308399
     46          6           0       -2.056926    2.272541   -2.963518
     47          8           0       -2.573790    1.159362   -3.222524
     48          8           0       -0.903168    2.242576   -2.502058
     49          1           0       -1.585764    4.210729   -1.109028
     50          1           0       -3.725327    5.235778   -2.816320
     51          1           0       -2.022135    4.308398   -3.718154
     52          1           0       -3.381694    3.477044   -4.188207
     53          7           0       -4.857309    2.998792   -0.765220
     54          6           0       -6.144741    2.584465   -0.227212
     55          6           0       -6.617299    1.205503   -0.671679
     56          8           0       -7.761702    0.868424   -0.374660
     57          1           0       -4.008572    2.979987   -0.215228
     58          1           0       -6.854652    3.385007   -0.439248
     59          1           0       -6.046368    2.511791    0.849422
     60          7           0       -5.790234    0.403733   -1.350303
     61          6           0       -6.283711   -0.869095   -1.819225
     62          6           0       -6.397212   -1.930452   -0.722166
     63          8           0       -7.093900   -2.920528   -0.902374
     64          6           0       -5.476097   -1.317381   -3.028481
     65          6           0       -4.230119   -2.149918   -2.730957
     66          7           0       -4.017193   -3.287773   -3.390085
     67          8           0       -3.423092   -1.786551   -1.876983
     68          1           0       -4.807390    0.578341   -1.474111
     69          1           0       -7.317895   -0.702679   -2.121993
     70          1           0       -5.330453   -0.479560   -3.704235
     71          1           0       -6.070721   -2.036830   -3.581307
     72          1           0       -4.625913   -3.714677   -4.067885
     73          1           0       -3.121425   -3.744357   -3.283643
     74          7           0       -5.727793   -1.728746    0.406636
     75          6           0       -5.833935   -2.641941    1.535223
     76          6           0       -4.538266   -3.361055    1.865399
     77          8           0       -4.512582   -4.246247    2.720604
     78          1           0       -5.236671   -0.852100    0.552550
     79          1           0       -6.524090   -3.439310    1.282067
     80          1           0       -6.197209   -2.069194    2.401590
     81          7           0       -3.442422   -2.909411    1.244317
     82          6           0       -2.171094   -3.594234    1.327044
     83          6           0       -0.958824   -2.663383    1.344872
     84          8           0       -0.888483   -1.764177    0.509239
     85          6           0       -1.909396   -4.631841    0.239346
     86          6           0       -2.728106   -5.871499    0.499275
     87          6           0       -2.359275   -6.797825    1.483542
     88          6           0       -3.839840   -6.155212   -0.296311
     89          6           0       -2.974288   -8.056180    1.590311
     90          6           0       -4.680764   -7.223009    0.061957
     91          6           0       -4.191078   -8.239926    0.901354
     92          8           0       -4.830611   -9.449105    0.960368
     93          1           0       -3.469614   -2.055790    0.715457
     94          1           0       -2.181196   -4.090665    2.288945
     95          1           0       -0.855345   -4.877024    0.117848
     96          1           0       -2.137855   -4.173063   -0.730978
     97          1           0       -1.466402   -6.578252    2.044850
     98          1           0       -4.042435   -5.537838   -1.164760
     99          1           0       -2.550368   -8.910771    2.094558
    100          1           0       -5.606631   -7.366805   -0.473480
    101          1           0       -5.545689   -9.382353    0.328301
    102          7           0        0.071928   -2.932631    2.157064
    103          6           0        1.383884   -2.319640    2.030919
    104          6           0        2.271783   -3.269635    1.241713
    105          8           0        2.422499   -4.448893    1.556092
    106          6           0        1.909885   -2.036159    3.436928
    107          6           0        1.028182   -1.036739    4.185900
    108          6           0        3.307387   -1.474140    3.229028
    109          6           0        1.295327   -0.913148    5.683718
    110          1           0       -0.094926   -3.658023    2.835936
    111          1           0        1.297299   -1.386668    1.476061
    112          1           0        1.791935   -2.943282    4.041756
    113          1           0       -0.033725   -1.241167    4.141601
    114          1           0        1.181868   -0.092154    3.659935
    115          1           0        3.803443   -1.304911    4.189336
    116          1           0        4.008030   -2.097758    2.675223
    117          1           0        3.225397   -0.581036    2.603534
    118          1           0        2.316749   -0.616643    5.916915
    119          1           0        0.634658   -0.144649    6.096060
    120          1           0        1.072463   -1.847371    6.199333
    121          7           0        2.969289   -2.702272    0.249098
    122          6           0        3.999069   -3.388520   -0.490035
    123          6           0        5.382058   -2.932593   -0.050066
    124          8           0        5.594079   -1.940653    0.646858
    125          6           0        3.845307   -3.059729   -1.973899
    126          8           0        4.174766   -1.747351   -2.378896
    127          1           0        2.840307   -1.711087    0.064934
    128          1           0        3.844865   -4.467908   -0.462797
    129          1           0        2.827106   -3.226781   -2.330916
    130          1           0        4.459675   -3.740556   -2.559071
    131          1           0        3.355811   -1.320580   -2.651803
    132          7           0        6.418011   -3.520285   -0.644809
    133          6           0        7.820967   -3.171930   -0.455698
    134          6           0        8.198125   -1.800321   -1.004279
    135          8           0        8.864052   -1.077587   -0.277370
    136          6           0        8.714086   -4.266242   -1.008799
    137          1           0        6.200650   -4.166050   -1.384566
    138          1           0        7.996325   -3.078855    0.620168
    139          1           0        8.203229   -5.228584   -0.925004
    140          1           0        9.011616   -4.026071   -2.032466
    141          1           0        9.672767   -4.307257   -0.481590
    142          7           0        7.812525   -1.411482   -2.221413
    143          6           0        8.081583   -0.084243   -2.739241
    144          6           0        7.389268    1.091725   -2.064854
    145          8           0        7.976069    2.167064   -2.050342
    146          6           0        7.833729   -0.026168   -4.242070
    147          1           0        7.409255   -2.098901   -2.852070
    148          1           0        9.132120    0.123219   -2.528926
    149          1           0        8.206738   -0.920940   -4.751920
    150          1           0        6.804722    0.211710   -4.488566
    151          1           0        8.318353    0.887470   -4.576145
    152          7           0        6.327159    0.709879   -1.357806
    153          6           0        5.547704    1.519565   -0.448378
    154          6           0        6.205172    1.736897    0.901586
    155          8           0        6.358974    2.820398    1.460934
    156          6           0        4.091547    1.058551   -0.336694
    157          6           0        3.194038    1.212138   -1.556279
    158          6           0        1.858645    0.485298   -1.397131
    159          8           0        1.029033    0.626940   -0.473507
    160          8           0        1.546980   -0.287046   -2.319330
    161          1           0        6.052435   -0.259558   -1.400465
    162          1           0        5.425810    2.492155   -0.940120
    163          1           0        3.708413    1.499617    0.588546
    164          1           0        4.219053    0.024057   -0.012094
    165          1           0        3.799522    0.883580   -2.396064
    166          1           0        3.041097    2.289038   -1.658720
    167          7           0        6.774556    0.676340    1.483411
    168          6           0        7.640013    0.804008    2.638437
    169          1           0        8.677375    0.861361    2.309142
    170          1           0        7.382643    1.709989    3.187565
    171          1           0        7.512177   -0.063390    3.286315
    172          1           0        6.634408   -0.238380    1.088764
    173         20           0       -1.055873   -0.470705   -1.695531
    174          8           0       -0.202425   -3.071840   -2.129841
    175          1           0        0.194127   -3.751242   -1.586095
    176          1           0       -0.713277   -3.551312   -2.780100
 ---------------------------------------------------------------------

 SCF Done:  E(RB3LYP) =  -5333.55256776     A.U. after   20 cycles

 The electronic state is 1-A.
 Alpha  occ. eigenvalues -- -145.33521 -19.18175 -19.14799 -19.13385 -19.12178
 Alpha  occ. eigenvalues --  -19.10689 -19.10436 -19.09891 -19.09445 -19.08692
 Alpha  occ. eigenvalues --  -19.08530 -19.07755 -19.07143 -19.05358 -19.04628
 Alpha  occ. eigenvalues --  -19.04455 -19.03922 -19.03912 -19.03641 -19.03390
 Alpha  occ. eigenvalues --  -19.02320 -19.01471 -19.01226 -19.01183 -15.39267
 Alpha  occ. eigenvalues --  -14.60952 -14.37644 -14.37015 -14.36039 -14.36022
 Alpha  occ. eigenvalues --  -14.35927 -14.34833 -14.34297 -14.33436 -14.32803
 Alpha  occ. eigenvalues --  -14.31714 -14.30110 -14.29465 -14.29250 -14.28447
 Alpha  occ. eigenvalues --  -12.52881 -12.52848 -12.52822 -10.36184 -10.30547
 Alpha  occ. eigenvalues --  -10.29766 -10.28859 -10.28741 -10.28324 -10.28133
 Alpha  occ. eigenvalues --  -10.27434 -10.27202 -10.26986 -10.25709 -10.25234
 Alpha  occ. eigenvalues --  -10.25077 -10.24651 -10.24563 -10.24193 -10.24130
 Alpha  occ. eigenvalues --  -10.23556 -10.23346 -10.23306 -10.22757 -10.22596
 Alpha  occ. eigenvalues --  -10.22571 -10.22436 -10.22263 -10.21950 -10.21808
 Alpha  occ. eigenvalues --  -10.21646 -10.20970 -10.20905 -10.20259 -10.19666
 Alpha  occ. eigenvalues --  -10.19403 -10.19306 -10.19087 -10.18926 -10.18887
 Alpha  occ. eigenvalues --  -10.18309 -10.18099 -10.17876 -10.17682 -10.17635
 Alpha  occ. eigenvalues --  -10.17623 -10.17559 -10.17449 -10.17434 -10.17327
 Alpha  occ. eigenvalues --  -10.17248 -10.17017 -10.16613 -10.15792 -10.15142
 Alpha  occ. eigenvalues --  -10.15128 -10.14186  -1.76137  -1.16028  -1.05522
 Alpha  occ. eigenvalues --   -1.04569  -1.04104  -1.03974  -1.03611  -1.03404
 Alpha  occ. eigenvalues --   -1.03209  -1.03173  -1.02984  -1.02535  -1.02531
 Alpha  occ. eigenvalues --   -1.01616  -1.01579  -1.00880  -0.99809  -0.99441
 Alpha  occ. eigenvalues --   -0.98401  -0.97979  -0.97470  -0.96889  -0.96822
 Alpha  occ. eigenvalues --   -0.96606  -0.96083  -0.94381  -0.92747  -0.92704
 Alpha  occ. eigenvalues --   -0.92573  -0.92454  -0.91323  -0.90515  -0.90436
 Alpha  occ. eigenvalues --   -0.89995  -0.89940  -0.89011  -0.88167  -0.87162
 Alpha  occ. eigenvalues --   -0.86079  -0.86077  -0.85803  -0.85246  -0.85066
 Alpha  occ. eigenvalues --   -0.83324  -0.83291  -0.81695  -0.80574  -0.77710
 Alpha  occ. eigenvalues --   -0.77429  -0.77412  -0.76857  -0.75731  -0.75448
 Alpha  occ. eigenvalues --   -0.75442  -0.75373  -0.74557  -0.74016  -0.73660
 Alpha  occ. eigenvalues --   -0.72583  -0.71737  -0.71660  -0.70131  -0.69870
 Alpha  occ. eigenvalues --   -0.69425  -0.68599  -0.67671  -0.67591  -0.66045
 Alpha  occ. eigenvalues --   -0.65705  -0.65259  -0.64560  -0.64197  -0.64103
 Alpha  occ. eigenvalues --   -0.63844  -0.63477  -0.63001  -0.61565  -0.61107
 Alpha  occ. eigenvalues --   -0.60564  -0.60141  -0.59928  -0.59627  -0.59059
 Alpha  occ. eigenvalues --   -0.59039  -0.58391  -0.57716  -0.57609  -0.57550
 Alpha  occ. eigenvalues --   -0.57283  -0.57221  -0.56681  -0.56630  -0.56361
 Alpha  occ. eigenvalues --   -0.55748  -0.55251  -0.54454  -0.53941  -0.53886
 Alpha  occ. eigenvalues --   -0.53668  -0.53434  -0.53024  -0.52833  -0.52711
 Alpha  occ. eigenvalues --   -0.52422  -0.52055  -0.51348  -0.51149  -0.50663
 Alpha  occ. eigenvalues --   -0.50598  -0.50311  -0.49907  -0.49448  -0.49077
 Alpha  occ. eigenvalues --   -0.48949  -0.48895  -0.48546  -0.48086  -0.47784
 Alpha  occ. eigenvalues --   -0.47674  -0.47453  -0.47229  -0.46862  -0.46744
 Alpha  occ. eigenvalues --   -0.46437  -0.46230  -0.46083  -0.45962  -0.45581
 Alpha  occ. eigenvalues --   -0.45433  -0.45238  -0.45160  -0.44962  -0.44475
 Alpha  occ. eigenvalues --   -0.44338  -0.44281  -0.44053  -0.43913  -0.43796
 Alpha  occ. eigenvalues --   -0.43401  -0.43300  -0.43039  -0.42903  -0.42891
 Alpha  occ. eigenvalues --   -0.42335  -0.42179  -0.41995  -0.41928  -0.41823
 Alpha  occ. eigenvalues --   -0.41608  -0.41521  -0.41457  -0.41371  -0.41107
 Alpha  occ. eigenvalues --   -0.40977  -0.40932  -0.40722  -0.40560  -0.40483
 Alpha  occ. eigenvalues --   -0.40134  -0.40034  -0.40016  -0.39940  -0.39889
 Alpha  occ. eigenvalues --   -0.39624  -0.39406  -0.39328  -0.39295  -0.39234
 Alpha  occ. eigenvalues --   -0.39009  -0.38907  -0.38641  -0.38606  -0.38374
 Alpha  occ. eigenvalues --   -0.38306  -0.38232  -0.38036  -0.37919  -0.37823
 Alpha  occ. eigenvalues --   -0.37715  -0.37516  -0.37493  -0.37152  -0.37065
 Alpha  occ. eigenvalues --   -0.37021  -0.36894  -0.36854  -0.36763  -0.36705
 Alpha  occ. eigenvalues --   -0.36412  -0.36240  -0.36024  -0.35969  -0.35663
 Alpha  occ. eigenvalues --   -0.35237  -0.35127  -0.35060  -0.34870  -0.34657
 Alpha  occ. eigenvalues --   -0.34406  -0.34384  -0.34213  -0.34056  -0.33941
 Alpha  occ. eigenvalues --   -0.33802  -0.33594  -0.33519  -0.33140  -0.32615
 Alpha  occ. eigenvalues --   -0.32322  -0.32281  -0.32150  -0.32096  -0.31688
 Alpha  occ. eigenvalues --   -0.31636  -0.31533  -0.31354  -0.31066  -0.30869
 Alpha  occ. eigenvalues --   -0.30498  -0.30045  -0.29453  -0.29363  -0.29020
 Alpha  occ. eigenvalues --   -0.28944  -0.27929  -0.27534  -0.27150  -0.27013
 Alpha  occ. eigenvalues --   -0.26518  -0.26249  -0.26073  -0.26047  -0.25200
 Alpha  occ. eigenvalues --   -0.25037  -0.24907  -0.24490  -0.23958  -0.23774
 Alpha  occ. eigenvalues --   -0.23719  -0.23239  -0.23013  -0.22811  -0.22705
 Alpha  occ. eigenvalues --   -0.22520  -0.22357  -0.21818  -0.21732  -0.20725
 Alpha  occ. eigenvalues --   -0.20678  -0.20324  -0.20280  -0.20260  -0.19777
 Alpha  occ. eigenvalues --   -0.19700  -0.19371  -0.19151  -0.18802  -0.18601
 Alpha  occ. eigenvalues --   -0.18362  -0.16669  -0.16346
 Alpha virt. eigenvalues --   -0.12238  -0.06314  -0.05896  -0.02217  -0.02180
 Alpha virt. eigenvalues --   -0.01038  -0.00561   0.00462   0.00625   0.00987
 Alpha virt. eigenvalues --    0.01056   0.01429   0.01476   0.01641   0.01820

 Mulliken charges:
               1
     1  C    0.079690
     2  C    0.034982
     3  O   -0.312931
     4  H    0.057667
     5  H    0.016423
     6  H    0.000679
     7  N   -0.147014
     8  C    0.098307
     9  C    0.068292
    10  O   -0.271995
    11  C    0.105446
    12  C    0.111756
    13  O   -0.395096
    14  O   -0.461657
    15  H    0.109158
    16  H    0.080724
    17  H   -0.006462
    18  H   -0.001769
    19  N   -0.108806
    20  C    0.092570
    21  C    0.050234
    22  O   -0.279795
    23  C    0.017470
    24  C    0.028120
    25  C   -0.069011
    26  C    0.031052
    27  N    0.098603
    28  H    0.140793
    29  H   -0.013083
    30  H    0.041959
    31  H    0.000273
    32  H    0.028277
    33  H    0.022268
    34  H    0.013898
    35  H    0.044296
    36  H    0.091414
    37  H    0.066420
    38  H    0.197270
    39  H    0.187366
    40  H    0.191255
    41  N   -0.110825
    42  C    0.127384
    43  C    0.059755
    44  O   -0.294245
    45  C    0.072785
    46  C    0.108634
    47  O   -0.442776
    48  O   -0.394704
    49  H    0.136452
    50  H    0.000045
    51  H   -0.024336
    52  H    0.005688
    53  N   -0.168563
    54  C    0.251019
    55  C    0.061293
    56  O   -0.307456
    57  H    0.162731
    58  H    0.020088
    59  H    0.025926
    60  N   -0.152901
    61  C    0.138211
    62  C    0.030852
    63  O   -0.299473
    64  C    0.106630
    65  C    0.062556
    66  N   -0.035870
    67  O   -0.322855
    68  H    0.149999
    69  H    0.022039
    70  H    0.068452
    71  H   -0.021350
    72  H    0.130962
    73  H    0.106128
    74  N   -0.188958
    75  C    0.245610
    76  C    0.024593
    77  O   -0.296755
    78  H    0.158810
    79  H    0.031364
    80  H    0.039770
    81  N   -0.151751
    82  C    0.136730
    83  C    0.099971
    84  O   -0.355661
    85  C    0.148796
    86  C   -0.034470
    87  C    0.043998
    88  C   -0.007171
    89  C   -0.002188
    90  C   -0.010183
    91  C    0.126721
    92  O   -0.193856
    93  H    0.159757
    94  H   -0.014330
    95  H   -0.020414
    96  H   -0.049829
    97  H   -0.040218
    98  H   -0.046401
    99  H   -0.025523
   100  H   -0.038368
   101  H    0.166278
   102  N   -0.122150
   103  C    0.126209
   104  C    0.062170
   105  O   -0.283870
   106  C   -0.075703
   107  C   -0.008989
   108  C    0.062533
   109  C    0.040242
   110  H    0.130248
   111  H    0.029944
   112  H   -0.019286
   113  H    0.006348
   114  H   -0.011172
   115  H    0.003285
   116  H    0.026258
   117  H    0.017016
   118  H    0.006228
   119  H   -0.000707
   120  H    0.007934
   121  N   -0.142711
   122  C    0.108074
   123  C    0.131798
   124  O   -0.277718
   125  C    0.194580
   126  O   -0.334380
   127  H    0.170800
   128  H    0.024922
   129  H    0.002043
   130  H   -0.026500
   131  H    0.183485
   132  N   -0.120739
   133  C    0.090468
   134  C    0.039133
   135  O   -0.250408
   136  C    0.046923
   137  H    0.106114
   138  H    0.021959
   139  H    0.024162
   140  H    0.007985
   141  H    0.041011
   142  N   -0.137307
   143  C    0.067206
   144  C    0.071163
   145  O   -0.261637
   146  C    0.051852
   147  H    0.108393
   148  H    0.025315
   149  H    0.012263
   150  H    0.015747
   151  H    0.028861
   152  N   -0.147746
   153  C    0.127876
   154  C    0.064443
   155  O   -0.291900
   156  C   -0.066180
   157  C    0.159183
   158  C    0.133314
   159  O   -0.383914
   160  O   -0.454829
   161  H    0.140270
   162  H   -0.008318
   163  H    0.026575
   164  H   -0.041040
   165  H   -0.022408
   166  H    0.019417
   167  N   -0.172784
   168  C    0.138730
   169  H    0.024824
   170  H    0.024663
   171  H   -0.002625
   172  H    0.122555
   173  Ca   1.278776
   174  O   -0.250673
   175  H    0.182796
   176  H    0.161962
 Sum of Mulliken charges =  -0.00000

 Dipole moment (field-independent basis, Debye):
    X=             14.4257    Y=             27.5213    Z=              5.3803  Tot=             31.5352
 Quadrupole moment (field-independent basis, Debye-Ang):
   XX=           -771.5474   YY=            -54.7319   ZZ=           -512.5047
   XY=            -38.7803   XZ=             -7.4720   YZ=            179.8300

 ESP charges:
               1
     1  C   -0.409417
     2  C    0.840884
     3  O   -0.645817
     4  H    0.127003
     5  H    0.104016
     6  H    0.090127
     7  N   -0.930170
     8  C    0.792998
     9  C    0.447134
    10  O   -0.490996
    11  C   -0.642600
    12  C    0.892717
    13  O   -0.670619
    14  O   -0.861372
    15  H    0.356829
    16  H   -0.001046
    17  H    0.103940
    18  H    0.172044
    19  N   -0.630878
    20  C    0.447588
    21  C    0.383527
    22  O   -0.545679
    23  C   -0.297140
    24  C    0.058854
    25  C   -0.175682
    26  C    0.213919
    27  N   -0.503077
    28  H    0.288125
    29  H   -0.021193
    30  H    0.111021
    31  H    0.085105
    32  H    0.014195
    33  H    0.045218
    34  H    0.052001
    35  H    0.070494
    36  H    0.060103
    37  H    0.033777
    38  H    0.353528
    39  H    0.359251
    40  H    0.371990
    41  N   -0.323300
    42  C    0.146161
    43  C    0.344581
    44  O   -0.543761
    45  C   -0.302477
    46  C    0.870041
    47  O   -0.814156
    48  O   -0.767332
    49  H    0.219183
    50  H    0.076968
    51  H    0.050003
    52  H    0.100450
    53  N    0.094794
    54  C   -0.462315
    55  C    0.695088
    56  O   -0.589536
    57  H    0.073991
    58  H    0.168531
    59  H    0.177856
    60  N   -0.435625
    61  C    0.180401
    62  C    0.297084
    63  O   -0.549729
    64  C   -0.322360
    65  C    0.725516
    66  N   -0.831274
    67  O   -0.570241
    68  H    0.231977
    69  H    0.075324
    70  H    0.147274
    71  H    0.068920
    72  H    0.390629
    73  H    0.354661
    74  N    0.208924
    75  C   -0.539874
    76  C    0.863183
    77  O   -0.592960
    78  H    0.083760
    79  H    0.181529
    80  H    0.154641
    81  N   -0.877230
    82  C    0.713480
    83  C    0.422555
    84  O   -0.546619
    85  C   -0.128012
    86  C   -0.015261
    87  C   -0.081606
    88  C   -0.255997
    89  C   -0.228661
    90  C   -0.187269
    91  C    0.319191
    92  O   -0.507908
    93  H    0.357928
    94  H   -0.074712
    95  H    0.015068
    96  H    0.005703
    97  H    0.088707
    98  H    0.166042
    99  H    0.151330
   100  H    0.122848
   101  H    0.373465
   102  N   -0.763248
   103  C    0.119392
   104  C    0.519327
   105  O   -0.562881
   106  C    0.212722
   107  C    0.211699
   108  C   -0.539761
   109  C   -0.314533
   110  H    0.361127
   111  H    0.121582
   112  H   -0.011495
   113  H   -0.014186
   114  H   -0.021594
   115  H    0.136677
   116  H    0.133852
   117  H    0.105131
   118  H    0.061847
   119  H    0.065373
   120  H    0.074178
   121  N    0.003172
   122  C   -0.349118
   123  C    0.639884
   124  O   -0.466306
   125  C    0.326447
   126  O   -0.619378
   127  H    0.001310
   128  H    0.130938
   129  H   -0.015802
   130  H   -0.012821
   131  H    0.417538
   132  N   -0.548790
   133  C    0.247521
   134  C    0.508436
   135  O   -0.552428
   136  C   -0.289589
   137  H    0.299667
   138  H    0.045538
   139  H    0.081853
   140  H    0.053076
   141  H    0.104239
   142  N   -0.366612
   143  C    0.075179
   144  C    0.434287
   145  O   -0.517035
   146  C   -0.354785
   147  H    0.275881
   148  H    0.081994
   149  H    0.090611
   150  H    0.101765
   151  H    0.112985
   152  N    0.150125
   153  C   -0.704180
   154  C    0.725739
   155  O   -0.581096
   156  C    0.412330
   157  C   -0.281381
   158  C    0.911490
   159  O   -0.737102
   160  O   -0.821855
   161  H    0.015871
   162  H    0.177309
   163  H   -0.025374
   164  H   -0.139226
   165  H    0.033241
   166  H    0.091673
   167  N   -0.236602
   168  C   -0.250319
   169  H    0.112290
   170  H    0.105598
   171  H    0.079161
   172  H    0.242607
   173  Ca   1.637684
   174  O   -0.744744
   175  H    0.395145
   176  H    0.376482
 Sum of ESP charges =  -0.00000

 Normal termination of Gaussian 16 at Sat Sep 14 23:56:39 2019.
