 Gaussian 16, Revision A.03,
 Gaussian 16:  ES64L-G16RevA.03 25-Dec-2016

 ----------------------------------------------------------------------
 #b3lyp/svp scf=(tight,noincore) Test #IOP(5/87=12) Density=Current Pop
 =(MK,readradii) iop(6/33=2) iop(6/42=6)
 ----------------------------------------------------------------------

 -----------------
 CaMKII_loop3_72.0
 -----------------
 Symbolic Z-matrix:
 Charge =  0 Multiplicity = 1

                         Standard orientation:
 ---------------------------------------------------------------------
 Center     Atomic      Atomic             Coordinates (Angstroms)
 Number     Number       Type             X           Y           Z
 ---------------------------------------------------------------------
      1          6           0        2.082773    1.985038    5.837794
      2          6           0        1.636738    1.807326    4.391602
      3          8           0        2.460746    1.694788    3.490244
      4          1           0        1.235492    1.815086    6.501592
      5          1           0        2.871838    1.268867    6.066118
      6          1           0        2.458459    2.998177    5.980447
      7          7           0        0.332345    1.869736    4.142474
      8          6           0       -0.267487    1.973365    2.832641
      9          6           0       -0.059159    3.370184    2.259582
     10          8           0       -0.486538    4.348338    2.862957
     11          6           0       -1.737251    1.568119    2.984200
     12          6           0       -2.433199    1.503028    1.633193
     13          8           0       -3.635555    1.158014    1.564603
     14          8           0       -1.766751    1.567020    0.577848
     15          1           0       -0.193443    1.823564    5.002889
     16          1           0        0.204648    1.251498    2.167512
     17          1           0       -2.139233    2.364483    3.607751
     18          1           0       -1.798984    0.668983    3.604396
     19          7           0        0.530307    3.512892    1.068673
     20          6           0        1.056821    4.761360    0.552620
     21          6           0        0.064457    5.454657   -0.382234
     22          8           0        0.388379    6.550633   -0.832692
     23          6           0        2.397089    4.465676   -0.116074
     24          6           0        3.409444    5.601762   -0.020956
     25          6           0        4.616064    5.281148   -0.899690
     26          6           0        5.811265    6.225731   -0.742979
     27          7           0        6.782692    5.903618   -1.795154
     28          1           0        0.786363    2.667681    0.585192
     29          1           0        1.273563    5.495988    1.323039
     30          1           0        2.122537    4.155837   -1.124846
     31          1           0        2.925293    3.704247    0.457099
     32          1           0        3.758123    5.688275    1.008577
     33          1           0        2.914864    6.529859   -0.279659
     34          1           0        4.299803    5.475916   -1.923723
     35          1           0        4.998044    4.260143   -0.934908
     36          1           0        6.340546    6.072692    0.200547
     37          1           0        5.463076    7.251772   -0.600836
     38          1           0        7.681288    6.303579   -1.582653
     39          1           0        6.884985    4.914107   -1.937996
     40          1           0        6.442129    6.332382   -2.642962
     41          7           0       -1.131201    4.931160   -0.689567
     42          6           0       -2.250777    5.417304   -1.462233
     43          6           0       -3.595608    4.956880   -0.934181
     44          8           0       -4.621853    5.140132   -1.584596
     45          6           0       -2.070516    4.922482   -2.891274
     46          6           0       -1.906612    3.426088   -3.128849
     47          8           0       -2.349818    2.546232   -2.355337
     48          8           0       -1.163596    3.128718   -4.081949
     49          1           0       -1.195631    4.003874   -0.304744
     50          1           0       -2.261831    6.511972   -1.453247
     51          1           0       -1.192349    5.324533   -3.392550
     52          1           0       -2.902424    5.281312   -3.502885
     53          7           0       -3.682776    4.426439    0.289270
     54          6           0       -4.932149    4.217628    0.986669
     55          6           0       -5.976287    3.327649    0.328860
     56          8           0       -7.134416    3.347089    0.742575
     57          1           0       -2.827800    4.319769    0.814379
     58          1           0       -5.352275    5.224316    0.960732
     59          1           0       -4.683441    3.926787    2.013195
     60          7           0       -5.627100    2.481276   -0.644136
     61          6           0       -6.499847    1.532536   -1.288810
     62          6           0       -6.946305    0.417512   -0.360102
     63          8           0       -7.935096   -0.264581   -0.612177
     64          6           0       -5.763533    1.066561   -2.543285
     65          6           0       -4.956139   -0.213735   -2.407067
     66          7           0       -5.158896   -1.238412   -3.226229
     67          8           0       -3.963277   -0.242469   -1.680431
     68          1           0       -4.644381    2.535141   -0.900187
     69          1           0       -7.421858    1.998600   -1.653475
     70          1           0       -5.073646    1.790719   -2.953469
     71          1           0       -6.554909    1.010942   -3.307177
     72          1           0       -6.000424   -1.321077   -3.784079
     73          1           0       -4.567996   -2.060783   -3.142296
     74          7           0       -6.125878    0.161783    0.664593
     75          6           0       -6.401834   -0.780112    1.734211
     76          6           0       -5.475825   -1.977088    1.837437
     77          8           0       -5.871856   -2.992331    2.402275
     78          1           0       -5.222685    0.606669    0.606982
     79          1           0       -7.362144   -1.247196    1.554662
     80          1           0       -6.458529   -0.226671    2.673460
     81          7           0       -4.373967   -2.009615    1.079248
     82          6           0       -3.332394   -3.020248    1.025883
     83          6           0       -1.948491   -2.393216    1.037845
     84          8           0       -1.740089   -1.261853    0.585753
     85          6           0       -3.550790   -3.960001   -0.153340
     86          6           0       -4.889233   -4.593093   -0.450603
     87          6           0       -5.060235   -5.955065   -0.170618
     88          6           0       -5.929623   -3.835067   -0.994556
     89          6           0       -6.323984   -6.473920   -0.459458
     90          6           0       -7.206742   -4.368498   -1.204599
     91          6           0       -7.431437   -5.733230   -0.921545
     92          8           0       -8.625949   -6.322430   -1.202765
     93          1           0       -4.083305   -1.142485    0.655691
     94          1           0       -3.394797   -3.619945    1.936140
     95          1           0       -2.845398   -4.795782   -0.131145
     96          1           0       -3.303324   -3.417755   -1.070744
     97          1           0       -4.265044   -6.599270    0.161149
     98          1           0       -5.761452   -2.765254   -1.098089
     99          1           0       -6.384281   -7.521022   -0.207778
    100          1           0       -7.970047   -3.681935   -1.526928
    101          1           0       -9.370507   -5.757081   -1.436461
    102          7           0       -0.955530   -3.120497    1.561670
    103          6           0        0.467369   -2.871223    1.590323
    104          6           0        1.187710   -3.854476    0.666406
    105          8           0        0.865226   -5.036869    0.673435
    106          6           0        1.035957   -2.945104    2.999348
    107          6           0        0.392758   -1.862560    3.863346
    108          6           0        2.515068   -2.572285    3.014705
    109          6           0        0.498961   -2.244357    5.345086
    110          1           0       -1.223963   -4.022669    1.919062
    111          1           0        0.654683   -1.832067    1.305424
    112          1           0        0.983862   -3.958931    3.391830
    113          1           0       -0.652754   -1.728021    3.581382
    114          1           0        0.831081   -0.883819    3.679663
    115          1           0        2.820536   -1.553003    2.758869
    116          1           0        2.941772   -2.741464    4.006372
    117          1           0        3.092870   -3.220853    2.341723
    118          1           0        1.545729   -2.148684    5.627968
    119          1           0       -0.104464   -1.604642    5.985432
    120          1           0        0.220653   -3.291479    5.464587
    121          7           0        2.263470   -3.381318    0.036675
    122          6           0        3.078321   -4.233342   -0.810126
    123          6           0        4.565594   -3.987432   -0.570654
    124          8           0        4.920037   -3.205327    0.305521
    125          6           0        2.639458   -3.954615   -2.241737
    126          8           0        2.834208   -2.570925   -2.445143
    127          1           0        2.474258   -2.393179   -0.013818
    128          1           0        2.757156   -5.234434   -0.519323
    129          1           0        1.587296   -4.222231   -2.317482
    130          1           0        3.143482   -4.572578   -2.972341
    131          1           0        2.387367   -2.312022   -3.252300
    132          7           0        5.415765   -4.593020   -1.392527
    133          6           0        6.822765   -4.663747   -1.050112
    134          6           0        7.497729   -3.299743   -1.113490
    135          8           0        8.195452   -2.834513   -0.218648
    136          6           0        7.449080   -5.822584   -1.821945
    137          1           0        5.066545   -5.103096   -2.193381
    138          1           0        6.971952   -4.950658   -0.001672
    139          1           0        7.306657   -5.701521   -2.901185
    140          1           0        8.525454   -5.831241   -1.668827
    141          1           0        7.041764   -6.805169   -1.588024
    142          7           0        7.290188   -2.610421   -2.234455
    143          6           0        7.688974   -1.214754   -2.343914
    144          6           0        7.133528   -0.174771   -1.384062
    145          8           0        7.803660    0.769025   -0.965048
    146          6           0        7.278709   -0.764743   -3.740257
    147          1           0        6.754643   -2.953620   -3.017019
    148          1           0        8.772037   -1.123803   -2.342564
    149          1           0        6.290335   -1.102642   -4.033926
    150          1           0        7.251620    0.324290   -3.821333
    151          1           0        7.994676   -1.201093   -4.444452
    152          7           0        5.836210   -0.284025   -1.077419
    153          6           0        5.329450    0.492691    0.041244
    154          6           0        5.939439    0.267109    1.419078
    155          8           0        6.107374    1.247180    2.142858
    156          6           0        3.814390    0.333059    0.207708
    157          6           0        3.202028    0.770862   -1.118581
    158          6           0        1.694799    0.583589   -1.002858
    159          8           0        1.137202   -0.457125   -0.583097
    160          8           0        1.008288    1.562164   -1.348246
    161          1           0        5.189333   -0.883655   -1.562077
    162          1           0        5.447948    1.545200   -0.230018
    163          1           0        3.418931    0.927930    1.024800
    164          1           0        3.529127   -0.701766    0.412064
    165          1           0        3.584650   -0.000848   -1.797966
    166          1           0        3.510669    1.766489   -1.437902
    167          7           0        6.327247   -0.971133    1.713973
    168          6           0        6.904133   -1.309100    2.998138
    169          1           0        7.703532   -0.606272    3.233334
    170          1           0        6.134602   -1.253675    3.768346
    171          1           0        7.309499   -2.320276    2.960585
    172          1           0        5.934790   -1.680736    1.117617
    173         20           0       -1.294525    0.316347   -1.570947
    174          8           0       -1.199634   -2.014422   -2.821070
    175          1           0       -0.396155   -2.066246   -3.342834
    176          1           0       -1.802406   -2.614510   -3.251373
 ---------------------------------------------------------------------

 SCF Done:  E(RB3LYP) =  -5333.55280905     A.U. after   18 cycles

 The electronic state is 1-A.
 Alpha  occ. eigenvalues -- -145.36656 -19.21647 -19.18725 -19.14675 -19.14494
 Alpha  occ. eigenvalues --  -19.12121 -19.10944 -19.10816 -19.10730 -19.10324
 Alpha  occ. eigenvalues --  -19.07606 -19.06930 -19.06685 -19.06573 -19.06515
 Alpha  occ. eigenvalues --  -19.05908 -19.05200 -19.05078 -19.04672 -19.03536
 Alpha  occ. eigenvalues --  -19.02909 -19.02414 -19.01673 -18.99731 -15.42416
 Alpha  occ. eigenvalues --  -14.58063 -14.40460 -14.38564 -14.36935 -14.36214
 Alpha  occ. eigenvalues --  -14.36013 -14.35826 -14.33284 -14.32362 -14.32001
 Alpha  occ. eigenvalues --  -14.31552 -14.31430 -14.30828 -14.29542 -14.29539
 Alpha  occ. eigenvalues --  -12.56023 -12.55994 -12.55975 -10.33660 -10.32763
 Alpha  occ. eigenvalues --  -10.30836 -10.29938 -10.29555 -10.29078 -10.28772
 Alpha  occ. eigenvalues --  -10.28300 -10.27037 -10.26166 -10.26152 -10.26102
 Alpha  occ. eigenvalues --  -10.25926 -10.25466 -10.25288 -10.25022 -10.24929
 Alpha  occ. eigenvalues --  -10.24425 -10.24034 -10.23636 -10.23607 -10.23240
 Alpha  occ. eigenvalues --  -10.22711 -10.22606 -10.22516 -10.22395 -10.22241
 Alpha  occ. eigenvalues --  -10.21980 -10.21563 -10.21488 -10.20351 -10.20258
 Alpha  occ. eigenvalues --  -10.20083 -10.19882 -10.19521 -10.18969 -10.18668
 Alpha  occ. eigenvalues --  -10.18667 -10.18640 -10.18304 -10.18171 -10.18145
 Alpha  occ. eigenvalues --  -10.18127 -10.17847 -10.17603 -10.17464 -10.17263
 Alpha  occ. eigenvalues --  -10.17051 -10.17023 -10.16730 -10.16687 -10.16280
 Alpha  occ. eigenvalues --  -10.15663 -10.12644  -1.79228  -1.13483  -1.08013
 Alpha  occ. eigenvalues --   -1.07943  -1.06780  -1.06690  -1.06584  -1.06153
 Alpha  occ. eigenvalues --   -1.05279  -1.03984  -1.03882  -1.03583  -1.02963
 Alpha  occ. eigenvalues --   -1.02781  -1.02207  -1.00587  -0.99704  -0.99393
 Alpha  occ. eigenvalues --   -0.99012  -0.98674  -0.98306  -0.97887  -0.97437
 Alpha  occ. eigenvalues --   -0.97210  -0.96471  -0.95801  -0.95035  -0.93439
 Alpha  occ. eigenvalues --   -0.92717  -0.92504  -0.91708  -0.91184  -0.90101
 Alpha  occ. eigenvalues --   -0.89665  -0.88985  -0.88973  -0.88496  -0.87785
 Alpha  occ. eigenvalues --   -0.87294  -0.86801  -0.86576  -0.85739  -0.85476
 Alpha  occ. eigenvalues --   -0.83300  -0.82960  -0.81557  -0.80494  -0.80164
 Alpha  occ. eigenvalues --   -0.78933  -0.78333  -0.77333  -0.76271  -0.76040
 Alpha  occ. eigenvalues --   -0.74820  -0.73872  -0.73601  -0.72667  -0.72566
 Alpha  occ. eigenvalues --   -0.72037  -0.71880  -0.71779  -0.70599  -0.70541
 Alpha  occ. eigenvalues --   -0.69773  -0.69257  -0.68632  -0.68269  -0.67941
 Alpha  occ. eigenvalues --   -0.66625  -0.66547  -0.65246  -0.64887  -0.64006
 Alpha  occ. eigenvalues --   -0.63369  -0.63158  -0.62708  -0.61994  -0.61652
 Alpha  occ. eigenvalues --   -0.61535  -0.61053  -0.60922  -0.60611  -0.60267
 Alpha  occ. eigenvalues --   -0.60021  -0.59852  -0.59325  -0.57930  -0.57732
 Alpha  occ. eigenvalues --   -0.57318  -0.57236  -0.56669  -0.55992  -0.55800
 Alpha  occ. eigenvalues --   -0.55761  -0.55346  -0.55143  -0.55077  -0.54248
 Alpha  occ. eigenvalues --   -0.54179  -0.54110  -0.54018  -0.53317  -0.53184
 Alpha  occ. eigenvalues --   -0.52970  -0.52887  -0.52693  -0.52038  -0.51162
 Alpha  occ. eigenvalues --   -0.51058  -0.50518  -0.50161  -0.49978  -0.49181
 Alpha  occ. eigenvalues --   -0.49123  -0.48901  -0.48684  -0.48376  -0.48047
 Alpha  occ. eigenvalues --   -0.47953  -0.47881  -0.47493  -0.47412  -0.47303
 Alpha  occ. eigenvalues --   -0.47157  -0.46891  -0.46773  -0.46582  -0.46483
 Alpha  occ. eigenvalues --   -0.46454  -0.45917  -0.45759  -0.45602  -0.45450
 Alpha  occ. eigenvalues --   -0.45382  -0.44787  -0.44569  -0.44483  -0.44387
 Alpha  occ. eigenvalues --   -0.44214  -0.43827  -0.43783  -0.43525  -0.43474
 Alpha  occ. eigenvalues --   -0.43306  -0.43123  -0.43012  -0.42906  -0.42879
 Alpha  occ. eigenvalues --   -0.42666  -0.42650  -0.42435  -0.42157  -0.42056
 Alpha  occ. eigenvalues --   -0.41825  -0.41802  -0.41594  -0.41337  -0.41159
 Alpha  occ. eigenvalues --   -0.40883  -0.40796  -0.40678  -0.40554  -0.40448
 Alpha  occ. eigenvalues --   -0.39982  -0.39734  -0.39699  -0.39592  -0.39520
 Alpha  occ. eigenvalues --   -0.39404  -0.39331  -0.39153  -0.39038  -0.38957
 Alpha  occ. eigenvalues --   -0.38832  -0.38773  -0.38616  -0.38382  -0.38271
 Alpha  occ. eigenvalues --   -0.38237  -0.38050  -0.37986  -0.37770  -0.37728
 Alpha  occ. eigenvalues --   -0.37463  -0.37361  -0.37221  -0.37069  -0.36862
 Alpha  occ. eigenvalues --   -0.36815  -0.36697  -0.36651  -0.36408  -0.36089
 Alpha  occ. eigenvalues --   -0.35807  -0.35698  -0.35534  -0.35349  -0.35007
 Alpha  occ. eigenvalues --   -0.34902  -0.34829  -0.34685  -0.34599  -0.34335
 Alpha  occ. eigenvalues --   -0.34288  -0.34021  -0.33885  -0.33763  -0.33449
 Alpha  occ. eigenvalues --   -0.33181  -0.33093  -0.32649  -0.32638  -0.32272
 Alpha  occ. eigenvalues --   -0.32119  -0.32083  -0.31905  -0.31764  -0.31539
 Alpha  occ. eigenvalues --   -0.31255  -0.30978  -0.30470  -0.30175  -0.30000
 Alpha  occ. eigenvalues --   -0.29607  -0.29480  -0.29036  -0.27713  -0.27592
 Alpha  occ. eigenvalues --   -0.27339  -0.27149  -0.26842  -0.26415  -0.26251
 Alpha  occ. eigenvalues --   -0.25700  -0.25420  -0.25145  -0.24940  -0.24259
 Alpha  occ. eigenvalues --   -0.24133  -0.23463  -0.23249  -0.23110  -0.22917
 Alpha  occ. eigenvalues --   -0.22821  -0.22679  -0.22598  -0.22112  -0.22027
 Alpha  occ. eigenvalues --   -0.21925  -0.21315  -0.20709  -0.20612  -0.20405
 Alpha  occ. eigenvalues --   -0.20110  -0.19715  -0.19610  -0.19239  -0.19000
 Alpha  occ. eigenvalues --   -0.18598  -0.17322  -0.15864
 Alpha virt. eigenvalues --   -0.09670  -0.05607  -0.04110  -0.03502  -0.02860
 Alpha virt. eigenvalues --   -0.01629  -0.01265  -0.00191  -0.00051   0.00245
 Alpha virt. eigenvalues --    0.00480   0.00578   0.01046   0.01527   0.02142

 Mulliken charges:
               1
     1  C    0.067870
     2  C    0.008393
     3  O   -0.293128
     4  H   -0.010155
     5  H    0.031924
     6  H    0.046665
     7  N   -0.121625
     8  C    0.132504
     9  C    0.053550
    10  O   -0.292503
    11  C    0.029033
    12  C    0.174315
    13  O   -0.383757
    14  O   -0.455723
    15  H    0.113686
    16  H   -0.000788
    17  H    0.001622
    18  H    0.009460
    19  N   -0.143886
    20  C    0.157070
    21  C    0.041870
    22  O   -0.313358
    23  C   -0.010566
    24  C    0.046919
    25  C   -0.065898
    26  C    0.019363
    27  N    0.092466
    28  H    0.153529
    29  H    0.012099
    30  H    0.045019
    31  H    0.030511
    32  H    0.011142
    33  H    0.023063
    34  H    0.010199
    35  H    0.032830
    36  H    0.067436
    37  H    0.087358
    38  H    0.188433
    39  H    0.199242
    40  H    0.191069
    41  N   -0.136766
    42  C    0.167765
    43  C    0.031621
    44  O   -0.289453
    45  C    0.076085
    46  C    0.094678
    47  O   -0.462104
    48  O   -0.378878
    49  H    0.150390
    50  H    0.019148
    51  H   -0.005979
    52  H    0.012296
    53  N   -0.154307
    54  C    0.230543
    55  C    0.049300
    56  O   -0.303074
    57  H    0.121286
    58  H    0.013800
    59  H    0.039299
    60  N   -0.145415
    61  C    0.131829
    62  C    0.050025
    63  O   -0.291416
    64  C    0.108570
    65  C    0.046066
    66  N   -0.035179
    67  O   -0.340096
    68  H    0.161493
    69  H    0.020043
    70  H    0.062365
    71  H   -0.010150
    72  H    0.133279
    73  H    0.116910
    74  N   -0.198679
    75  C    0.252369
    76  C    0.029145
    77  O   -0.297526
    78  H    0.159344
    79  H    0.030155
    80  H    0.034459
    81  N   -0.155046
    82  C    0.126702
    83  C    0.117100
    84  O   -0.325588
    85  C    0.163587
    86  C   -0.028051
    87  C   -0.005398
    88  C   -0.003449
    89  C   -0.039820
    90  C   -0.066563
    91  C    0.234777
    92  O   -0.212047
    93  H    0.151983
    94  H   -0.005650
    95  H   -0.025246
    96  H   -0.065952
    97  H   -0.039797
    98  H   -0.021661
    99  H   -0.035310
   100  H   -0.031027
   101  H    0.183738
   102  N   -0.108062
   103  C    0.138107
   104  C    0.094980
   105  O   -0.297666
   106  C   -0.093858
   107  C    0.012409
   108  C    0.010467
   109  C    0.049689
   110  H    0.120164
   111  H    0.039594
   112  H   -0.016894
   113  H   -0.000363
   114  H    0.022976
   115  H    0.035545
   116  H   -0.006528
   117  H    0.002588
   118  H   -0.000921
   119  H    0.004823
   120  H    0.001640
   121  N   -0.151306
   122  C    0.068713
   123  C    0.121083
   124  O   -0.257101
   125  C    0.210650
   126  O   -0.289554
   127  H    0.166887
   128  H    0.039513
   129  H    0.001346
   130  H   -0.022331
   131  H    0.166680
   132  N   -0.130373
   133  C    0.079646
   134  C    0.073536
   135  O   -0.238457
   136  C    0.041943
   137  H    0.119606
   138  H    0.028242
   139  H   -0.005693
   140  H    0.039005
   141  H    0.038355
   142  N   -0.116873
   143  C    0.110893
   144  C    0.086457
   145  O   -0.275058
   146  C   -0.000629
   147  H    0.100225
   148  H    0.013813
   149  H    0.001276
   150  H    0.022860
   151  H    0.027425
   152  N   -0.160264
   153  C    0.142008
   154  C    0.062249
   155  O   -0.285357
   156  C   -0.081191
   157  C    0.146596
   158  C    0.085068
   159  O   -0.400459
   160  O   -0.403312
   161  H    0.119028
   162  H   -0.040750
   163  H    0.057795
   164  H   -0.000254
   165  H   -0.050975
   166  H   -0.021914
   167  N   -0.153867
   168  C    0.153252
   169  H    0.024626
   170  H    0.015975
   171  H    0.012660
   172  H    0.135549
   173  Ca   1.280957
   174  O   -0.278230
   175  H    0.175969
   176  H    0.187602
 Sum of Mulliken charges =  -0.00000

 Dipole moment (field-independent basis, Debye):
    X=             35.0978    Y=             -3.3163    Z=            -16.7869  Tot=             39.0468
 Quadrupole moment (field-independent basis, Debye-Ang):
   XX=           -540.4797   YY=           -480.1169   ZZ=           -511.9841
   XY=            132.3823   XZ=            -60.0165   YZ=             28.3415

 ESP charges:
               1
     1  C   -0.425292
     2  C    0.806177
     3  O   -0.622498
     4  H    0.075560
     5  H    0.117818
     6  H    0.133154
     7  N   -0.788462
     8  C    0.272051
     9  C    0.728615
    10  O   -0.606858
    11  C   -0.385648
    12  C    0.900709
    13  O   -0.723549
    14  O   -0.865606
    15  H    0.375415
    16  H    0.025964
    17  H    0.082243
    18  H    0.114877
    19  N   -0.488342
    20  C   -0.181809
    21  C    0.632272
    22  O   -0.589181
    23  C    0.320045
    24  C   -0.193794
    25  C   -0.115182
    26  C    0.271663
    27  N   -0.616833
    28  H    0.235842
    29  H    0.108818
    30  H   -0.005088
    31  H    0.017874
    32  H    0.060002
    33  H    0.062625
    34  H    0.038961
    35  H    0.025298
    36  H    0.039067
    37  H    0.042504
    38  H    0.381584
    39  H    0.418336
    40  H    0.372236
    41  N   -0.528995
    42  C   -0.008237
    43  C    0.415832
    44  O   -0.516881
    45  C   -0.113365
    46  C    0.839715
    47  O   -0.883407
    48  O   -0.733614
    49  H    0.416597
    50  H    0.123163
    51  H    0.049853
    52  H    0.020666
    53  N   -0.125864
    54  C   -0.374485
    55  C    0.627772
    56  O   -0.572155
    57  H    0.161148
    58  H    0.139268
    59  H    0.169726
    60  N   -0.395542
    61  C    0.052096
    62  C    0.370401
    63  O   -0.562496
    64  C   -0.199636
    65  C    0.621144
    66  N   -0.818568
    67  O   -0.494960
    68  H    0.318890
    69  H    0.104243
    70  H    0.126907
    71  H    0.063598
    72  H    0.375841
    73  H    0.365508
    74  N    0.079611
    75  C   -0.324332
    76  C    0.520922
    77  O   -0.550741
    78  H    0.084415
    79  H    0.155953
    80  H    0.122035
    81  N   -0.081357
    82  C    0.016006
    83  C    0.534945
    84  O   -0.419594
    85  C    0.228997
    86  C   -0.084763
    87  C   -0.109194
    88  C   -0.141976
    89  C   -0.314836
    90  C   -0.377279
    91  C    0.534946
    92  O   -0.628320
    93  H    0.000942
    94  H    0.017980
    95  H   -0.041010
    96  H   -0.100405
    97  H    0.128944
    98  H    0.195126
    99  H    0.151414
   100  H    0.152680
   101  H    0.441766
   102  N   -0.605604
   103  C   -0.073332
   104  C    0.614785
   105  O   -0.562596
   106  C    0.108082
   107  C    0.162262
   108  C   -0.168234
   109  C   -0.380960
   110  H    0.332077
   111  H    0.107298
   112  H    0.028700
   113  H    0.004091
   114  H    0.020881
   115  H    0.032708
   116  H    0.051943
   117  H   -0.011724
   118  H    0.080410
   119  H    0.090987
   120  H    0.079435
   121  N   -0.288783
   122  C   -0.080806
   123  C    0.645456
   124  O   -0.467003
   125  C    0.041054
   126  O   -0.546641
   127  H    0.308752
   128  H    0.089293
   129  H    0.063771
   130  H    0.029623
   131  H    0.397160
   132  N   -0.654127
   133  C    0.298352
   134  C    0.486399
   135  O   -0.517202
   136  C   -0.326335
   137  H    0.343358
   138  H    0.039255
   139  H    0.066305
   140  H    0.105076
   141  H    0.111772
   142  N   -0.554509
   143  C    0.411194
   144  C    0.133239
   145  O   -0.475275
   146  C   -0.438240
   147  H    0.300878
   148  H    0.043334
   149  H    0.093299
   150  H    0.128130
   151  H    0.105885
   152  N    0.064867
   153  C   -0.332903
   154  C    0.540015
   155  O   -0.560098
   156  C    0.124804
   157  C   -0.399153
   158  C    0.807959
   159  O   -0.741425
   160  O   -0.707763
   161  H    0.134871
   162  H    0.130489
   163  H    0.077580
   164  H   -0.034696
   165  H    0.052223
   166  H    0.083598
   167  N   -0.062928
   168  C   -0.238766
   169  H    0.106997
   170  H    0.082308
   171  H    0.091593
   172  H    0.138796
   173  Ca   1.550029
   174  O   -0.850515
   175  H    0.416255
   176  H    0.443386
 Sum of ESP charges =   0.00000

 Normal termination of Gaussian 16 at Sat Sep 14 23:56:59 2019.
