 Gaussian 16, Revision A.03,
 Gaussian 16:  ES64L-G16RevA.03 25-Dec-2016

 ----------------------------------------------------------------------
 #b3lyp/svp scf=(tight,noincore) Test #IOP(5/87=12) Density=Current Pop
 =(MK,readradii) iop(6/33=2) iop(6/42=6)
 ----------------------------------------------------------------------

 -----------------
 CaMKII_loop3_49.0
 -----------------
 Symbolic Z-matrix:
 Charge =  0 Multiplicity = 1

                         Standard orientation:
 ---------------------------------------------------------------------
 Center     Atomic      Atomic             Coordinates (Angstroms)
 Number     Number       Type             X           Y           Z
 ---------------------------------------------------------------------
      1          6           0        1.960588    3.675830    3.631531
      2          6           0        0.935762    3.236990    2.591074
      3          8           0        1.215074    3.487678    1.416919
      4          1           0        2.956693    3.374410    3.308577
      5          1           0        1.927343    4.760003    3.740158
      6          1           0        1.731844    3.206488    4.587964
      7          7           0       -0.246290    2.735468    2.942827
      8          6           0       -1.281969    2.440810    1.969408
      9          6           0       -1.948363    3.754206    1.569649
     10          8           0       -3.079608    4.063043    1.927567
     11          6           0       -2.201797    1.404471    2.608406
     12          6           0       -3.291986    1.063810    1.610239
     13          8           0       -2.999403    0.946355    0.396155
     14          8           0       -4.435664    0.748679    2.011853
     15          1           0       -0.454643    2.434967    3.883565
     16          1           0       -0.767872    2.095931    1.069983
     17          1           0       -2.776370    1.771002    3.463404
     18          1           0       -1.645027    0.510577    2.898166
     19          7           0       -1.233567    4.607779    0.837064
     20          6           0       -1.698848    5.935976    0.467867
     21          6           0       -2.909567    5.808880   -0.455716
     22          8           0       -3.903304    6.508597   -0.315063
     23          6           0       -0.559352    6.686603   -0.208748
     24          6           0        0.444053    7.325878    0.744722
     25          6           0        1.523754    8.069271   -0.045349
     26          6           0        2.427338    8.873419    0.870009
     27          7           0        3.155453    7.959207    1.769711
     28          1           0       -0.386070    4.248837    0.433569
     29          1           0       -1.998084    6.511728    1.333642
     30          1           0       -1.049395    7.488382   -0.749033
     31          1           0       -0.003438    6.069304   -0.924221
     32          1           0        0.913360    6.525409    1.316125
     33          1           0       -0.182196    8.082138    1.227509
     34          1           0        1.003800    8.811822   -0.648064
     35          1           0        2.072284    7.312401   -0.618466
     36          1           0        1.853839    9.610578    1.433744
     37          1           0        3.169522    9.416342    0.290874
     38          1           0        3.790293    8.384109    2.438393
     39          1           0        2.464995    7.568192    2.392987
     40          1           0        3.695235    7.205659    1.383443
     41          7           0       -2.727500    4.888297   -1.404335
     42          6           0       -3.802549    4.561799   -2.312668
     43          6           0       -5.049251    3.964153   -1.672158
     44          8           0       -6.102294    4.253521   -2.238256
     45          6           0       -3.367385    3.608778   -3.419051
     46          6           0       -2.550496    2.384764   -3.032032
     47          8           0       -2.837382    1.271338   -3.510549
     48          8           0       -1.625969    2.595778   -2.215929
     49          1           0       -1.873267    4.340879   -1.355137
     50          1           0       -4.141048    5.435732   -2.864267
     51          1           0       -2.766550    4.203153   -4.113829
     52          1           0       -4.219816    3.302627   -4.035275
     53          7           0       -5.098725    3.291180   -0.510238
     54          6           0       -6.229389    2.721933    0.177481
     55          6           0       -6.667874    1.377751   -0.382705
     56          8           0       -7.854189    1.063184   -0.433730
     57          1           0       -4.210607    3.023158   -0.125645
     58          1           0       -7.096605    3.379329    0.134282
     59          1           0       -6.075172    2.698637    1.254966
     60          7           0       -5.836704    0.614733   -1.098219
     61          6           0       -6.225592   -0.696861   -1.581735
     62          6           0       -6.018839   -1.692860   -0.444353
     63          8           0       -6.431534   -2.830591   -0.632902
     64          6           0       -5.434169   -1.013941   -2.840627
     65          6           0       -4.088766   -1.684951   -2.613167
     66          7           0       -3.788557   -2.760552   -3.347984
     67          8           0       -3.398334   -1.354133   -1.649599
     68          1           0       -4.845193    0.662164   -0.905458
     69          1           0       -7.256871   -0.771330   -1.931618
     70          1           0       -5.403531   -0.144048   -3.502780
     71          1           0       -6.020884   -1.750804   -3.386977
     72          1           0       -4.247910   -2.752342   -4.242538
     73          1           0       -3.021842   -3.373146   -3.110126
     74          7           0       -5.541764   -1.349946    0.752523
     75          6           0       -5.687958   -2.196015    1.927978
     76          6           0       -4.497335   -3.136031    2.034696
     77          8           0       -4.690481   -4.229821    2.565846
     78          1           0       -5.088360   -0.455770    0.843483
     79          1           0       -6.607793   -2.764199    2.052358
     80          1           0       -5.508327   -1.556364    2.792026
     81          7           0       -3.325851   -2.642094    1.599093
     82          6           0       -2.098985   -3.408642    1.671242
     83          6           0       -0.878818   -2.500304    1.578424
     84          8           0       -0.968710   -1.416846    0.990855
     85          6           0       -1.934557   -4.431806    0.548078
     86          6           0       -2.794105   -5.672507    0.496712
     87          6           0       -2.572693   -6.812966    1.280376
     88          6           0       -3.805472   -5.743507   -0.457069
     89          6           0       -3.301120   -7.999469    1.085937
     90          6           0       -4.615453   -6.871323   -0.653693
     91          6           0       -4.370123   -7.996121    0.161318
     92          8           0       -5.105567   -9.119019   -0.030834
     93          1           0       -3.285356   -1.804390    1.031633
     94          1           0       -1.980438   -3.994056    2.575088
     95          1           0       -0.916112   -4.827546    0.555706
     96          1           0       -2.059439   -3.854235   -0.375727
     97          1           0       -1.698895   -6.887132    1.913997
     98          1           0       -4.050144   -4.950335   -1.141987
     99          1           0       -3.168649   -8.901616    1.658896
    100          1           0       -5.462549   -6.844842   -1.322145
    101          1           0       -5.646447   -9.026021   -0.822604
    102          7           0        0.237487   -2.917231    2.169554
    103          6           0        1.623125   -2.508830    2.015237
    104          6           0        2.336073   -3.556889    1.168669
    105          8           0        2.213177   -4.740265    1.477244
    106          6           0        2.274245   -2.264047    3.370790
    107          6           0        1.553199   -1.097415    4.043073
    108          6           0        3.790981   -2.146745    3.319306
    109          6           0        2.200113   -0.783714    5.392922
    110          1           0        0.247556   -3.860441    2.546984
    111          1           0        1.577889   -1.517419    1.544856
    112          1           0        2.074847   -3.117137    4.009757
    113          1           0        0.487892   -1.296687    4.173883
    114          1           0        1.655931   -0.194981    3.440448
    115          1           0        4.207812   -2.177665    4.321452
    116          1           0        4.281848   -2.961767    2.787339
    117          1           0        4.070937   -1.219070    2.820864
    118          1           0        3.160030   -0.271596    5.332963
    119          1           0        1.670218   -0.036254    5.978853
    120          1           0        2.329744   -1.738557    5.892294
    121          7           0        2.981819   -3.040911    0.124697
    122          6           0        3.981748   -3.735614   -0.661197
    123          6           0        5.366788   -3.134902   -0.525142
    124          8           0        5.425486   -1.957689   -0.159595
    125          6           0        3.505407   -3.693456   -2.114821
    126          8           0        3.072766   -2.464140   -2.650923
    127          1           0        3.026686   -2.030398    0.099194
    128          1           0        4.113766   -4.791562   -0.403429
    129          1           0        2.706072   -4.416187   -2.263561
    130          1           0        4.313477   -4.072600   -2.733345
    131          1           0        2.602953   -1.988890   -1.962074
    132          7           0        6.478636   -3.824221   -0.767488
    133          6           0        7.832686   -3.312889   -0.776867
    134          6           0        8.103262   -1.896486   -1.253932
    135          8           0        8.677024   -1.151221   -0.456263
    136          6           0        8.778079   -4.271213   -1.481953
    137          1           0        6.392609   -4.830100   -0.866019
    138          1           0        8.067748   -3.413365    0.290256
    139          1           0        8.406901   -4.486892   -2.481858
    140          1           0        9.816001   -3.931529   -1.579080
    141          1           0        8.777269   -5.245302   -0.978714
    142          7           0        7.558513   -1.472376   -2.390014
    143          6           0        7.774579   -0.123255   -2.868435
    144          6           0        7.206500    1.003560   -2.018626
    145          8           0        7.986573    1.901910   -1.697297
    146          6           0        7.172056    0.031899   -4.266289
    147          1           0        7.147233   -2.211364   -2.951125
    148          1           0        8.857102   -0.076780   -2.894571
    149          1           0        7.687889   -0.550614   -5.022791
    150          1           0        6.096864   -0.182565   -4.311749
    151          1           0        7.295608    1.053887   -4.631905
    152          7           0        5.995043    0.904171   -1.484872
    153          6           0        5.342203    1.855081   -0.594158
    154          6           0        5.755571    1.639759    0.847287
    155          8           0        5.697582    2.566924    1.643717
    156          6           0        3.841600    1.831468   -0.825095
    157          6           0        3.251797    0.496265   -0.393857
    158          6           0        1.785226    0.299538   -0.778004
    159          8           0        1.427326   -0.794998   -1.256436
    160          8           0        0.971552    1.247428   -0.646713
    161          1           0        5.434035    0.103937   -1.763971
    162          1           0        5.717858    2.850224   -0.838848
    163          1           0        3.599548    2.085489   -1.855136
    164          1           0        3.326475    2.581433   -0.219786
    165          1           0        3.320911    0.375348    0.688872
    166          1           0        3.681477   -0.294318   -1.006191
    167          7           0        6.373133    0.513429    1.229123
    168          6           0        7.070218    0.428509    2.494216
    169          1           0        8.126532    0.227329    2.314179
    170          1           0        6.966682    1.371964    3.030155
    171          1           0        6.644052   -0.377488    3.090954
    172          1           0        6.379507   -0.269721    0.597906
    173         20           0       -1.206235    0.051878   -1.494891
    174          8           0       -0.881746   -2.499272   -2.263879
    175          1           0       -0.323557   -3.249779   -2.065979
    176          1           0       -1.057749   -2.563835   -3.194714
 ---------------------------------------------------------------------

 SCF Done:  E(RB3LYP) =  -5333.56649322     A.U. after   20 cycles

 The electronic state is 1-A.
 Alpha  occ. eigenvalues -- -145.37384 -19.18547 -19.14040 -19.13583 -19.12912
 Alpha  occ. eigenvalues --  -19.12018 -19.11300 -19.11200 -19.10657 -19.10278
 Alpha  occ. eigenvalues --  -19.08738 -19.08706 -19.07957 -19.07827 -19.06879
 Alpha  occ. eigenvalues --  -19.06386 -19.05376 -19.05267 -19.04986 -19.04485
 Alpha  occ. eigenvalues --  -19.03551 -19.02837 -19.02575 -19.02470 -15.43068
 Alpha  occ. eigenvalues --  -14.58479 -14.40407 -14.38193 -14.37825 -14.36564
 Alpha  occ. eigenvalues --  -14.36456 -14.36418 -14.35515 -14.33560 -14.33127
 Alpha  occ. eigenvalues --  -14.31835 -14.31266 -14.29185 -14.28461 -14.28450
 Alpha  occ. eigenvalues --  -12.56707 -12.56640 -12.56637 -10.35727 -10.32357
 Alpha  occ. eigenvalues --  -10.30443 -10.30180 -10.29554 -10.29405 -10.29378
 Alpha  occ. eigenvalues --  -10.28070 -10.27946 -10.26722 -10.26695 -10.26573
 Alpha  occ. eigenvalues --  -10.26565 -10.26309 -10.25427 -10.25098 -10.24894
 Alpha  occ. eigenvalues --  -10.24791 -10.24008 -10.23975 -10.23607 -10.23231
 Alpha  occ. eigenvalues --  -10.23050 -10.22855 -10.22583 -10.22543 -10.22291
 Alpha  occ. eigenvalues --  -10.22187 -10.22084 -10.22039 -10.21602 -10.21596
 Alpha  occ. eigenvalues --  -10.21416 -10.20968 -10.20352 -10.20300 -10.19221
 Alpha  occ. eigenvalues --  -10.19144 -10.19057 -10.18938 -10.18733 -10.18440
 Alpha  occ. eigenvalues --  -10.18219 -10.18032 -10.17533 -10.17241 -10.17118
 Alpha  occ. eigenvalues --  -10.16883 -10.16549 -10.16460 -10.16331 -10.16329
 Alpha  occ. eigenvalues --  -10.16247 -10.14852  -1.79772  -1.13958  -1.07458
 Alpha  occ. eigenvalues --   -1.07242  -1.07199  -1.07111  -1.04841  -1.04796
 Alpha  occ. eigenvalues --   -1.04440  -1.03627  -1.03447  -1.03357  -1.02981
 Alpha  occ. eigenvalues --   -1.02737  -1.02140  -1.01483  -1.01430  -1.01194
 Alpha  occ. eigenvalues --   -0.99908  -0.99118  -0.98527  -0.97882  -0.97171
 Alpha  occ. eigenvalues --   -0.96813  -0.96342  -0.95733  -0.94780  -0.94680
 Alpha  occ. eigenvalues --   -0.93684  -0.92848  -0.92255  -0.92183  -0.91494
 Alpha  occ. eigenvalues --   -0.91380  -0.90379  -0.89889  -0.89050  -0.88958
 Alpha  occ. eigenvalues --   -0.88151  -0.88093  -0.86484  -0.85306  -0.84615
 Alpha  occ. eigenvalues --   -0.83163  -0.83046  -0.82459  -0.82329  -0.80175
 Alpha  occ. eigenvalues --   -0.79070  -0.78067  -0.77936  -0.77207  -0.76355
 Alpha  occ. eigenvalues --   -0.74991  -0.74706  -0.74040  -0.73380  -0.73130
 Alpha  occ. eigenvalues --   -0.72527  -0.72261  -0.71764  -0.71133  -0.70458
 Alpha  occ. eigenvalues --   -0.69625  -0.69134  -0.68746  -0.68301  -0.67690
 Alpha  occ. eigenvalues --   -0.67257  -0.66821  -0.65333  -0.65008  -0.64540
 Alpha  occ. eigenvalues --   -0.64128  -0.63224  -0.62999  -0.62530  -0.61965
 Alpha  occ. eigenvalues --   -0.61696  -0.61110  -0.60887  -0.60713  -0.60009
 Alpha  occ. eigenvalues --   -0.59642  -0.59544  -0.58560  -0.58217  -0.58173
 Alpha  occ. eigenvalues --   -0.58001  -0.57739  -0.56874  -0.56375  -0.56061
 Alpha  occ. eigenvalues --   -0.55894  -0.55791  -0.55622  -0.55464  -0.54912
 Alpha  occ. eigenvalues --   -0.53942  -0.53758  -0.53366  -0.53311  -0.53167
 Alpha  occ. eigenvalues --   -0.52758  -0.52559  -0.52423  -0.52343  -0.51654
 Alpha  occ. eigenvalues --   -0.51302  -0.50958  -0.50866  -0.50720  -0.50177
 Alpha  occ. eigenvalues --   -0.49862  -0.49539  -0.49138  -0.48944  -0.48885
 Alpha  occ. eigenvalues --   -0.48789  -0.48191  -0.48152  -0.48084  -0.47675
 Alpha  occ. eigenvalues --   -0.47447  -0.47375  -0.46637  -0.46464  -0.46413
 Alpha  occ. eigenvalues --   -0.46127  -0.46029  -0.45821  -0.45615  -0.45564
 Alpha  occ. eigenvalues --   -0.45284  -0.45198  -0.44973  -0.44737  -0.44567
 Alpha  occ. eigenvalues --   -0.44522  -0.44355  -0.44312  -0.43863  -0.43697
 Alpha  occ. eigenvalues --   -0.43572  -0.43427  -0.43362  -0.43249  -0.43176
 Alpha  occ. eigenvalues --   -0.42822  -0.42622  -0.42442  -0.42299  -0.42271
 Alpha  occ. eigenvalues --   -0.42062  -0.41875  -0.41775  -0.41550  -0.41366
 Alpha  occ. eigenvalues --   -0.41288  -0.41185  -0.41031  -0.41003  -0.40785
 Alpha  occ. eigenvalues --   -0.40678  -0.40574  -0.40504  -0.40268  -0.40210
 Alpha  occ. eigenvalues --   -0.40140  -0.39990  -0.39849  -0.39480  -0.39382
 Alpha  occ. eigenvalues --   -0.39325  -0.39260  -0.39156  -0.38936  -0.38827
 Alpha  occ. eigenvalues --   -0.38761  -0.38734  -0.38601  -0.38484  -0.38271
 Alpha  occ. eigenvalues --   -0.37793  -0.37755  -0.37672  -0.37306  -0.37177
 Alpha  occ. eigenvalues --   -0.37150  -0.37054  -0.36866  -0.36779  -0.36580
 Alpha  occ. eigenvalues --   -0.36470  -0.36325  -0.36129  -0.35820  -0.35711
 Alpha  occ. eigenvalues --   -0.35462  -0.35147  -0.35071  -0.34741  -0.34598
 Alpha  occ. eigenvalues --   -0.34545  -0.34434  -0.34389  -0.34253  -0.34032
 Alpha  occ. eigenvalues --   -0.33745  -0.33544  -0.33441  -0.33370  -0.33271
 Alpha  occ. eigenvalues --   -0.32536  -0.31964  -0.31665  -0.31480  -0.31018
 Alpha  occ. eigenvalues --   -0.30608  -0.30281  -0.30197  -0.30063  -0.29527
 Alpha  occ. eigenvalues --   -0.29451  -0.28880  -0.28793  -0.28747  -0.28090
 Alpha  occ. eigenvalues --   -0.27393  -0.27218  -0.27031  -0.26704  -0.26436
 Alpha  occ. eigenvalues --   -0.26335  -0.26122  -0.25906  -0.25796  -0.25256
 Alpha  occ. eigenvalues --   -0.24429  -0.23942  -0.23848  -0.23405  -0.23317
 Alpha  occ. eigenvalues --   -0.23256  -0.23016  -0.22965  -0.22937  -0.22857
 Alpha  occ. eigenvalues --   -0.22404  -0.22214  -0.21735  -0.21462  -0.21226
 Alpha  occ. eigenvalues --   -0.21076  -0.20738  -0.19575  -0.19068  -0.18444
 Alpha  occ. eigenvalues --   -0.18391  -0.18023  -0.17357
 Alpha virt. eigenvalues --   -0.10305  -0.04677  -0.04149  -0.02560  -0.01976
 Alpha virt. eigenvalues --   -0.01492  -0.01068  -0.00564  -0.00142   0.00231
 Alpha virt. eigenvalues --    0.00585   0.00845   0.01147   0.01414   0.01651

 Mulliken charges:
               1
     1  C    0.064743
     2  C    0.045579
     3  O   -0.316258
     4  H    0.057503
     5  H   -0.014014
     6  H    0.000380
     7  N   -0.105935
     8  C    0.046584
     9  C    0.044964
    10  O   -0.260870
    11  C    0.145291
    12  C    0.131044
    13  O   -0.466900
    14  O   -0.377590
    15  H    0.121860
    16  H    0.051204
    17  H    0.001952
    18  H    0.009334
    19  N   -0.140597
    20  C    0.156309
    21  C    0.063028
    22  O   -0.248166
    23  C    0.005076
    24  C   -0.034332
    25  C   -0.031497
    26  C    0.084806
    27  N    0.063038
    28  H    0.145038
    29  H   -0.016700
    30  H    0.014900
    31  H    0.015358
    32  H    0.002747
    33  H    0.021443
    34  H    0.049660
    35  H    0.047133
    36  H    0.073992
    37  H    0.066064
    38  H    0.182615
    39  H    0.182696
    40  H    0.198250
    41  N   -0.136508
    42  C    0.145251
    43  C    0.049739
    44  O   -0.293729
    45  C    0.072839
    46  C    0.118958
    47  O   -0.396715
    48  O   -0.436571
    49  H    0.124568
    50  H   -0.004339
    51  H   -0.006454
    52  H    0.011930
    53  N   -0.153879
    54  C    0.252865
    55  C    0.037515
    56  O   -0.298757
    57  H    0.142732
    58  H    0.011370
    59  H    0.036546
    60  N   -0.167464
    61  C    0.134930
    62  C    0.036256
    63  O   -0.308469
    64  C    0.095676
    65  C    0.078299
    66  N   -0.051031
    67  O   -0.361836
    68  H    0.128968
    69  H    0.033286
    70  H    0.063284
    71  H   -0.010966
    72  H    0.133846
    73  H    0.115728
    74  N   -0.166873
    75  C    0.284385
    76  C    0.015336
    77  O   -0.285043
    78  H    0.148178
    79  H    0.023726
    80  H    0.018529
    81  N   -0.149052
    82  C    0.131223
    83  C    0.093401
    84  O   -0.327530
    85  C    0.085325
    86  C    0.070986
    87  C    0.011102
    88  C   -0.014518
    89  C   -0.024985
    90  C   -0.052713
    91  C    0.142710
    92  O   -0.197108
    93  H    0.161174
    94  H   -0.011703
    95  H   -0.013519
    96  H   -0.025798
    97  H   -0.040072
    98  H   -0.044959
    99  H   -0.032209
   100  H   -0.037082
   101  H    0.171086
   102  N   -0.120084
   103  C    0.123209
   104  C    0.084397
   105  O   -0.276884
   106  C   -0.111486
   107  C    0.019913
   108  C    0.060983
   109  C    0.031462
   110  H    0.128988
   111  H    0.010987
   112  H   -0.015700
   113  H    0.020809
   114  H   -0.010604
   115  H    0.014180
   116  H    0.010266
   117  H    0.019148
   118  H    0.005208
   119  H   -0.004755
   120  H    0.010145
   121  N   -0.119408
   122  C    0.065705
   123  C    0.080562
   124  O   -0.298445
   125  C    0.280718
   126  O   -0.329471
   127  H    0.150827
   128  H    0.011726
   129  H   -0.013482
   130  H   -0.040879
   131  H    0.167394
   132  N   -0.104813
   133  C    0.097352
   134  C    0.064271
   135  O   -0.265357
   136  C    0.010712
   137  H    0.121289
   138  H    0.024069
   139  H    0.004913
   140  H    0.051193
   141  H    0.021352
   142  N   -0.118245
   143  C    0.125803
   144  C    0.052388
   145  O   -0.272818
   146  C    0.013720
   147  H    0.116544
   148  H    0.014771
   149  H    0.012893
   150  H    0.027944
   151  H    0.029444
   152  N   -0.141924
   153  C    0.161579
   154  C    0.048302
   155  O   -0.313136
   156  C    0.071615
   157  C   -0.020349
   158  C    0.110456
   159  O   -0.434863
   160  O   -0.396703
   161  H    0.129404
   162  H    0.005243
   163  H   -0.001604
   164  H    0.022770
   165  H    0.039286
   166  H   -0.019406
   167  N   -0.160147
   168  C    0.125409
   169  H    0.031474
   170  H    0.030054
   171  H    0.003844
   172  H    0.139267
   173  Ca   1.275843
   174  O   -0.250556
   175  H    0.185888
   176  H    0.163804
 Sum of Mulliken charges =  -0.00000

 Dipole moment (field-independent basis, Debye):
    X=             34.7877    Y=             12.6215    Z=             -0.1066  Tot=             37.0068
 Quadrupole moment (field-independent basis, Debye-Ang):
   XX=           -717.3416   YY=           -349.4040   ZZ=           -508.8434
   XY=             71.3846   XZ=             16.9387   YZ=            109.6755

 ESP charges:
               1
     1  C   -0.482150
     2  C    0.795139
     3  O   -0.577235
     4  H    0.137193
     5  H    0.096899
     6  H    0.120347
     7  N   -0.716051
     8  C    0.204221
     9  C    0.700928
    10  O   -0.531077
    11  C   -0.230887
    12  C    0.622857
    13  O   -0.639100
    14  O   -0.595102
    15  H    0.344139
    16  H    0.029537
    17  H    0.067371
    18  H    0.075278
    19  N   -0.741506
    20  C    0.251854
    21  C    0.406064
    22  O   -0.509902
    23  C   -0.218972
    24  C    0.098394
    25  C   -0.220349
    26  C    0.010919
    27  N   -0.267544
    28  H    0.448559
    29  H    0.033836
    30  H    0.091596
    31  H    0.062333
    32  H   -0.034902
    33  H    0.032794
    34  H    0.115416
    35  H    0.104699
    36  H    0.106463
    37  H    0.079612
    38  H    0.301346
    39  H    0.267790
    40  H    0.347322
    41  N   -0.491263
    42  C    0.270044
    43  C    0.306501
    44  O   -0.539473
    45  C   -0.347032
    46  C    0.819890
    47  O   -0.742389
    48  O   -0.757408
    49  H    0.299664
    50  H    0.063039
    51  H    0.074706
    52  H    0.099638
    53  N    0.114017
    54  C   -0.327265
    55  C    0.647221
    56  O   -0.593945
    57  H    0.019731
    58  H    0.132759
    59  H    0.155959
    60  N   -0.360717
    61  C    0.128259
    62  C    0.213578
    63  O   -0.507602
    64  C   -0.239906
    65  C    0.496709
    66  N   -0.677406
    67  O   -0.338776
    68  H    0.103376
    69  H    0.130974
    70  H    0.130107
    71  H    0.057017
    72  H    0.344073
    73  H    0.323728
    74  N    0.236940
    75  C   -0.437893
    76  C    0.714351
    77  O   -0.535269
    78  H   -0.018086
    79  H    0.164226
    80  H    0.144095
    81  N   -0.640073
    82  C    0.185149
    83  C    0.696581
    84  O   -0.543520
    85  C    0.218613
    86  C   -0.381816
    87  C    0.190196
    88  C    0.192114
    89  C   -0.552376
    90  C   -0.618399
    91  C    0.674734
    92  O   -0.594997
    93  H    0.328744
    94  H   -0.004397
    95  H   -0.010685
    96  H   -0.122881
    97  H    0.056761
    98  H    0.089441
    99  H    0.213119
   100  H    0.211310
   101  H    0.396838
   102  N   -0.707017
   103  C   -0.045298
   104  C    0.485276
   105  O   -0.539867
   106  C    0.161679
   107  C    0.133379
   108  C   -0.195492
   109  C   -0.340794
   110  H    0.347426
   111  H    0.089221
   112  H    0.013251
   113  H    0.014753
   114  H    0.017355
   115  H    0.063237
   116  H    0.063709
   117  H   -0.005067
   118  H    0.088351
   119  H    0.070445
   120  H    0.072037
   121  N    0.096696
   122  C   -0.447211
   123  C    0.691067
   124  O   -0.520824
   125  C    0.348452
   126  O   -0.564853
   127  H   -0.080701
   128  H    0.132344
   129  H   -0.007924
   130  H   -0.019943
   131  H    0.290499
   132  N   -0.481970
   133  C    0.109823
   134  C    0.509315
   135  O   -0.531686
   136  C   -0.388068
   137  H    0.307951
   138  H    0.084033
   139  H    0.078665
   140  H    0.143379
   141  H    0.121917
   142  N   -0.365379
   143  C    0.067868
   144  C    0.455247
   145  O   -0.536021
   146  C   -0.313418
   147  H    0.272288
   148  H    0.103627
   149  H    0.090083
   150  H    0.089736
   151  H    0.108621
   152  N   -0.243267
   153  C   -0.163425
   154  C    0.500766
   155  O   -0.600963
   156  C   -0.065986
   157  C   -0.151630
   158  C    0.749991
   159  O   -0.684541
   160  O   -0.718894
   161  H    0.175313
   162  H    0.137574
   163  H    0.059124
   164  H    0.045527
   165  H    0.077745
   166  H    0.128125
   167  N    0.016782
   168  C   -0.262589
   169  H    0.099659
   170  H    0.118870
   171  H    0.061324
   172  H    0.138596
   173  Ca   1.464925
   174  O   -0.743873
   175  H    0.415977
   176  H    0.365913
 Sum of ESP charges =  -0.00000

 Normal termination of Gaussian 16 at Wed Sep 18 16:10:38 2019.
