 Gaussian 16, Revision A.03,
 Gaussian 16:  ES64L-G16RevA.03 25-Dec-2016

 ----------------------------------------------------------------------
 #b3lyp/svp scf=(tight,noincore) Test #IOP(5/87=12) Density=Current Pop
 =(MK,readradii) iop(6/33=2) iop(6/42=6)
 ----------------------------------------------------------------------

 -----------------
 CaMKII_loop3_50.0
 -----------------
 Symbolic Z-matrix:
 Charge =  0 Multiplicity = 1

                         Standard orientation:
 ---------------------------------------------------------------------
 Center     Atomic      Atomic             Coordinates (Angstroms)
 Number     Number       Type             X           Y           Z
 ---------------------------------------------------------------------
      1          6           0        2.339178    1.275433    5.615500
      2          6           0        1.648840    1.367412    4.258933
      3          8           0        2.299471    1.278315    3.215601
      4          1           0        3.322880    1.740228    5.553760
      5          1           0        1.739951    1.792853    6.364671
      6          1           0        2.449656    0.227786    5.897226
      7          7           0        0.311946    1.375146    4.201892
      8          6           0       -0.366272    1.595178    2.941532
      9          6           0       -0.196589    2.995832    2.369716
     10          8           0       -0.977939    3.905359    2.639997
     11          6           0       -1.834659    1.312821    3.228958
     12          6           0       -2.678033    1.434755    1.969254
     13          8           0       -3.881007    1.227216    2.217210
     14          8           0       -2.173429    1.613367    0.841614
     15          1           0       -0.226578    1.373085    5.051001
     16          1           0        0.006784    0.959650    2.132438
     17          1           0       -2.317866    1.925545    3.993928
     18          1           0       -2.007595    0.300528    3.587785
     19          7           0        0.740595    3.225350    1.450364
     20          6           0        1.121496    4.483316    0.857881
     21          6           0        0.062165    5.212346    0.036582
     22          8           0       -0.092762    6.414284    0.219179
     23          6           0        2.473358    4.404464    0.146016
     24          6           0        3.122714    5.776896    0.263342
     25          6           0        4.563168    5.781679   -0.241505
     26          6           0        5.155886    7.182754   -0.344342
     27          7           0        4.392949    8.107788   -1.197769
     28          1           0        1.311821    2.416087    1.229016
     29          1           0        1.196462    5.062586    1.781042
     30          1           0        2.391032    4.221956   -0.920761
     31          1           0        3.102970    3.703866    0.690489
     32          1           0        3.038998    6.203854    1.264740
     33          1           0        2.589922    6.448186   -0.410232
     34          1           0        4.522695    5.306031   -1.222740
     35          1           0        5.159510    5.258749    0.507240
     36          1           0        6.134951    7.026738   -0.810914
     37          1           0        5.305254    7.590326    0.647260
     38          1           0        4.221840    7.722013   -2.116899
     39          1           0        3.578982    8.467967   -0.738934
     40          1           0        5.043866    8.848486   -1.406033
     41          7           0       -0.592638    4.487992   -0.880285
     42          6           0       -1.606561    5.073136   -1.724718
     43          6           0       -2.986487    5.004073   -1.081651
     44          8           0       -3.951234    5.541228   -1.600233
     45          6           0       -1.543335    4.482221   -3.134158
     46          6           0       -1.795649    2.991556   -3.288613
     47          8           0       -2.069471    2.281808   -2.294893
     48          8           0       -1.851616    2.454378   -4.414671
     49          1           0       -0.321696    3.518362   -0.987561
     50          1           0       -1.405834    6.135431   -1.786682
     51          1           0       -0.500813    4.592426   -3.454787
     52          1           0       -2.150296    5.079562   -3.813260
     53          7           0       -3.043991    4.493432    0.153030
     54          6           0       -4.284673    4.480113    0.895614
     55          6           0       -5.283082    3.416933    0.456379
     56          8           0       -6.426714    3.305401    0.885059
     57          1           0       -2.204443    4.105035    0.542399
     58          1           0       -4.746272    5.456163    0.761626
     59          1           0       -4.054497    4.410608    1.956975
     60          7           0       -4.896653    2.546962   -0.489307
     61          6           0       -5.894525    1.775753   -1.187295
     62          6           0       -6.332156    0.487550   -0.496489
     63          8           0       -6.992294   -0.411677   -1.010502
     64          6           0       -5.393935    1.391529   -2.582889
     65          6           0       -4.251395    0.383274   -2.597837
     66          7           0       -4.081172   -0.267820   -3.751483
     67          8           0       -3.751194   -0.122903   -1.597345
     68          1           0       -3.987297    2.659551   -0.900276
     69          1           0       -6.794465    2.375405   -1.349234
     70          1           0       -5.037208    2.289200   -3.078400
     71          1           0       -6.256246    1.011824   -3.137185
     72          1           0       -4.695253    0.029138   -4.495540
     73          1           0       -3.434384   -1.040040   -3.799864
     74          7           0       -6.026240    0.315506    0.793672
     75          6           0       -6.348369   -0.771271    1.690360
     76          6           0       -5.603882   -2.093962    1.544323
     77          8           0       -5.977093   -3.126727    2.078280
     78          1           0       -5.430211    1.045412    1.158620
     79          1           0       -7.421487   -0.940140    1.542030
     80          1           0       -6.159664   -0.387096    2.684241
     81          7           0       -4.426761   -2.132859    0.923942
     82          6           0       -3.513396   -3.251636    0.921778
     83          6           0       -2.085084   -2.729245    0.982027
     84          8           0       -1.820101   -1.544816    0.757723
     85          6           0       -3.508851   -4.033585   -0.382958
     86          6           0       -4.929683   -4.454156   -0.711678
     87          6           0       -5.397921   -5.704879   -0.292457
     88          6           0       -5.749010   -3.565636   -1.405459
     89          6           0       -6.737450   -6.024003   -0.500353
     90          6           0       -7.065231   -3.906302   -1.710271
     91          6           0       -7.569368   -5.127598   -1.203043
     92          8           0       -8.861281   -5.414369   -1.505734
     93          1           0       -4.075177   -1.290429    0.476617
     94          1           0       -3.665277   -3.900395    1.797132
     95          1           0       -2.825705   -4.875024   -0.409272
     96          1           0       -3.239274   -3.364394   -1.193273
     97          1           0       -4.688501   -6.327877    0.241581
     98          1           0       -5.438875   -2.540533   -1.587617
     99          1           0       -7.155997   -6.936476   -0.098966
    100          1           0       -7.741047   -3.192490   -2.155293
    101          1           0       -9.309444   -4.600213   -1.734643
    102          7           0       -1.143144   -3.571205    1.397783
    103          6           0        0.279204   -3.319072    1.463014
    104          6           0        1.031700   -4.249847    0.507448
    105          8           0        0.731224   -5.436594    0.443075
    106          6           0        0.755301   -3.481003    2.903295
    107          6           0        0.127808   -2.465136    3.847312
    108          6           0        2.258081   -3.687875    3.054815
    109          6           0        0.129176   -2.743835    5.350018
    110          1           0       -1.399503   -4.527545    1.620927
    111          1           0        0.491658   -2.291142    1.196889
    112          1           0        0.312328   -4.413856    3.253810
    113          1           0       -0.910391   -2.203022    3.615710
    114          1           0        0.688900   -1.539847    3.749761
    115          1           0        2.597242   -4.594601    2.547552
    116          1           0        2.737109   -2.829760    2.587192
    117          1           0        2.647491   -3.762723    4.077242
    118          1           0        1.171239   -2.672560    5.646708
    119          1           0       -0.328891   -1.958341    5.962940
    120          1           0       -0.285627   -3.742777    5.501187
    121          7           0        2.076333   -3.668800   -0.061786
    122          6           0        2.996971   -4.277041   -1.003204
    123          6           0        4.432437   -3.821419   -0.742729
    124          8           0        4.716127   -2.854007   -0.051690
    125          6           0        2.623803   -3.823328   -2.409295
    126          8           0        2.490458   -2.421133   -2.517784
    127          1           0        2.332746   -2.720507    0.201830
    128          1           0        3.037508   -5.363724   -1.011930
    129          1           0        1.671267   -4.261455   -2.708157
    130          1           0        3.391713   -4.217479   -3.080085
    131          1           0        2.532955   -2.104210   -3.419978
    132          7           0        5.366804   -4.666631   -1.194805
    133          6           0        6.774777   -4.610848   -0.878894
    134          6           0        7.390282   -3.264073   -1.230392
    135          8           0        8.169481   -2.821022   -0.390299
    136          6           0        7.474196   -5.717208   -1.667869
    137          1           0        5.114856   -5.547129   -1.629254
    138          1           0        6.812454   -4.772102    0.193709
    139          1           0        7.514320   -5.533085   -2.751608
    140          1           0        8.495164   -5.899653   -1.330174
    141          1           0        6.985725   -6.663073   -1.455415
    142          7           0        6.847965   -2.658814   -2.285737
    143          6           0        7.262552   -1.331753   -2.662602
    144          6           0        6.996089   -0.192562   -1.681867
    145          8           0        7.873138    0.638303   -1.445120
    146          6           0        6.751409   -1.115790   -4.084112
    147          1           0        6.146852   -3.155949   -2.835007
    148          1           0        8.343578   -1.363819   -2.826782
    149          1           0        7.409268   -0.388502   -4.549809
    150          1           0        6.765207   -2.106362   -4.531299
    151          1           0        5.686289   -0.875323   -4.117203
    152          7           0        5.740965   -0.121299   -1.225705
    153          6           0        5.374874    0.683183   -0.074842
    154          6           0        6.027336    0.375486    1.256591
    155          8           0        6.492461    1.275966    1.946298
    156          6           0        3.865625    0.590788    0.191487
    157          6           0        3.072062    1.017456   -1.037299
    158          6           0        1.576042    1.093160   -0.809280
    159          8           0        0.873339    1.950269   -1.381357
    160          8           0        1.035919    0.197767   -0.108681
    161          1           0        5.187950   -0.935604   -1.400583
    162          1           0        5.572199    1.727652   -0.304945
    163          1           0        3.567014    1.221436    1.025761
    164          1           0        3.586308   -0.446431    0.375495
    165          1           0        3.181749    0.350045   -1.884075
    166          1           0        3.383803    2.031017   -1.321751
    167          7           0        6.043119   -0.900166    1.665691
    168          6           0        6.833839   -1.323699    2.800231
    169          1           0        7.856947   -0.965984    2.683445
    170          1           0        6.408054   -0.911038    3.714489
    171          1           0        6.833780   -2.411931    2.857615
    172          1           0        5.567877   -1.599208    1.112441
    173         20           0       -1.189856    0.233825   -1.118398
    174          8           0       -0.317813   -2.192061   -1.803684
    175          1           0       -0.530224   -2.974449   -2.308214
    176          1           0        0.533508   -1.915906   -2.122576
 ---------------------------------------------------------------------

 SCF Done:  E(RB3LYP) =  -5333.56800987     A.U. after   20 cycles

 The electronic state is 1-A.
 Alpha  occ. eigenvalues -- -145.35847 -19.21347 -19.19212 -19.16890 -19.12657
 Alpha  occ. eigenvalues --  -19.12539 -19.12143 -19.10481 -19.10323 -19.09363
 Alpha  occ. eigenvalues --  -19.08295 -19.08123 -19.07926 -19.07276 -19.07165
 Alpha  occ. eigenvalues --  -19.06096 -19.03908 -19.03829 -19.03091 -19.02928
 Alpha  occ. eigenvalues --  -19.02786 -19.02481 -19.00388 -19.00170 -15.41614
 Alpha  occ. eigenvalues --  -14.58494 -14.41727 -14.39438 -14.38794 -14.36172
 Alpha  occ. eigenvalues --  -14.36090 -14.33955 -14.33874 -14.32661 -14.32354
 Alpha  occ. eigenvalues --  -14.31624 -14.30272 -14.29025 -14.28231 -14.26744
 Alpha  occ. eigenvalues --  -12.55237 -12.55194 -12.55157 -10.34964 -10.34777
 Alpha  occ. eigenvalues --  -10.31202 -10.30515 -10.30449 -10.29258 -10.29073
 Alpha  occ. eigenvalues --  -10.28711 -10.27939 -10.27261 -10.27253 -10.26909
 Alpha  occ. eigenvalues --  -10.26580 -10.25789 -10.25586 -10.25337 -10.24744
 Alpha  occ. eigenvalues --  -10.23763 -10.23442 -10.23315 -10.23019 -10.22418
 Alpha  occ. eigenvalues --  -10.22355 -10.22330 -10.21915 -10.21754 -10.21697
 Alpha  occ. eigenvalues --  -10.21639 -10.21472 -10.21455 -10.21303 -10.20867
 Alpha  occ. eigenvalues --  -10.20260 -10.19691 -10.19574 -10.18811 -10.18745
 Alpha  occ. eigenvalues --  -10.18604 -10.18598 -10.18406 -10.18378 -10.17659
 Alpha  occ. eigenvalues --  -10.17391 -10.17256 -10.17144 -10.16985 -10.16776
 Alpha  occ. eigenvalues --  -10.15965 -10.15502 -10.15445 -10.14966 -10.14928
 Alpha  occ. eigenvalues --  -10.14813 -10.13512  -1.78643  -1.13969  -1.10230
 Alpha  occ. eigenvalues --   -1.09014  -1.06671  -1.06568  -1.06084  -1.05438
 Alpha  occ. eigenvalues --   -1.05110  -1.05063  -1.03248  -1.02985  -1.02859
 Alpha  occ. eigenvalues --   -1.02252  -1.01839  -1.01138  -1.00403  -1.00159
 Alpha  occ. eigenvalues --   -0.99289  -0.99015  -0.97929  -0.97584  -0.96878
 Alpha  occ. eigenvalues --   -0.96700  -0.96393  -0.95969  -0.95883  -0.95833
 Alpha  occ. eigenvalues --   -0.93094  -0.92988  -0.92766  -0.90141  -0.89971
 Alpha  occ. eigenvalues --   -0.89032  -0.89017  -0.88826  -0.88385  -0.87569
 Alpha  occ. eigenvalues --   -0.86757  -0.86285  -0.85704  -0.85121  -0.84722
 Alpha  occ. eigenvalues --   -0.83708  -0.82118  -0.81879  -0.81440  -0.81075
 Alpha  occ. eigenvalues --   -0.79979  -0.78904  -0.76687  -0.76315  -0.74793
 Alpha  occ. eigenvalues --   -0.74393  -0.74340  -0.74304  -0.73457  -0.72789
 Alpha  occ. eigenvalues --   -0.72085  -0.71469  -0.71126  -0.70855  -0.70522
 Alpha  occ. eigenvalues --   -0.70164  -0.69328  -0.68502  -0.68098  -0.67918
 Alpha  occ. eigenvalues --   -0.67391  -0.66971  -0.66254  -0.63967  -0.63884
 Alpha  occ. eigenvalues --   -0.63595  -0.63339  -0.63175  -0.62663  -0.62288
 Alpha  occ. eigenvalues --   -0.61705  -0.61335  -0.60778  -0.60348  -0.60230
 Alpha  occ. eigenvalues --   -0.59260  -0.58868  -0.58553  -0.58482  -0.58199
 Alpha  occ. eigenvalues --   -0.56944  -0.56828  -0.56750  -0.56623  -0.56316
 Alpha  occ. eigenvalues --   -0.55910  -0.55506  -0.54767  -0.54716  -0.54418
 Alpha  occ. eigenvalues --   -0.54162  -0.54005  -0.53768  -0.53494  -0.52973
 Alpha  occ. eigenvalues --   -0.52772  -0.52283  -0.51876  -0.51774  -0.51459
 Alpha  occ. eigenvalues --   -0.51244  -0.51192  -0.50640  -0.50500  -0.50011
 Alpha  occ. eigenvalues --   -0.49655  -0.49244  -0.49110  -0.48987  -0.48754
 Alpha  occ. eigenvalues --   -0.48676  -0.48242  -0.47871  -0.47620  -0.47320
 Alpha  occ. eigenvalues --   -0.47025  -0.46889  -0.46861  -0.46527  -0.46390
 Alpha  occ. eigenvalues --   -0.46098  -0.45867  -0.45812  -0.45657  -0.45385
 Alpha  occ. eigenvalues --   -0.45080  -0.44936  -0.44896  -0.44713  -0.44559
 Alpha  occ. eigenvalues --   -0.44351  -0.44123  -0.44101  -0.43864  -0.43816
 Alpha  occ. eigenvalues --   -0.43601  -0.43476  -0.43144  -0.43093  -0.42942
 Alpha  occ. eigenvalues --   -0.42937  -0.42494  -0.42085  -0.42068  -0.41971
 Alpha  occ. eigenvalues --   -0.41858  -0.41737  -0.41489  -0.41182  -0.41121
 Alpha  occ. eigenvalues --   -0.41001  -0.40798  -0.40755  -0.40715  -0.40322
 Alpha  occ. eigenvalues --   -0.40283  -0.40147  -0.40028  -0.39987  -0.39807
 Alpha  occ. eigenvalues --   -0.39531  -0.39393  -0.39284  -0.39192  -0.38951
 Alpha  occ. eigenvalues --   -0.38859  -0.38756  -0.38590  -0.38498  -0.38310
 Alpha  occ. eigenvalues --   -0.38227  -0.38059  -0.37927  -0.37825  -0.37675
 Alpha  occ. eigenvalues --   -0.37538  -0.37420  -0.37309  -0.37070  -0.36930
 Alpha  occ. eigenvalues --   -0.36807  -0.36637  -0.36523  -0.36327  -0.36095
 Alpha  occ. eigenvalues --   -0.36039  -0.35791  -0.35586  -0.35564  -0.35093
 Alpha  occ. eigenvalues --   -0.35005  -0.34862  -0.34795  -0.34648  -0.34228
 Alpha  occ. eigenvalues --   -0.34156  -0.33789  -0.33593  -0.33555  -0.33440
 Alpha  occ. eigenvalues --   -0.33259  -0.33247  -0.32884  -0.32806  -0.32413
 Alpha  occ. eigenvalues --   -0.32147  -0.32071  -0.31826  -0.31327  -0.31075
 Alpha  occ. eigenvalues --   -0.31048  -0.30675  -0.30230  -0.30211  -0.29890
 Alpha  occ. eigenvalues --   -0.29549  -0.29431  -0.29120  -0.28352  -0.27970
 Alpha  occ. eigenvalues --   -0.27501  -0.26802  -0.26658  -0.26457  -0.26304
 Alpha  occ. eigenvalues --   -0.25968  -0.25705  -0.25676  -0.25106  -0.24691
 Alpha  occ. eigenvalues --   -0.24239  -0.23987  -0.23866  -0.23385  -0.22656
 Alpha  occ. eigenvalues --   -0.22422  -0.22356  -0.21965  -0.21761  -0.21252
 Alpha  occ. eigenvalues --   -0.21098  -0.20967  -0.20817  -0.19535  -0.19500
 Alpha  occ. eigenvalues --   -0.19139  -0.18924  -0.18649  -0.18393  -0.17869
 Alpha  occ. eigenvalues --   -0.17514  -0.16464  -0.16187
 Alpha virt. eigenvalues --   -0.10272  -0.05346  -0.04500  -0.04426  -0.03520
 Alpha virt. eigenvalues --   -0.02118  -0.01657  -0.00840  -0.00608   0.00333
 Alpha virt. eigenvalues --    0.00603   0.01588   0.01705   0.02162   0.02195

 Mulliken charges:
               1
     1  C    0.066197
     2  C    0.034639
     3  O   -0.301018
     4  H    0.034470
     5  H    0.005512
     6  H    0.036618
     7  N   -0.116062
     8  C    0.123223
     9  C    0.043584
    10  O   -0.298402
    11  C    0.034313
    12  C    0.178267
    13  O   -0.388580
    14  O   -0.462408
    15  H    0.114301
    16  H    0.022392
    17  H    0.006852
    18  H   -0.002591
    19  N   -0.110053
    20  C    0.126939
    21  C    0.039079
    22  O   -0.293944
    23  C    0.075867
    24  C   -0.064831
    25  C    0.007693
    26  C    0.011893
    27  N    0.085512
    28  H    0.145937
    29  H   -0.002919
    30  H    0.029680
    31  H    0.025786
    32  H    0.014647
    33  H   -0.039427
    34  H    0.023307
    35  H    0.069394
    36  H    0.071876
    37  H    0.078046
    38  H    0.193931
    39  H    0.212529
    40  H    0.185092
    41  N   -0.177453
    42  C    0.172148
    43  C    0.027476
    44  O   -0.283849
    45  C    0.074367
    46  C    0.099231
    47  O   -0.478960
    48  O   -0.373515
    49  H    0.158028
    50  H   -0.009523
    51  H   -0.018041
    52  H    0.022125
    53  N   -0.177635
    54  C    0.267650
    55  C    0.042564
    56  O   -0.305642
    57  H    0.164847
    58  H    0.012165
    59  H    0.030141
    60  N   -0.155612
    61  C    0.161993
    62  C    0.034114
    63  O   -0.316034
    64  C    0.001909
    65  C    0.125387
    66  N   -0.018799
    67  O   -0.370156
    68  H    0.157143
    69  H    0.020675
    70  H    0.053487
    71  H    0.029004
    72  H    0.126046
    73  H    0.110698
    74  N   -0.143992
    75  C    0.255868
    76  C    0.044665
    77  O   -0.299642
    78  H    0.155666
    79  H    0.015909
    80  H    0.033271
    81  N   -0.140081
    82  C    0.101688
    83  C    0.110110
    84  O   -0.342910
    85  C    0.144002
    86  C   -0.032700
    87  C    0.019115
    88  C   -0.001461
    89  C   -0.009665
    90  C   -0.038828
    91  C    0.162639
    92  O   -0.202935
    93  H    0.164885
    94  H    0.014095
    95  H   -0.018397
    96  H   -0.045813
    97  H   -0.052323
    98  H   -0.013248
    99  H   -0.038059
   100  H   -0.032585
   101  H    0.172636
   102  N   -0.110157
   103  C    0.135237
   104  C    0.055293
   105  O   -0.273813
   106  C   -0.075684
   107  C   -0.018055
   108  C    0.063368
   109  C    0.028918
   110  H    0.128248
   111  H    0.025006
   112  H   -0.028532
   113  H    0.027701
   114  H    0.007636
   115  H    0.009032
   116  H    0.004451
   117  H    0.014639
   118  H   -0.007497
   119  H    0.010286
   120  H    0.012483
   121  N   -0.128665
   122  C    0.096776
   123  C    0.085314
   124  O   -0.258937
   125  C    0.221254
   126  O   -0.309916
   127  H    0.174643
   128  H    0.029819
   129  H    0.008661
   130  H   -0.015172
   131  H    0.193782
   132  N   -0.141763
   133  C    0.062707
   134  C    0.088384
   135  O   -0.240275
   136  C    0.026423
   137  H    0.121887
   138  H    0.029118
   139  H    0.022405
   140  H    0.048684
   141  H    0.018785
   142  N   -0.145549
   143  C    0.057389
   144  C    0.095057
   145  O   -0.252901
   146  C    0.056534
   147  H    0.114888
   148  H    0.016550
   149  H    0.047989
   150  H   -0.003306
   151  H   -0.003940
   152  N   -0.128393
   153  C    0.141977
   154  C    0.080842
   155  O   -0.275706
   156  C   -0.041493
   157  C    0.127775
   158  C    0.050376
   159  O   -0.381306
   160  O   -0.454398
   161  H    0.107682
   162  H   -0.027101
   163  H    0.048310
   164  H    0.003352
   165  H   -0.024653
   166  H   -0.031229
   167  N   -0.178200
   168  C    0.158766
   169  H    0.028910
   170  H    0.016420
   171  H   -0.001034
   172  H    0.117649
   173  Ca   1.283336
   174  O   -0.290480
   175  H    0.181732
   176  H    0.156447
 Sum of Mulliken charges =  -0.00000

 Dipole moment (field-independent basis, Debye):
    X=             35.6844    Y=              5.6165    Z=            -12.3025  Tot=             38.1611
 Quadrupole moment (field-independent basis, Debye-Ang):
   XX=           -650.1586   YY=           -361.2609   ZZ=           -523.0745
   XY=             97.8740   XZ=            -40.6334   YZ=              2.4359

 ESP charges:
               1
     1  C   -0.457878
     2  C    0.783965
     3  O   -0.648052
     4  H    0.137484
     5  H    0.090333
     6  H    0.138307
     7  N   -0.691877
     8  C    0.170990
     9  C    0.551387
    10  O   -0.533994
    11  C   -0.422785
    12  C    0.865495
    13  O   -0.677510
    14  O   -0.903662
    15  H    0.370886
    16  H    0.017741
    17  H    0.121037
    18  H    0.109402
    19  N   -0.239147
    20  C   -0.338203
    21  C    0.572743
    22  O   -0.587827
    23  C    0.015165
    24  C    0.172185
    25  C   -0.146044
    26  C    0.105925
    27  N   -0.458877
    28  H    0.213578
    29  H    0.147207
    30  H    0.053128
    31  H    0.081242
    32  H   -0.011884
    33  H   -0.049200
    34  H    0.051231
    35  H    0.072992
    36  H    0.055794
    37  H    0.078779
    38  H    0.375492
    39  H    0.367325
    40  H    0.332726
    41  N   -0.436729
    42  C    0.173524
    43  C    0.403127
    44  O   -0.554708
    45  C   -0.362158
    46  C    0.858332
    47  O   -0.837266
    48  O   -0.726747
    49  H    0.389966
    50  H    0.057511
    51  H    0.053600
    52  H    0.106041
    53  N   -0.093397
    54  C   -0.400818
    55  C    0.722220
    56  O   -0.616921
    57  H    0.203191
    58  H    0.149061
    59  H    0.166128
    60  N   -0.555355
    61  C    0.053024
    62  C    0.302301
    63  O   -0.508384
    64  C   -0.325135
    65  C    0.703877
    66  N   -0.726751
    67  O   -0.663647
    68  H    0.440617
    69  H    0.134468
    70  H    0.138541
    71  H    0.100037
    72  H    0.363284
    73  H    0.338685
    74  N    0.041872
    75  C   -0.572753
    76  C    0.812148
    77  O   -0.600763
    78  H    0.241344
    79  H    0.178489
    80  H    0.194713
    81  N   -0.596039
    82  C    0.470781
    83  C    0.351102
    84  O   -0.438818
    85  C   -0.090521
    86  C   -0.035568
    87  C   -0.158527
    88  C   -0.143931
    89  C   -0.238865
    90  C   -0.324747
    91  C    0.444399
    92  O   -0.594314
    93  H    0.254491
    94  H   -0.007317
    95  H    0.032789
    96  H    0.024582
    97  H    0.118173
    98  H    0.183791
    99  H    0.145956
   100  H    0.140469
   101  H    0.421378
   102  N   -0.584185
   103  C   -0.043951
   104  C    0.803905
   105  O   -0.598240
   106  C    0.129560
   107  C    0.144525
   108  C   -0.285881
   109  C   -0.396538
   110  H    0.315736
   111  H    0.038772
   112  H    0.008293
   113  H    0.040576
   114  H    0.061038
   115  H    0.063653
   116  H    0.037580
   117  H    0.091072
   118  H    0.068671
   119  H    0.104368
   120  H    0.089803
   121  N   -0.583994
   122  C    0.095698
   123  C    0.472363
   124  O   -0.372819
   125  C    0.009503
   126  O   -0.421502
   127  H    0.325675
   128  H    0.079899
   129  H    0.057190
   130  H    0.014949
   131  H    0.388270
   132  N   -0.415618
   133  C    0.059884
   134  C    0.542040
   135  O   -0.533572
   136  C   -0.313233
   137  H    0.270392
   138  H    0.101088
   139  H    0.076372
   140  H    0.126221
   141  H    0.098556
   142  N   -0.440777
   143  C    0.237088
   144  C    0.412718
   145  O   -0.507369
   146  C   -0.357502
   147  H    0.275117
   148  H    0.045115
   149  H    0.130196
   150  H    0.080972
   151  H    0.070484
   152  N   -0.241297
   153  C    0.069265
   154  C    0.476180
   155  O   -0.543873
   156  C   -0.455619
   157  C   -0.160773
   158  C    0.830867
   159  O   -0.815493
   160  O   -0.637083
   161  H    0.156035
   162  H    0.050591
   163  H    0.208583
   164  H    0.098162
   165  H    0.007527
   166  H    0.041231
   167  N   -0.082856
   168  C   -0.286640
   169  H    0.130055
   170  H    0.095400
   171  H    0.100224
   172  H    0.131616
   173  Ca   1.583877
   174  O   -0.784671
   175  H    0.436626
   176  H    0.290473
 Sum of ESP charges =   0.00000

 Normal termination of Gaussian 16 at Wed Sep 18 16:11:43 2019.
