 Gaussian 16, Revision A.03,
 Gaussian 16:  ES64L-G16RevA.03 25-Dec-2016

 ----------------------------------------------------------------------
 #b3lyp/svp scf=(tight,noincore) Test #IOP(5/87=12) Density=Current Pop
 =(MK,readradii) iop(6/33=2) iop(6/42=6)
 ----------------------------------------------------------------------

 -----------------
 CaMKII_loop3_48.0
 -----------------
 Symbolic Z-matrix:
 Charge =  0 Multiplicity = 1

                         Standard orientation:
 ---------------------------------------------------------------------
 Center     Atomic      Atomic             Coordinates (Angstroms)
 Number     Number       Type             X           Y           Z
 ---------------------------------------------------------------------
      1          6           0        2.360431    2.230917    5.411644
      2          6           0        1.723424    2.561653    4.066492
      3          8           0        2.365157    2.474146    3.027925
      4          1           0        3.433392    2.414361    5.359411
      5          1           0        1.921743    2.860112    6.186385
      6          1           0        2.182855    1.182490    5.650193
      7          7           0        0.401046    2.712026    4.064111
      8          6           0       -0.381867    2.570510    2.857123
      9          6           0       -0.290534    3.868607    2.067880
     10          8           0       -1.049338    4.805963    2.310738
     11          6           0       -1.798414    2.128243    3.237509
     12          6           0       -2.696790    1.834634    2.036503
     13          8           0       -2.173507    1.991656    0.916852
     14          8           0       -3.884460    1.557159    2.298320
     15          1           0       -0.111953    2.607463    4.927360
     16          1           0        0.002891    1.801135    2.189798
     17          1           0       -2.287309    2.934080    3.774733
     18          1           0       -1.634556    1.184747    3.758916
     19          7           0        0.585638    3.926775    1.066961
     20          6           0        0.990232    5.145074    0.383549
     21          6           0       -0.071853    5.709787   -0.542720
     22          8           0        0.068039    6.842491   -0.989053
     23          6           0        2.348911    5.015812   -0.299006
     24          6           0        3.059649    6.364204   -0.257883
     25          6           0        4.494427    6.218221   -0.749310
     26          6           0        4.611043    6.178858   -2.274122
     27          7           0        5.944840    5.710321   -2.668279
     28          1           0        1.107442    3.087601    0.852235
     29          1           0        1.107405    5.862434    1.191797
     30          1           0        2.320727    4.563255   -1.299505
     31          1           0        2.923978    4.238774    0.205088
     32          1           0        3.107995    6.805725    0.734147
     33          1           0        2.540659    7.101760   -0.884029
     34          1           0        4.977058    5.316743   -0.362136
     35          1           0        5.048133    7.073707   -0.357068
     36          1           0        4.559690    7.185007   -2.692006
     37          1           0        3.872518    5.549916   -2.763931
     38          1           0        6.678733    6.374822   -2.483779
     39          1           0        6.183490    4.801880   -2.286074
     40          1           0        6.119141    5.524626   -3.640769
     41          7           0       -1.119058    4.928393   -0.836634
     42          6           0       -2.250542    5.401327   -1.607788
     43          6           0       -3.611574    5.108646   -0.983185
     44          8           0       -4.664963    5.507565   -1.460191
     45          6           0       -2.218907    4.767731   -2.997448
     46          6           0       -2.148075    3.257482   -3.151494
     47          8           0       -1.911442    2.731438   -4.252350
     48          8           0       -1.979346    2.579124   -2.113871
     49          1           0       -1.077746    3.950634   -0.609520
     50          1           0       -2.145042    6.463761   -1.796479
     51          1           0       -1.417198    5.142293   -3.643333
     52          1           0       -3.084468    5.226237   -3.482811
     53          7           0       -3.652514    4.447850    0.181836
     54          6           0       -4.869217    4.191823    0.913330
     55          6           0       -5.857298    3.232405    0.260095
     56          8           0       -7.072290    3.375676    0.227417
     57          1           0       -2.749982    4.160889    0.543484
     58          1           0       -5.302138    5.181154    1.061329
     59          1           0       -4.738879    3.834015    1.937774
     60          7           0       -5.256356    2.232961   -0.395709
     61          6           0       -6.061593    1.170691   -0.987382
     62          6           0       -6.583440    0.027997   -0.126669
     63          8           0       -7.331981   -0.782387   -0.675453
     64          6           0       -5.363562    0.720531   -2.269493
     65          6           0       -4.345520   -0.393976   -2.113086
     66          7           0       -4.367677   -1.443090   -2.935867
     67          8           0       -3.561366   -0.508437   -1.171756
     68          1           0       -4.297184    1.998691   -0.192224
     69          1           0       -7.032304    1.600968   -1.261211
     70          1           0       -4.850437    1.566113   -2.728400
     71          1           0       -6.176326    0.422435   -2.918456
     72          1           0       -4.895857   -1.263915   -3.777248
     73          1           0       -3.759481   -2.241518   -2.820932
     74          7           0       -6.054647   -0.199937    1.074881
     75          6           0       -6.477828   -1.309224    1.914405
     76          6           0       -5.587681   -2.544705    1.959420
     77          8           0       -5.945489   -3.577916    2.501221
     78          1           0       -5.466136    0.509157    1.492780
     79          1           0       -7.442716   -1.645909    1.543954
     80          1           0       -6.661581   -0.934065    2.924499
     81          7           0       -4.427857   -2.363331    1.307874
     82          6           0       -3.422933   -3.382311    1.048826
     83          6           0       -2.074919   -2.715992    1.264178
     84          8           0       -1.926504   -1.510460    1.062024
     85          6           0       -3.498210   -3.967384   -0.351575
     86          6           0       -4.789292   -4.641095   -0.775982
     87          6           0       -4.912343   -6.020898   -0.971177
     88          6           0       -5.854144   -3.780577   -1.055264
     89          6           0       -6.135869   -6.571821   -1.382963
     90          6           0       -7.081690   -4.344700   -1.412191
     91          6           0       -7.259209   -5.735489   -1.533815
     92          8           0       -8.443638   -6.267348   -1.960024
     93          1           0       -4.233802   -1.502188    0.836623
     94          1           0       -3.597114   -4.191903    1.759967
     95          1           0       -2.766253   -4.777693   -0.339800
     96          1           0       -3.100098   -3.301378   -1.110023
     97          1           0       -4.088334   -6.697435   -0.796517
     98          1           0       -5.862897   -2.696532   -0.977348
     99          1           0       -6.209081   -7.623841   -1.626880
    100          1           0       -7.907015   -3.677779   -1.589261
    101          1           0       -9.081675   -5.564110   -1.844854
    102          7           0       -0.999759   -3.455149    1.551543
    103          6           0        0.414057   -3.144255    1.489329
    104          6           0        1.127379   -3.926972    0.405389
    105          8           0        1.030872   -5.156396    0.467063
    106          6           0        1.090161   -3.455928    2.820060
    107          6           0        0.390544   -2.551281    3.824973
    108          6           0        2.603394   -3.194184    2.775178
    109          6           0        0.903621   -2.629011    5.265670
    110          1           0       -1.236457   -4.307135    2.051037
    111          1           0        0.632737   -2.088582    1.307305
    112          1           0        0.893053   -4.459767    3.198420
    113          1           0       -0.671121   -2.814578    3.836946
    114          1           0        0.453783   -1.489022    3.618560
    115          1           0        2.993940   -3.242282    3.791131
    116          1           0        3.045712   -3.955816    2.128516
    117          1           0        2.744187   -2.172826    2.440655
    118          1           0        1.061809   -3.670540    5.558917
    119          1           0        1.851319   -2.127954    5.404634
    120          1           0        0.218865   -2.185394    5.985748
    121          7           0        1.846805   -3.250469   -0.487398
    122          6           0        2.815736   -3.892743   -1.358407
    123          6           0        4.234778   -3.732566   -0.822158
    124          8           0        4.485876   -2.874433    0.015193
    125          6           0        2.674601   -3.426492   -2.809610
    126          8           0        2.349553   -2.060213   -2.730707
    127          1           0        1.943945   -2.282142   -0.254575
    128          1           0        2.600836   -4.957178   -1.309457
    129          1           0        1.851411   -4.024489   -3.210681
    130          1           0        3.573964   -3.640684   -3.400429
    131          1           0        2.565814   -1.630685   -3.566671
    132          7           0        5.159546   -4.602087   -1.218817
    133          6           0        6.530994   -4.743636   -0.780530
    134          6           0        7.275631   -3.432793   -1.023027
    135          8           0        8.052370   -2.944666   -0.199735
    136          6           0        7.126783   -5.943129   -1.506721
    137          1           0        4.813384   -5.322654   -1.847749
    138          1           0        6.480265   -5.011450    0.274175
    139          1           0        6.453589   -6.744061   -1.180043
    140          1           0        7.154226   -5.791328   -2.583756
    141          1           0        8.126463   -6.095464   -1.112852
    142          7           0        6.945978   -2.741875   -2.105876
    143          6           0        7.506203   -1.423652   -2.360109
    144          6           0        7.262524   -0.368246   -1.292805
    145          8           0        8.060904    0.491187   -0.925433
    146          6           0        7.059216   -0.925225   -3.731194
    147          1           0        6.539159   -3.190710   -2.914483
    148          1           0        8.582072   -1.485573   -2.493043
    149          1           0        7.371686    0.118565   -3.792545
    150          1           0        7.494929   -1.525102   -4.521702
    151          1           0        5.975887   -1.012373   -3.787793
    152          7           0        6.048499   -0.410855   -0.750376
    153          6           0        5.621983    0.471171    0.320144
    154          6           0        6.316530    0.081780    1.618942
    155          8           0        6.711006    0.891223    2.447792
    156          6           0        4.098785    0.503410    0.442324
    157          6           0        3.306433    0.615252   -0.857511
    158          6           0        1.819011    0.652842   -0.527265
    159          8           0        1.236871   -0.293850    0.040791
    160          8           0        1.148752    1.662634   -0.829212
    161          1           0        5.397333   -1.128547   -1.058273
    162          1           0        5.889173    1.502383    0.084749
    163          1           0        3.941425    1.392856    1.045833
    164          1           0        3.729898   -0.356269    1.003194
    165          1           0        3.454820   -0.319541   -1.399676
    166          1           0        3.592115    1.484197   -1.451414
    167          7           0        6.488631   -1.224885    1.842121
    168          6           0        7.084273   -1.669646    3.083893
    169          1           0        8.051405   -1.184131    3.216166
    170          1           0        6.430143   -1.407946    3.915560
    171          1           0        7.221770   -2.750458    3.055561
    172          1           0        6.096501   -1.952511    1.266452
    173         20           0       -1.162489    0.470735   -0.869749
    174          8           0       -0.539900   -1.945084   -1.529371
    175          1           0       -0.845825   -2.735970   -1.982702
    176          1           0        0.417381   -2.007414   -1.554432
 ---------------------------------------------------------------------

 SCF Done:  E(RB3LYP) =  -5333.59805623     A.U. after   18 cycles

 The electronic state is 1-A.
 Alpha  occ. eigenvalues -- -145.36916 -19.20729 -19.17909 -19.15494 -19.14886
 Alpha  occ. eigenvalues --  -19.13429 -19.11575 -19.11273 -19.10707 -19.10542
 Alpha  occ. eigenvalues --  -19.09621 -19.08640 -19.08278 -19.07472 -19.06665
 Alpha  occ. eigenvalues --  -19.06664 -19.06375 -19.06220 -19.05567 -19.03983
 Alpha  occ. eigenvalues --  -19.03731 -19.03203 -19.02190 -18.99603 -15.42655
 Alpha  occ. eigenvalues --  -14.58239 -14.41483 -14.40140 -14.38162 -14.36299
 Alpha  occ. eigenvalues --  -14.36296 -14.36017 -14.34009 -14.32993 -14.32096
 Alpha  occ. eigenvalues --  -14.32047 -14.31962 -14.30718 -14.29282 -14.28720
 Alpha  occ. eigenvalues --  -12.56283 -12.56234 -12.56210 -10.34458 -10.33744
 Alpha  occ. eigenvalues --  -10.32232 -10.30383 -10.30008 -10.29792 -10.29580
 Alpha  occ. eigenvalues --  -10.29146 -10.28591 -10.28223 -10.28176 -10.27006
 Alpha  occ. eigenvalues --  -10.26608 -10.26484 -10.26214 -10.25495 -10.25191
 Alpha  occ. eigenvalues --  -10.24816 -10.24728 -10.24645 -10.23876 -10.23711
 Alpha  occ. eigenvalues --  -10.23387 -10.23338 -10.23033 -10.23010 -10.22468
 Alpha  occ. eigenvalues --  -10.22094 -10.22005 -10.21587 -10.20613 -10.20520
 Alpha  occ. eigenvalues --  -10.20241 -10.20038 -10.19976 -10.19646 -10.19591
 Alpha  occ. eigenvalues --  -10.19278 -10.19261 -10.18950 -10.18583 -10.18291
 Alpha  occ. eigenvalues --  -10.18158 -10.18114 -10.18060 -10.17955 -10.17578
 Alpha  occ. eigenvalues --  -10.17381 -10.17342 -10.16964 -10.16811 -10.16551
 Alpha  occ. eigenvalues --  -10.15299 -10.12939  -1.79514  -1.13802  -1.09352
 Alpha  occ. eigenvalues --   -1.08509  -1.07372  -1.07256  -1.06795  -1.06662
 Alpha  occ. eigenvalues --   -1.04699  -1.04583  -1.04112  -1.03748  -1.03744
 Alpha  occ. eigenvalues --   -1.03702  -1.03466  -1.01614  -1.00722  -0.99968
 Alpha  occ. eigenvalues --   -0.99875  -0.99280  -0.99139  -0.98739  -0.98718
 Alpha  occ. eigenvalues --   -0.97280  -0.96488  -0.96353  -0.96024  -0.95308
 Alpha  occ. eigenvalues --   -0.93518  -0.92876  -0.92814  -0.90871  -0.90850
 Alpha  occ. eigenvalues --   -0.90273  -0.89938  -0.89667  -0.89076  -0.88461
 Alpha  occ. eigenvalues --   -0.88288  -0.87798  -0.86803  -0.85108  -0.84772
 Alpha  occ. eigenvalues --   -0.84668  -0.83433  -0.82481  -0.81767  -0.81022
 Alpha  occ. eigenvalues --   -0.80564  -0.79536  -0.77968  -0.76434  -0.76053
 Alpha  occ. eigenvalues --   -0.74866  -0.74617  -0.73647  -0.73189  -0.72790
 Alpha  occ. eigenvalues --   -0.72779  -0.72417  -0.72090  -0.71021  -0.70967
 Alpha  occ. eigenvalues --   -0.70752  -0.70081  -0.69351  -0.68547  -0.67837
 Alpha  occ. eigenvalues --   -0.67658  -0.67115  -0.66097  -0.65102  -0.64165
 Alpha  occ. eigenvalues --   -0.64063  -0.63615  -0.63071  -0.62612  -0.62550
 Alpha  occ. eigenvalues --   -0.61726  -0.61275  -0.60484  -0.60399  -0.60375
 Alpha  occ. eigenvalues --   -0.60158  -0.59186  -0.58831  -0.58573  -0.57881
 Alpha  occ. eigenvalues --   -0.57683  -0.57550  -0.57132  -0.57051  -0.56964
 Alpha  occ. eigenvalues --   -0.56454  -0.56166  -0.55752  -0.55016  -0.54931
 Alpha  occ. eigenvalues --   -0.54886  -0.54799  -0.54691  -0.54533  -0.54097
 Alpha  occ. eigenvalues --   -0.53121  -0.53055  -0.52589  -0.52500  -0.52172
 Alpha  occ. eigenvalues --   -0.51649  -0.51375  -0.50959  -0.50815  -0.50672
 Alpha  occ. eigenvalues --   -0.50127  -0.50038  -0.49548  -0.49188  -0.48924
 Alpha  occ. eigenvalues --   -0.48739  -0.48690  -0.48135  -0.47982  -0.47743
 Alpha  occ. eigenvalues --   -0.47452  -0.47360  -0.47047  -0.46972  -0.46916
 Alpha  occ. eigenvalues --   -0.46784  -0.46565  -0.46376  -0.46268  -0.45881
 Alpha  occ. eigenvalues --   -0.45716  -0.45671  -0.45439  -0.45124  -0.45094
 Alpha  occ. eigenvalues --   -0.44938  -0.44867  -0.44756  -0.44490  -0.44321
 Alpha  occ. eigenvalues --   -0.43914  -0.43858  -0.43824  -0.43568  -0.43468
 Alpha  occ. eigenvalues --   -0.43261  -0.43164  -0.42966  -0.42829  -0.42691
 Alpha  occ. eigenvalues --   -0.42336  -0.42178  -0.42045  -0.41923  -0.41704
 Alpha  occ. eigenvalues --   -0.41625  -0.41465  -0.41386  -0.41317  -0.41161
 Alpha  occ. eigenvalues --   -0.41092  -0.41004  -0.40675  -0.40592  -0.40426
 Alpha  occ. eigenvalues --   -0.40205  -0.40155  -0.39954  -0.39692  -0.39670
 Alpha  occ. eigenvalues --   -0.39466  -0.39296  -0.39226  -0.39126  -0.38871
 Alpha  occ. eigenvalues --   -0.38798  -0.38584  -0.38455  -0.38262  -0.38183
 Alpha  occ. eigenvalues --   -0.38036  -0.37916  -0.37775  -0.37440  -0.37423
 Alpha  occ. eigenvalues --   -0.37282  -0.37212  -0.37034  -0.36809  -0.36681
 Alpha  occ. eigenvalues --   -0.36094  -0.36072  -0.35851  -0.35797  -0.35755
 Alpha  occ. eigenvalues --   -0.35474  -0.35199  -0.35054  -0.34937  -0.34778
 Alpha  occ. eigenvalues --   -0.34602  -0.34578  -0.33998  -0.33974  -0.33937
 Alpha  occ. eigenvalues --   -0.33853  -0.33478  -0.33215  -0.33036  -0.32988
 Alpha  occ. eigenvalues --   -0.32913  -0.32845  -0.32589  -0.32412  -0.32266
 Alpha  occ. eigenvalues --   -0.32158  -0.31942  -0.31357  -0.31146  -0.30905
 Alpha  occ. eigenvalues --   -0.29654  -0.29451  -0.29105  -0.28928  -0.28699
 Alpha  occ. eigenvalues --   -0.28315  -0.28071  -0.27558  -0.27179  -0.27138
 Alpha  occ. eigenvalues --   -0.26595  -0.26392  -0.26227  -0.25666  -0.25060
 Alpha  occ. eigenvalues --   -0.24807  -0.24621  -0.24236  -0.24061  -0.23966
 Alpha  occ. eigenvalues --   -0.23837  -0.23533  -0.23056  -0.22912  -0.22828
 Alpha  occ. eigenvalues --   -0.22052  -0.21561  -0.21437  -0.21187  -0.20984
 Alpha  occ. eigenvalues --   -0.20944  -0.20642  -0.19852  -0.19613  -0.18715
 Alpha  occ. eigenvalues --   -0.18548  -0.18236  -0.15661
 Alpha virt. eigenvalues --   -0.10510  -0.04632  -0.04549  -0.04417  -0.03785
 Alpha virt. eigenvalues --   -0.02888  -0.01741  -0.01088  -0.00370  -0.00163
 Alpha virt. eigenvalues --   -0.00117   0.00352   0.00642   0.00790   0.01800

 Mulliken charges:
               1
     1  C    0.038805
     2  C    0.030280
     3  O   -0.289002
     4  H    0.033862
     5  H    0.012031
     6  H    0.040159
     7  N   -0.098630
     8  C    0.068477
     9  C    0.068778
    10  O   -0.294237
    11  C    0.077640
    12  C    0.167552
    13  O   -0.479164
    14  O   -0.374963
    15  H    0.113594
    16  H   -0.009807
    17  H    0.021919
    18  H    0.006502
    19  N   -0.131587
    20  C    0.140692
    21  C    0.061684
    22  O   -0.301786
    23  C    0.035049
    24  C    0.031645
    25  C   -0.018642
    26  C    0.047333
    27  N    0.074645
    28  H    0.145064
    29  H    0.012171
    30  H   -0.002994
    31  H    0.005258
    32  H    0.020895
    33  H    0.034906
    34  H    0.016342
    35  H    0.020055
    36  H    0.066043
    37  H    0.085088
    38  H    0.183669
    39  H    0.190120
    40  H    0.169115
    41  N   -0.138089
    42  C    0.170728
    43  C    0.050589
    44  O   -0.279664
    45  C    0.012508
    46  C    0.117077
    47  O   -0.370979
    48  O   -0.477563
    49  H    0.153289
    50  H    0.009376
    51  H   -0.011431
    52  H    0.012337
    53  N   -0.156771
    54  C    0.230636
    55  C    0.047828
    56  O   -0.277334
    57  H    0.145181
    58  H   -0.001737
    59  H    0.036140
    60  N   -0.165515
    61  C    0.122316
    62  C    0.069920
    63  O   -0.316741
    64  C    0.107439
    65  C    0.056721
    66  N   -0.018700
    67  O   -0.378060
    68  H    0.140073
    69  H    0.035690
    70  H    0.079134
    71  H    0.004491
    72  H    0.130859
    73  H    0.122107
    74  N   -0.163745
    75  C    0.197853
    76  C    0.044746
    77  O   -0.273191
    78  H    0.146026
    79  H    0.032160
    80  H    0.034888
    81  N   -0.166010
    82  C    0.123297
    83  C    0.114733
    84  O   -0.316884
    85  C    0.165926
    86  C   -0.001525
    87  C    0.007101
    88  C   -0.003389
    89  C   -0.040774
    90  C   -0.070362
    91  C    0.191254
    92  O   -0.194095
    93  H    0.154555
    94  H   -0.002092
    95  H   -0.035828
    96  H   -0.062124
    97  H   -0.042159
    98  H   -0.014221
    99  H   -0.031039
   100  H   -0.032412
   101  H    0.172374
   102  N   -0.119788
   103  C    0.186085
   104  C    0.024066
   105  O   -0.288617
   106  C   -0.149934
   107  C    0.009802
   108  C    0.080497
   109  C    0.031461
   110  H    0.129841
   111  H    0.022052
   112  H   -0.009797
   113  H   -0.005729
   114  H    0.007703
   115  H    0.003480
   116  H    0.018955
   117  H    0.027018
   118  H   -0.007213
   119  H    0.008843
   120  H    0.007726
   121  N   -0.140863
   122  C    0.084053
   123  C    0.067025
   124  O   -0.273838
   125  C    0.239338
   126  O   -0.286961
   127  H    0.158695
   128  H    0.023604
   129  H    0.010906
   130  H   -0.008882
   131  H    0.189475
   132  N   -0.120955
   133  C    0.070120
   134  C    0.080316
   135  O   -0.241364
   136  C    0.036879
   137  H    0.113749
   138  H    0.031236
   139  H    0.040764
   140  H    0.014815
   141  H    0.052933
   142  N   -0.123579
   143  C    0.086516
   144  C    0.061049
   145  O   -0.267837
   146  C    0.036501
   147  H    0.105036
   148  H    0.011528
   149  H    0.025312
   150  H    0.026238
   151  H   -0.011797
   152  N   -0.166008
   153  C    0.161096
   154  C    0.077830
   155  O   -0.270903
   156  C   -0.038493
   157  C    0.146309
   158  C    0.089953
   159  O   -0.412387
   160  O   -0.408821
   161  H    0.136638
   162  H   -0.042500
   163  H    0.038518
   164  H    0.024712
   165  H   -0.043583
   166  H   -0.042545
   167  N   -0.175648
   168  C    0.152737
   169  H    0.027086
   170  H    0.012185
   171  H   -0.002125
   172  H    0.124452
   173  Ca   1.288119
   174  O   -0.313401
   175  H    0.177089
   176  H    0.177750
 Sum of Mulliken charges =  -0.00000

 Dipole moment (field-independent basis, Debye):
    X=             37.2098    Y=             -5.6545    Z=            -16.0620  Tot=             40.9210
 Quadrupole moment (field-independent basis, Debye-Ang):
   XX=           -586.5120   YY=           -506.5053   ZZ=           -509.2023
   XY=            109.8486   XZ=           -106.7817   YZ=              0.1034

 ESP charges:
               1
     1  C   -0.453546
     2  C    0.848449
     3  O   -0.687967
     4  H    0.131726
     5  H    0.093483
     6  H    0.130017
     7  N   -0.849834
     8  C    0.687191
     9  C    0.380093
    10  O   -0.548182
    11  C   -0.583714
    12  C    0.945760
    13  O   -0.812245
    14  O   -0.672997
    15  H    0.372252
    16  H   -0.083080
    17  H    0.131232
    18  H    0.100466
    19  N   -0.155081
    20  C   -0.334616
    21  C    0.667897
    22  O   -0.582445
    23  C   -0.000224
    24  C   -0.070042
    25  C    0.000137
    26  C    0.075893
    27  N   -0.403194
    28  H    0.244419
    29  H    0.157412
    30  H    0.042718
    31  H    0.072488
    32  H    0.076320
    33  H    0.043063
    34  H   -0.002343
    35  H    0.028526
    36  H    0.082907
    37  H    0.083621
    38  H    0.327164
    39  H    0.339145
    40  H    0.328405
    41  N   -0.545853
    42  C    0.117986
    43  C    0.367641
    44  O   -0.512590
    45  C   -0.219267
    46  C    0.755528
    47  O   -0.708545
    48  O   -0.781158
    49  H    0.425698
    50  H    0.098271
    51  H    0.067913
    52  H    0.041980
    53  N   -0.094320
    54  C   -0.172395
    55  C    0.494333
    56  O   -0.555750
    57  H    0.111218
    58  H    0.085871
    59  H    0.122608
    60  N   -0.052918
    61  C   -0.138331
    62  C    0.426170
    63  O   -0.527964
    64  C   -0.214951
    65  C    0.605758
    66  N   -0.836890
    67  O   -0.492767
    68  H   -0.019434
    69  H    0.162994
    70  H    0.126635
    71  H    0.090257
    72  H    0.377512
    73  H    0.404470
    74  N   -0.178693
    75  C   -0.207516
    76  C    0.590470
    77  O   -0.556342
    78  H    0.254726
    79  H    0.116658
    80  H    0.105480
    81  N   -0.464461
    82  C    0.306498
    83  C    0.439349
    84  O   -0.550156
    85  C    0.005331
    86  C    0.037487
    87  C   -0.226622
    88  C   -0.098368
    89  C   -0.232364
    90  C   -0.342743
    91  C    0.405643
    92  O   -0.555503
    93  H    0.200367
    94  H    0.013710
    95  H   -0.010914
    96  H   -0.046397
    97  H    0.142786
    98  H    0.210797
    99  H    0.153408
   100  H    0.137769
   101  H    0.409937
   102  N   -0.438431
   103  C   -0.002789
   104  C    0.385648
   105  O   -0.542441
   106  C    0.296306
   107  C    0.134549
   108  C   -0.435853
   109  C   -0.314877
   110  H    0.253479
   111  H   -0.013134
   112  H   -0.021395
   113  H   -0.015430
   114  H    0.020759
   115  H    0.102254
   116  H    0.096268
   117  H    0.108751
   118  H    0.050445
   119  H    0.075395
   120  H    0.077180
   121  N   -0.222264
   122  C    0.034261
   123  C    0.430062
   124  O   -0.469011
   125  C    0.126463
   126  O   -0.555177
   127  H    0.605286
   128  H    0.043641
   129  H    0.022265
   130  H    0.006034
   131  H    0.403367
   132  N   -0.385857
   133  C    0.118914
   134  C    0.508066
   135  O   -0.525012
   136  C   -0.399709
   137  H    0.249201
   138  H    0.103139
   139  H    0.127315
   140  H    0.105035
   141  H    0.145619
   142  N   -0.413292
   143  C    0.238027
   144  C    0.298137
   145  O   -0.506084
   146  C   -0.413574
   147  H    0.266984
   148  H    0.052373
   149  H    0.126554
   150  H    0.120633
   151  H    0.078766
   152  N    0.070767
   153  C   -0.606562
   154  C    0.663941
   155  O   -0.565067
   156  C    0.330594
   157  C   -0.510485
   158  C    0.913053
   159  O   -0.750437
   160  O   -0.793407
   161  H    0.091121
   162  H    0.184757
   163  H    0.070570
   164  H   -0.113870
   165  H    0.045232
   166  H    0.113985
   167  N   -0.123414
   168  C   -0.223606
   169  H    0.107647
   170  H    0.075924
   171  H    0.076680
   172  H    0.164044
   173  Ca   1.541263
   174  O   -0.818572
   175  H    0.449985
   176  H    0.247694
 Sum of ESP charges =   0.00000

 Normal termination of Gaussian 16 at Wed Sep 18 16:09:33 2019.
