 Gaussian 16, Revision A.03,
 Gaussian 16:  ES64L-G16RevA.03 25-Dec-2016

 ----------------------------------------------------------------------
 #b3lyp/svp scf=(tight,noincore) Test #IOP(5/87=12) Density=Current Pop
 =(MK,readradii) iop(6/33=2) iop(6/42=6)
 ----------------------------------------------------------------------

 ------------------
 CaMKII_loop3_105.0
 ------------------
 Symbolic Z-matrix:
 Charge =  0 Multiplicity = 1

                         Standard orientation:
 ---------------------------------------------------------------------
 Center     Atomic      Atomic             Coordinates (Angstroms)
 Number     Number       Type             X           Y           Z
 ---------------------------------------------------------------------
      1          6           0        2.071224    2.212379    5.420071
      2          6           0        1.428066    1.930159    4.069516
      3          8           0        2.118310    1.736301    3.063244
      4          1           0        1.292638    2.367549    6.167210
      5          1           0        2.691026    1.364670    5.711811
      6          1           0        2.688550    3.107693    5.349327
      7          7           0        0.110576    1.973199    3.966230
      8          6           0       -0.656340    1.891342    2.740327
      9          6           0       -0.991018    3.258347    2.146537
     10          8           0       -1.907153    4.009262    2.462330
     11          6           0       -1.894356    1.046591    3.027058
     12          6           0       -2.781711    0.668134    1.843854
     13          8           0       -3.835401    0.018965    2.044141
     14          8           0       -2.639493    1.137310    0.700635
     15          1           0       -0.466998    1.956575    4.800156
     16          1           0       -0.122656    1.301093    1.988738
     17          1           0       -2.610692    1.578645    3.653142
     18          1           0       -1.660005    0.109113    3.511119
     19          7           0       -0.154235    3.677514    1.200496
     20          6           0       -0.021667    5.054932    0.736985
     21          6           0       -1.073496    5.371526   -0.316402
     22          8           0       -1.043548    6.476748   -0.842984
     23          6           0        1.389554    5.236696    0.183705
     24          6           0        1.918877    6.647627   -0.052074
     25          6           0        3.339768    6.729199   -0.613605
     26          6           0        3.574302    6.275088   -2.047891
     27          7           0        4.994892    6.478516   -2.356338
     28          1           0        0.414571    2.927572    0.841545
     29          1           0       -0.241998    5.770022    1.527618
     30          1           0        1.279311    4.742875   -0.784586
     31          1           0        2.080977    4.587650    0.730946
     32          1           0        1.916710    7.187426    0.892761
     33          1           0        1.243304    7.191598   -0.710707
     34          1           0        4.029749    6.044309   -0.129713
     35          1           0        3.763690    7.729443   -0.603563
     36          1           0        2.854656    6.807913   -2.683428
     37          1           0        3.464401    5.200869   -2.100573
     38          1           0        5.224818    6.078212   -3.249530
     39          1           0        5.324206    7.432027   -2.410835
     40          1           0        5.532717    5.935989   -1.682759
     41          7           0       -1.950732    4.477657   -0.767795
     42          6           0       -3.172563    4.832330   -1.464742
     43          6           0       -4.377064    4.158957   -0.832170
     44          8           0       -5.458681    4.309491   -1.394704
     45          6           0       -3.036275    4.564896   -2.966109
     46          6           0       -2.604003    3.136479   -3.233251
     47          8           0       -2.013561    2.386688   -2.429391
     48          8           0       -2.931855    2.645535   -4.333973
     49          1           0       -1.902675    3.561047   -0.343393
     50          1           0       -3.339714    5.899996   -1.342061
     51          1           0       -2.386957    5.303940   -3.422727
     52          1           0       -3.969066    4.761336   -3.499599
     53          7           0       -4.247868    3.566040    0.362258
     54          6           0       -5.433003    3.386386    1.179130
     55          6           0       -6.294535    2.179616    0.849174
     56          8           0       -7.400906    2.037823    1.371321
     57          1           0       -3.366229    3.538241    0.836220
     58          1           0       -6.023118    4.284865    1.006214
     59          1           0       -5.195579    3.462006    2.235923
     60          7           0       -5.886655    1.306661   -0.071089
     61          6           0       -6.779339    0.406842   -0.771331
     62          6           0       -7.082629   -0.739099    0.183884
     63          8           0       -8.128381   -1.362050    0.026610
     64          6           0       -6.067963   -0.067997   -2.037416
     65          6           0       -4.889004   -0.998871   -1.786960
     66          7           0       -5.132072   -2.205334   -2.304807
     67          8           0       -3.872943   -0.685497   -1.177602
     68          1           0       -4.989930    1.325455   -0.533076
     69          1           0       -7.712352    0.810434   -1.166300
     70          1           0       -5.656566    0.772338   -2.609072
     71          1           0       -6.808968   -0.584176   -2.661412
     72          1           0       -6.061910   -2.506530   -2.548901
     73          1           0       -4.336484   -2.803804   -2.140569
     74          7           0       -6.263167   -1.063750    1.183977
     75          6           0       -6.361786   -2.224220    2.046463
     76          6           0       -5.130419   -3.114807    2.026678
     77          8           0       -5.221223   -4.185423    2.631356
     78          1           0       -5.351335   -0.613871    1.140722
     79          1           0       -7.279855   -2.751346    1.772079
     80          1           0       -6.555340   -1.929027    3.070913
     81          7           0       -3.987616   -2.764016    1.445433
     82          6           0       -2.770149   -3.537164    1.607347
     83          6           0       -1.484407   -2.797564    1.235378
     84          8           0       -1.474238   -1.960171    0.338288
     85          6           0       -2.872161   -4.858874    0.848418
     86          6           0       -3.513906   -4.839205   -0.518285
     87          6           0       -4.733335   -5.501611   -0.666646
     88          6           0       -2.853765   -4.270550   -1.608030
     89          6           0       -5.253029   -5.707992   -1.957160
     90          6           0       -3.316199   -4.581405   -2.895984
     91          6           0       -4.511262   -5.301249   -3.081856
     92          8           0       -5.172477   -5.171907   -4.263916
     93          1           0       -3.966974   -1.789907    1.166889
     94          1           0       -2.668730   -3.892038    2.629834
     95          1           0       -3.279119   -5.618080    1.506667
     96          1           0       -1.859531   -5.172947    0.576868
     97          1           0       -5.204390   -5.989878    0.177571
     98          1           0       -1.915253   -3.751125   -1.519180
     99          1           0       -6.269050   -6.056349   -2.081053
    100          1           0       -2.796462   -4.213430   -3.761644
    101          1           0       -6.059033   -5.545435   -4.209188
    102          7           0       -0.373832   -3.254088    1.826739
    103          6           0        1.009488   -2.848276    1.744016
    104          6           0        1.882206   -3.694287    0.823185
    105          8           0        1.886649   -4.919233    0.928954
    106          6           0        1.636017   -2.849986    3.129317
    107          6           0        0.888816   -1.904941    4.073341
    108          6           0        3.105328   -2.455907    3.144410
    109          6           0        0.964965   -2.259451    5.558712
    110          1           0       -0.540862   -3.942458    2.548367
    111          1           0        0.926909   -1.825022    1.365822
    112          1           0        1.568255   -3.885940    3.461291
    113          1           0       -0.151956   -1.890089    3.739767
    114          1           0        1.200493   -0.879707    3.902894
    115          1           0        3.333253   -1.491199    2.689670
    116          1           0        3.461777   -2.385576    4.174652
    117          1           0        3.769416   -3.203582    2.699923
    118          1           0        0.465926   -3.222273    5.709160
    119          1           0        2.015887   -2.131930    5.811498
    120          1           0        0.361608   -1.482746    6.024854
    121          7           0        2.575031   -3.002748   -0.084266
    122          6           0        3.533201   -3.570966   -0.993738
    123          6           0        4.976343   -3.347545   -0.561043
    124          8           0        5.193843   -2.633083    0.410985
    125          6           0        3.353645   -3.071856   -2.429130
    126          8           0        3.899673   -1.791973   -2.605347
    127          1           0        2.237166   -2.085847   -0.342802
    128          1           0        3.367681   -4.637553   -1.131556
    129          1           0        2.278757   -2.984669   -2.602380
    130          1           0        3.824048   -3.728083   -3.168783
    131          1           0        3.841761   -1.562235   -3.535920
    132          7           0        5.934858   -3.918255   -1.306522
    133          6           0        7.309685   -3.712177   -0.912973
    134          6           0        7.802955   -2.278509   -1.055034
    135          8           0        8.449001   -1.692623   -0.188915
    136          6           0        8.158043   -4.692329   -1.724202
    137          1           0        5.674608   -4.390036   -2.160742
    138          1           0        7.325910   -3.895126    0.164137
    139          1           0        7.938487   -5.739594   -1.505500
    140          1           0        8.068369   -4.488918   -2.784382
    141          1           0        9.201868   -4.502134   -1.489351
    142          7           0        7.484865   -1.707086   -2.221950
    143          6           0        7.657723   -0.292936   -2.478272
    144          6           0        6.970219    0.610984   -1.461825
    145          8           0        7.398008    1.747655   -1.322273
    146          6           0        7.203299   -0.032401   -3.908175
    147          1           0        6.858299   -2.171582   -2.866743
    148          1           0        8.690057    0.075798   -2.473621
    149          1           0        6.167996   -0.366539   -3.997054
    150          1           0        7.376769    1.023172   -4.124214
    151          1           0        7.969752   -0.457324   -4.564444
    152          7           0        5.928086    0.174100   -0.747338
    153          6           0        5.278610    0.993180    0.253106
    154          6           0        6.037865    1.001429    1.576081
    155          8           0        6.243890    2.011543    2.253223
    156          6           0        3.785306    0.733929    0.378533
    157          6           0        2.954484    0.981904   -0.879419
    158          6           0        1.514409    0.502739   -0.723909
    159          8           0        0.648799    1.326475   -0.324185
    160          8           0        1.147424   -0.673953   -0.887978
    161          1           0        5.588232   -0.770361   -0.790856
    162          1           0        5.272985    2.017779   -0.111815
    163          1           0        3.390839    1.438459    1.117541
    164          1           0        3.603529   -0.270905    0.780735
    165          1           0        3.325156    0.279515   -1.623833
    166          1           0        3.090238    1.963228   -1.328835
    167          7           0        6.550953   -0.175270    1.922377
    168          6           0        7.410732   -0.383309    3.068675
    169          1           0        6.827559   -0.276392    3.983579
    170          1           0        7.837544   -1.385479    3.025837
    171          1           0        8.212682    0.354475    3.060761
    172          1           0        6.268758   -0.989303    1.380698
    173         20           0       -1.478529    0.282483   -1.363059
    174          8           0       -2.418863   -0.193996   -3.720863
    175          1           0       -2.654983    0.481318   -4.356472
    176          1           0       -2.183569   -0.954120   -4.262202
 ---------------------------------------------------------------------

 SCF Done:  E(RB3LYP) =  -5333.57232782     A.U. after   18 cycles

 The electronic state is 1-A.
 Alpha  occ. eigenvalues -- -145.35896 -19.18337 -19.16353 -19.14524 -19.14306
 Alpha  occ. eigenvalues --  -19.12263 -19.11168 -19.10018 -19.09966 -19.09887
 Alpha  occ. eigenvalues --  -19.09327 -19.08298 -19.08254 -19.08194 -19.06979
 Alpha  occ. eigenvalues --  -19.06896 -19.05350 -19.05160 -19.04330 -19.03607
 Alpha  occ. eigenvalues --  -19.03432 -19.03403 -19.02750 -19.01117 -15.41712
 Alpha  occ. eigenvalues --  -14.58441 -14.40009 -14.38417 -14.36287 -14.35515
 Alpha  occ. eigenvalues --  -14.35279 -14.35070 -14.33537 -14.33002 -14.32791
 Alpha  occ. eigenvalues --  -14.31861 -14.31700 -14.30775 -14.29502 -14.28883
 Alpha  occ. eigenvalues --  -12.55315 -12.55294 -12.55254 -10.34182 -10.32181
 Alpha  occ. eigenvalues --  -10.30718 -10.29749 -10.28832 -10.28277 -10.28117
 Alpha  occ. eigenvalues --  -10.27964 -10.27814 -10.27759 -10.27155 -10.26683
 Alpha  occ. eigenvalues --  -10.26461 -10.25922 -10.25723 -10.25491 -10.25354
 Alpha  occ. eigenvalues --  -10.25123 -10.24448 -10.23811 -10.23654 -10.23292
 Alpha  occ. eigenvalues --  -10.22880 -10.22741 -10.22675 -10.22610 -10.22588
 Alpha  occ. eigenvalues --  -10.22549 -10.22432 -10.22092 -10.22075 -10.21637
 Alpha  occ. eigenvalues --  -10.21155 -10.20196 -10.19577 -10.19393 -10.19360
 Alpha  occ. eigenvalues --  -10.19342 -10.19105 -10.19075 -10.19030 -10.18989
 Alpha  occ. eigenvalues --  -10.18754 -10.18442 -10.18324 -10.18244 -10.18027
 Alpha  occ. eigenvalues --  -10.17960 -10.17676 -10.17516 -10.17273 -10.16808
 Alpha  occ. eigenvalues --  -10.16599 -10.14161  -1.78662  -1.13814  -1.07710
 Alpha  occ. eigenvalues --   -1.06579  -1.06420  -1.06287  -1.06021  -1.05221
 Alpha  occ. eigenvalues --   -1.05105  -1.03871  -1.03765  -1.03376  -1.02440
 Alpha  occ. eigenvalues --   -1.02287  -1.02148  -1.01318  -1.00574  -1.00438
 Alpha  occ. eigenvalues --   -0.99694  -0.99122  -0.98894  -0.98444  -0.97563
 Alpha  occ. eigenvalues --   -0.97350  -0.97175  -0.96256  -0.95064  -0.93390
 Alpha  occ. eigenvalues --   -0.93215  -0.92608  -0.92407  -0.91496  -0.90674
 Alpha  occ. eigenvalues --   -0.89614  -0.89228  -0.89001  -0.88768  -0.88608
 Alpha  occ. eigenvalues --   -0.87789  -0.87512  -0.86799  -0.86324  -0.85488
 Alpha  occ. eigenvalues --   -0.84946  -0.82747  -0.81631  -0.81045  -0.80042
 Alpha  occ. eigenvalues --   -0.78855  -0.78151  -0.77910  -0.77540  -0.75746
 Alpha  occ. eigenvalues --   -0.75079  -0.74707  -0.74516  -0.73816  -0.73175
 Alpha  occ. eigenvalues --   -0.72809  -0.72585  -0.72226  -0.71867  -0.70076
 Alpha  occ. eigenvalues --   -0.69984  -0.69027  -0.68611  -0.68239  -0.67932
 Alpha  occ. eigenvalues --   -0.67917  -0.66616  -0.65084  -0.64517  -0.64405
 Alpha  occ. eigenvalues --   -0.63796  -0.63016  -0.63011  -0.62427  -0.61880
 Alpha  occ. eigenvalues --   -0.61814  -0.61392  -0.61098  -0.60698  -0.60359
 Alpha  occ. eigenvalues --   -0.59475  -0.59327  -0.59085  -0.58254  -0.57520
 Alpha  occ. eigenvalues --   -0.57204  -0.56870  -0.56565  -0.55871  -0.55826
 Alpha  occ. eigenvalues --   -0.55799  -0.55619  -0.55080  -0.54995  -0.54683
 Alpha  occ. eigenvalues --   -0.54567  -0.54127  -0.53834  -0.53761  -0.53406
 Alpha  occ. eigenvalues --   -0.53227  -0.52573  -0.52196  -0.52114  -0.52058
 Alpha  occ. eigenvalues --   -0.51488  -0.50565  -0.50182  -0.50007  -0.49887
 Alpha  occ. eigenvalues --   -0.49449  -0.49245  -0.49175  -0.48824  -0.48688
 Alpha  occ. eigenvalues --   -0.48336  -0.48083  -0.47901  -0.47832  -0.47585
 Alpha  occ. eigenvalues --   -0.47350  -0.47034  -0.46923  -0.46847  -0.46761
 Alpha  occ. eigenvalues --   -0.46439  -0.46332  -0.45757  -0.45564  -0.45456
 Alpha  occ. eigenvalues --   -0.45331  -0.45174  -0.45034  -0.44906  -0.44700
 Alpha  occ. eigenvalues --   -0.44484  -0.44432  -0.44236  -0.44039  -0.43687
 Alpha  occ. eigenvalues --   -0.43652  -0.43394  -0.43167  -0.43069  -0.42936
 Alpha  occ. eigenvalues --   -0.42753  -0.42691  -0.42420  -0.42363  -0.42292
 Alpha  occ. eigenvalues --   -0.42136  -0.41963  -0.41826  -0.41666  -0.41622
 Alpha  occ. eigenvalues --   -0.41609  -0.41449  -0.41230  -0.41156  -0.41033
 Alpha  occ. eigenvalues --   -0.40854  -0.40639  -0.40610  -0.40530  -0.40388
 Alpha  occ. eigenvalues --   -0.40054  -0.39814  -0.39560  -0.39513  -0.39432
 Alpha  occ. eigenvalues --   -0.39385  -0.39219  -0.39100  -0.38890  -0.38833
 Alpha  occ. eigenvalues --   -0.38671  -0.38620  -0.38431  -0.38221  -0.38051
 Alpha  occ. eigenvalues --   -0.37917  -0.37892  -0.37620  -0.37516  -0.37162
 Alpha  occ. eigenvalues --   -0.37064  -0.37042  -0.36901  -0.36712  -0.36552
 Alpha  occ. eigenvalues --   -0.36418  -0.36334  -0.36177  -0.35922  -0.35756
 Alpha  occ. eigenvalues --   -0.35452  -0.35362  -0.35114  -0.34962  -0.34645
 Alpha  occ. eigenvalues --   -0.34518  -0.34237  -0.34092  -0.33802  -0.33541
 Alpha  occ. eigenvalues --   -0.33376  -0.33332  -0.33102  -0.33014  -0.32691
 Alpha  occ. eigenvalues --   -0.32512  -0.32370  -0.32280  -0.32255  -0.31918
 Alpha  occ. eigenvalues --   -0.31669  -0.31573  -0.30945  -0.30685  -0.29920
 Alpha  occ. eigenvalues --   -0.29656  -0.29478  -0.28185  -0.27812  -0.27639
 Alpha  occ. eigenvalues --   -0.27301  -0.27236  -0.27169  -0.26793  -0.26645
 Alpha  occ. eigenvalues --   -0.26493  -0.26097  -0.26061  -0.25669  -0.25019
 Alpha  occ. eigenvalues --   -0.24853  -0.24494  -0.24317  -0.23996  -0.23542
 Alpha  occ. eigenvalues --   -0.23392  -0.23312  -0.22948  -0.22651  -0.22420
 Alpha  occ. eigenvalues --   -0.22334  -0.22216  -0.22171  -0.21298  -0.21090
 Alpha  occ. eigenvalues --   -0.20871  -0.20483  -0.20004  -0.19367  -0.19127
 Alpha  occ. eigenvalues --   -0.18602  -0.18404  -0.16967
 Alpha virt. eigenvalues --   -0.10212  -0.04600  -0.04231  -0.02624  -0.02379
 Alpha virt. eigenvalues --   -0.02364  -0.01396  -0.01067  -0.00962  -0.00574
 Alpha virt. eigenvalues --    0.00573   0.00957   0.01437   0.01673   0.01812

 Mulliken charges:
               1
     1  C    0.078802
     2  C    0.019724
     3  O   -0.300286
     4  H   -0.006380
     5  H    0.036986
     6  H    0.047802
     7  N   -0.109117
     8  C    0.106363
     9  C    0.062781
    10  O   -0.295883
    11  C    0.038534
    12  C    0.126703
    13  O   -0.392822
    14  O   -0.456822
    15  H    0.123681
    16  H    0.030581
    17  H    0.025744
    18  H    0.001125
    19  N   -0.159178
    20  C    0.191508
    21  C    0.013971
    22  O   -0.314842
    23  C   -0.025682
    24  C    0.108125
    25  C   -0.045019
    26  C    0.018951
    27  N    0.074689
    28  H    0.140232
    29  H    0.020643
    30  H    0.004421
    31  H    0.028242
    32  H    0.015496
    33  H    0.032615
    34  H    0.007812
    35  H    0.004533
    36  H    0.095382
    37  H    0.074314
    38  H    0.184246
    39  H    0.187447
    40  H    0.201787
    41  N   -0.110135
    42  C    0.113052
    43  C    0.044065
    44  O   -0.282204
    45  C    0.114270
    46  C    0.113572
    47  O   -0.497127
    48  O   -0.388124
    49  H    0.139547
    50  H    0.018635
    51  H   -0.009328
    52  H    0.016648
    53  N   -0.147948
    54  C    0.210405
    55  C    0.081296
    56  O   -0.297352
    57  H    0.137882
    58  H    0.018091
    59  H    0.023882
    60  N   -0.128578
    61  C    0.119170
    62  C    0.038668
    63  O   -0.294321
    64  C    0.050131
    65  C    0.047009
    66  N   -0.038963
    67  O   -0.340570
    68  H    0.150616
    69  H    0.015572
    70  H    0.059997
    71  H   -0.000826
    72  H    0.141478
    73  H    0.118666
    74  N   -0.180562
    75  C    0.262571
    76  C    0.005666
    77  O   -0.329759
    78  H    0.164057
    79  H    0.025782
    80  H    0.026255
    81  N   -0.122476
    82  C    0.148719
    83  C    0.103451
    84  O   -0.326625
    85  C    0.126197
    86  C   -0.027301
    87  C    0.015101
    88  C   -0.008260
    89  C   -0.073352
    90  C   -0.062977
    91  C    0.173469
    92  O   -0.210528
    93  H    0.162060
    94  H   -0.010881
    95  H    0.012092
    96  H    0.001013
    97  H   -0.000339
    98  H   -0.021866
    99  H   -0.023728
   100  H   -0.036518
   101  H    0.175961
   102  N   -0.107079
   103  C    0.153232
   104  C    0.083703
   105  O   -0.281108
   106  C   -0.129816
   107  C   -0.036188
   108  C    0.073562
   109  C    0.072774
   110  H    0.125170
   111  H    0.012557
   112  H   -0.010767
   113  H   -0.012349
   114  H    0.005985
   115  H    0.028483
   116  H   -0.013980
   117  H    0.014018
   118  H    0.014992
   119  H    0.014289
   120  H    0.001209
   121  N   -0.122918
   122  C    0.101371
   123  C    0.110836
   124  O   -0.270366
   125  C    0.165613
   126  O   -0.288509
   127  H    0.154756
   128  H    0.022114
   129  H    0.026594
   130  H   -0.012179
   131  H    0.181847
   132  N   -0.141508
   133  C    0.099429
   134  C    0.038652
   135  O   -0.240499
   136  C    0.057766
   137  H    0.117689
   138  H    0.023522
   139  H    0.041083
   140  H   -0.001968
   141  H    0.033369
   142  N   -0.130205
   143  C    0.094267
   144  C    0.068484
   145  O   -0.292701
   146  C    0.038152
   147  H    0.096916
   148  H    0.019300
   149  H    0.000356
   150  H    0.011700
   151  H    0.025378
   152  N   -0.149625
   153  C    0.133130
   154  C    0.082842
   155  O   -0.289107
   156  C   -0.038057
   157  C    0.132813
   158  C    0.124666
   159  O   -0.424584
   160  O   -0.398913
   161  H    0.140647
   162  H   -0.050819
   163  H    0.047442
   164  H    0.012685
   165  H   -0.043172
   166  H   -0.045772
   167  N   -0.168317
   168  C    0.152740
   169  H    0.014198
   170  H    0.012303
   171  H    0.024687
   172  H    0.131993
   173  Ca   1.336352
   174  O   -0.307076
   175  H    0.168939
   176  H    0.161368
 Sum of Mulliken charges =  -0.00000

 Dipole moment (field-independent basis, Debye):
    X=             33.6023    Y=              4.7661    Z=            -15.9131  Tot=             37.4841
 Quadrupole moment (field-independent basis, Debye-Ang):
   XX=           -637.7896   YY=           -440.5108   ZZ=           -507.3356
   XY=            111.9103   XZ=            -68.1694   YZ=             -2.1042

 ESP charges:
               1
     1  C   -0.441333
     2  C    0.810203
     3  O   -0.643809
     4  H    0.084004
     5  H    0.133113
     6  H    0.142027
     7  N   -0.770042
     8  C    0.254270
     9  C    0.674341
    10  O   -0.591392
    11  C   -0.525146
    12  C    0.979147
    13  O   -0.660248
    14  O   -0.875045
    15  H    0.381466
    16  H    0.101508
    17  H    0.121852
    18  H    0.114380
    19  N   -0.443710
    20  C   -0.165269
    21  C    0.564550
    22  O   -0.589996
    23  C    0.195389
    24  C   -0.229312
    25  C    0.056861
    26  C    0.155272
    27  N   -0.494321
    28  H    0.289705
    29  H    0.134213
    30  H   -0.017080
    31  H    0.015064
    32  H    0.070117
    33  H    0.101361
    34  H   -0.014748
    35  H    0.009399
    36  H    0.066844
    37  H    0.043659
    38  H    0.347816
    39  H    0.362242
    40  H    0.366287
    41  N   -0.372841
    42  C    0.080915
    43  C    0.421588
    44  O   -0.530449
    45  C   -0.196130
    46  C    0.774854
    47  O   -0.818434
    48  O   -0.713372
    49  H    0.243861
    50  H    0.091205
    51  H    0.065557
    52  H    0.071859
    53  N   -0.218380
    54  C   -0.193102
    55  C    0.505044
    56  O   -0.552523
    57  H    0.208181
    58  H    0.116481
    59  H    0.123173
    60  N   -0.196562
    61  C   -0.119002
    62  C    0.521403
    63  O   -0.580468
    64  C   -0.352115
    65  C    0.692271
    66  N   -0.896858
    67  O   -0.516357
    68  H    0.264146
    69  H    0.149427
    70  H    0.158133
    71  H    0.107842
    72  H    0.426990
    73  H    0.440826
    74  N   -0.134938
    75  C   -0.145526
    76  C    0.555533
    77  O   -0.585992
    78  H    0.111380
    79  H    0.097893
    80  H    0.113657
    81  N   -0.180276
    82  C   -0.053284
    83  C    0.854230
    84  O   -0.682297
    85  C   -0.309139
    86  C    0.152092
    87  C   -0.116912
    88  C   -0.200372
    89  C   -0.346551
    90  C   -0.271190
    91  C    0.344976
    92  O   -0.541935
    93  H   -0.014516
    94  H    0.099014
    95  H    0.131747
    96  H    0.091728
    97  H    0.158419
    98  H    0.158484
    99  H    0.162392
   100  H    0.153284
   101  H    0.404980
   102  N   -0.729565
   103  C    0.273023
   104  C    0.607295
   105  O   -0.566447
   106  C   -0.192331
   107  C    0.519242
   108  C   -0.084010
   109  C   -0.459854
   110  H    0.306050
   111  H    0.047147
   112  H    0.047153
   113  H   -0.124139
   114  H   -0.074760
   115  H   -0.037565
   116  H    0.043105
   117  H    0.030040
   118  H    0.102551
   119  H    0.094282
   120  H    0.090570
   121  N   -0.532566
   122  C    0.203537
   123  C    0.450552
   124  O   -0.351974
   125  C   -0.007891
   126  O   -0.444577
   127  H    0.368525
   128  H    0.027456
   129  H    0.057578
   130  H    0.031141
   131  H    0.380251
   132  N   -0.520459
   133  C    0.226200
   134  C    0.551415
   135  O   -0.533350
   136  C   -0.358266
   137  H    0.311143
   138  H    0.050324
   139  H    0.118356
   140  H    0.088181
   141  H    0.108704
   142  N   -0.543945
   143  C    0.263825
   144  C    0.278263
   145  O   -0.540716
   146  C   -0.397824
   147  H    0.287536
   148  H    0.080656
   149  H    0.075430
   150  H    0.120280
   151  H    0.117782
   152  N    0.291586
   153  C   -0.518372
   154  C    0.543729
   155  O   -0.558931
   156  C    0.134155
   157  C   -0.273752
   158  C    0.737960
   159  O   -0.781400
   160  O   -0.710562
   161  H   -0.173864
   162  H    0.173867
   163  H    0.101210
   164  H    0.045728
   165  H   -0.010591
   166  H    0.085007
   167  N   -0.035400
   168  C   -0.247110
   169  H    0.079315
   170  H    0.095720
   171  H    0.110280
   172  H    0.117384
   173  Ca   1.634678
   174  O   -0.847587
   175  H    0.433970
   176  H    0.387939
 Sum of ESP charges =   0.00000

 Normal termination of Gaussian 16 at Sat Sep 14 23:35:48 2019.
