 Gaussian 09, Revision D.01,
 Gaussian 09:  ES64L-G09RevD.01 24-Apr-2013

 ----------------------------------------------------------------------
 #maxdisk=50GB #B3LYP/SVP Density=Current scf=(tight) #IOP(5/87=12)Pop=
 (MK,readradii) iop(6/33=2) iop(6/42=6)
 ----------------------------------------------------------------------

 ------------
 SOL molecule
 ------------
 Symbolic Z-matrix:
 Charge =  0 Multiplicity = 1

                         Standard orientation:
 ---------------------------------------------------------------------
 Center     Atomic      Atomic             Coordinates (Angstroms)
 Number     Number       Type             X           Y           Z
 ---------------------------------------------------------------------
      1          6           0        1.795140    1.036783    5.741589
      2          6           0        1.194031    1.121477    4.345274
      3          8           0        1.862388    0.852917    3.351657
      4          1           0        2.804795    0.630655    5.678315
      5          1           0        1.831866    2.032364    6.182545
      6          1           0        1.181159    0.385717    6.363360
      7          7           0       -0.067023    1.555350    4.245281
      8          6           0       -0.809912    1.744633    3.014676
      9          6           0       -0.606629    3.150915    2.473616
     10          8           0       -1.359836    4.060928    2.797277
     11          6           0       -2.253757    1.364732    3.369061
     12          6           0       -3.091021    1.242880    2.108649
     13          8           0       -2.518694    1.454187    1.013025
     14          8           0       -4.299318    0.921134    2.260956
     15          1           0       -0.481743    1.763201    5.139990
     16          1           0       -0.484255    1.125660    2.184363
     17          1           0       -2.682559    2.039847    4.107674
     18          1           0       -2.276058    0.348182    3.747779
     19          7           0        0.476715    3.352328    1.721887
     20          6           0        1.005626    4.637987    1.288141
     21          6           0       -0.021814    5.596994    0.700542
     22          8           0        0.190860    6.805527    0.778115
     23          6           0        2.093069    4.359788    0.245801
     24          6           0        2.848821    5.581141   -0.278541
     25          6           0        4.216418    5.142280   -0.775811
     26          6           0        4.978716    6.333044   -1.340421
     27          7           0        6.055592    5.870361   -2.231916
     28          1           0        0.919266    2.485250    1.474050
     29          1           0        1.447111    5.169385    2.123430
     30          1           0        1.682125    3.783438   -0.582659
     31          1           0        2.781465    3.669763    0.722955
     32          1           0        2.982751    6.258846    0.566964
     33          1           0        2.374491    6.137287   -1.086077
     34          1           0        4.115836    4.415144   -1.583311
     35          1           0        4.864589    4.807577    0.038283
     36          1           0        5.327955    6.984231   -0.534141
     37          1           0        4.296252    6.866525   -2.010601
     38          1           0        6.563896    5.102947   -1.839484
     39          1           0        5.633394    5.589810   -3.113074
     40          1           0        6.696744    6.639812   -2.406758
     41          7           0       -0.994555    5.068049   -0.041680
     42          6           0       -1.900149    5.834761   -0.873156
     43          6           0       -3.354287    5.545216   -0.536933
     44          8           0       -4.267963    6.270545   -0.931006
     45          6           0       -1.591373    5.505022   -2.330733
     46          6           0       -1.188322    4.046988   -2.528443
     47          8           0       -1.460514    3.114222   -1.739926
     48          8           0       -0.575424    3.737260   -3.574304
     49          1           0       -1.036813    4.059155   -0.109105
     50          1           0       -1.745412    6.902599   -0.730405
     51          1           0       -0.796288    6.147162   -2.714133
     52          1           0       -2.348905    5.822449   -3.047660
     53          7           0       -3.623037    4.489706    0.233633
     54          6           0       -4.880852    4.085443    0.840406
     55          6           0       -5.787200    3.294987   -0.089710
     56          8           0       -6.598675    3.953448   -0.736732
     57          1           0       -2.826543    3.948203    0.545996
     58          1           0       -5.374501    4.977542    1.247186
     59          1           0       -4.494066    3.411926    1.603669
     60          7           0       -5.696683    1.962411   -0.157869
     61          6           0       -6.573421    1.143022   -0.956888
     62          6           0       -6.945281   -0.156659   -0.263454
     63          8           0       -7.799590   -0.867348   -0.798691
     64          6           0       -6.041237    0.838063   -2.357239
     65          6           0       -4.826249   -0.077640   -2.469890
     66          7           0       -4.624004   -0.607341   -3.683609
     67          8           0       -4.029148   -0.310678   -1.564779
     68          1           0       -4.909863    1.614779    0.375673
     69          1           0       -7.570558    1.559157   -1.079975
     70          1           0       -5.785863    1.802021   -2.777320
     71          1           0       -6.894960    0.442752   -2.898520
     72          1           0       -5.285550   -0.441420   -4.421327
     73          1           0       -3.777676   -1.114240   -3.893567
     74          7           0       -6.405215   -0.540214    0.902957
     75          6           0       -6.593243   -1.788614    1.609669
     76          6           0       -5.448361   -2.754975    1.345298
     77          8           0       -5.682215   -3.915663    1.677435
     78          1           0       -5.632537    0.052326    1.171965
     79          1           0       -7.518932   -2.224985    1.251786
     80          1           0       -6.622527   -1.543544    2.680315
     81          7           0       -4.268135   -2.260701    0.960512
     82          6           0       -3.196798   -3.166195    0.605662
     83          6           0       -1.833981   -2.507528    0.808614
     84          8           0       -1.565539   -1.354922    0.488239
     85          6           0       -3.383436   -3.587932   -0.852626
     86          6           0       -4.629078   -4.402377   -1.082096
     87          6           0       -4.631711   -5.788571   -0.896192
     88          6           0       -5.836256   -3.802972   -1.490304
     89          6           0       -5.817226   -6.504306   -1.081605
     90          6           0       -7.029557   -4.529466   -1.609207
     91          6           0       -7.041227   -5.928502   -1.482069
     92          8           0       -8.158813   -6.679313   -1.704295
     93          1           0       -4.101554   -1.267343    0.940744
     94          1           0       -3.233133   -3.989050    1.311771
     95          1           0       -2.512806   -4.123448   -1.213217
     96          1           0       -3.400703   -2.655771   -1.419526
     97          1           0       -3.750463   -6.347159   -0.606741
     98          1           0       -5.781859   -2.755094   -1.703830
     99          1           0       -5.803072   -7.572195   -0.896369
    100          1           0       -7.949437   -4.010883   -1.872063
    101          1           0       -8.882709   -6.049331   -1.744260
    102          7           0       -0.886331   -3.289662    1.335798
    103          6           0        0.560354   -3.131714    1.279623
    104          6           0        1.236892   -4.066101    0.289008
    105          8           0        1.011444   -5.272586    0.267405
    106          6           0        1.083912   -3.509552    2.660031
    107          6           0        0.233284   -3.244041    3.906962
    108          6           0        2.471042   -2.924377    2.885513
    109          6           0        0.778984   -3.803543    5.207949
    110          1           0       -1.196555   -4.229237    1.517349
    111          1           0        0.839408   -2.128596    0.952846
    112          1           0        1.246379   -4.584901    2.718587
    113          1           0       -0.684904   -3.816773    3.730873
    114          1           0        0.016301   -2.193523    4.119166
    115          1           0        2.543222   -1.909487    3.268641
    116          1           0        3.153822   -3.511380    3.509483
    117          1           0        3.015358   -2.936220    1.939955
    118          1           0        0.082576   -3.518222    5.998017
    119          1           0        0.768830   -4.892000    5.161482
    120          1           0        1.801267   -3.441909    5.315464
    121          7           0        2.238874   -3.536706   -0.414677
    122          6           0        3.201735   -4.207536   -1.258469
    123          6           0        4.610704   -3.806601   -0.849742
    124          8           0        4.831235   -2.956239    0.012784
    125          6           0        3.019054   -3.847232   -2.726601
    126          8           0        3.302433   -2.477614   -2.856759
    127          1           0        2.422285   -2.547795   -0.333960
    128          1           0        3.005876   -5.281578   -1.199552
    129          1           0        1.969947   -4.017429   -3.006256
    130          1           0        3.732012   -4.383792   -3.355405
    131          1           0        3.393979   -2.221098   -3.774320
    132          7           0        5.644301   -4.445366   -1.403417
    133          6           0        7.009989   -4.292135   -0.952623
    134          6           0        7.566006   -2.879501   -0.979254
    135          8           0        8.001897   -2.412066    0.075072
    136          6           0        7.922107   -5.302999   -1.625822
    137          1           0        5.474884   -5.310832   -1.891031
    138          1           0        6.907538   -4.518237    0.111417
    139          1           0        8.920133   -5.252328   -1.201585
    140          1           0        7.487876   -6.280558   -1.403289
    141          1           0        7.946989   -5.219883   -2.713054
    142          7           0        7.628205   -2.191495   -2.117621
    143          6           0        8.012850   -0.789886   -2.123998
    144          6           0        7.227882    0.116816   -1.182130
    145          8           0        7.824152    1.139168   -0.838680
    146          6           0        7.760360   -0.300764   -3.544881
    147          1           0        7.373676   -2.735225   -2.933018
    148          1           0        9.055109   -0.668905   -1.815519
    149          1           0        6.734921   -0.386924   -3.904396
    150          1           0        7.924437    0.776881   -3.584384
    151          1           0        8.563043   -0.728278   -4.150052
    152          7           0        5.968488   -0.185521   -0.849234
    153          6           0        5.371419    0.642344    0.183069
    154          6           0        5.772213    0.262262    1.599861
    155          8           0        6.058169    1.167443    2.384193
    156          6           0        3.872397    0.385226    0.171968
    157          6           0        3.145964    1.085272   -0.977088
    158          6           0        1.644138    0.827025   -0.997721
    159          8           0        0.897849    1.345701   -0.147175
    160          8           0        1.153761    0.056885   -1.853300
    161          1           0        5.594378   -1.119162   -0.943334
    162          1           0        5.613393    1.692955   -0.002041
    163          1           0        3.429624    0.692679    1.115591
    164          1           0        3.717662   -0.688222    0.050862
    165          1           0        3.725208    0.839230   -1.863226
    166          1           0        3.290107    2.158051   -0.842296
    167          7           0        5.945307   -1.024280    1.890117
    168          6           0        6.680740   -1.411172    3.083370
    169          1           0        7.690844   -1.711524    2.804965
    170          1           0        6.729052   -0.566735    3.770664
    171          1           0        6.174399   -2.246145    3.568310
    172          1           0        5.553082   -1.732476    1.281580
    173         20           0       -1.412212    0.593243   -1.182851
    174          8           0       -1.576242    1.019339   -3.765802
    175          1           0       -1.620167    0.703080   -4.670098
    176          1           0       -1.388157    1.960514   -3.859153
 ---------------------------------------------------------------------

 SCF Done:  E(RB3LYP) =  -5333.59689142     A.U. after   18 cycles

 The electronic state is 1-A.
 Alpha  occ. eigenvalues -- -145.36792 -19.16623 -19.15684 -19.15084 -19.13320
 Alpha  occ. eigenvalues --  -19.12955 -19.12678 -19.11966 -19.11561 -19.10542
 Alpha  occ. eigenvalues --  -19.07437 -19.06578 -19.06395 -19.06229 -19.06069
 Alpha  occ. eigenvalues --  -19.05798 -19.05662 -19.05614 -19.05463 -19.04899
 Alpha  occ. eigenvalues --  -19.04229 -19.03802 -19.02723 -19.02323 -15.42547
 Alpha  occ. eigenvalues --  -14.57612 -14.40917 -14.38922 -14.37903 -14.37382
 Alpha  occ. eigenvalues --  -14.37187 -14.35963 -14.33539 -14.33522 -14.32241
 Alpha  occ. eigenvalues --  -14.31020 -14.30962 -14.30714 -14.30119 -14.29013
 Alpha  occ. eigenvalues --  -12.56155 -12.56134 -12.56105 -10.33986 -10.33433
 Alpha  occ. eigenvalues --  -10.31070 -10.30894 -10.30823 -10.30291 -10.29177
 Alpha  occ. eigenvalues --  -10.27825 -10.27641 -10.27240 -10.26362 -10.25758
 Alpha  occ. eigenvalues --  -10.25630 -10.25553 -10.25216 -10.25213 -10.24823
 Alpha  occ. eigenvalues --  -10.24811 -10.24604 -10.24169 -10.24057 -10.23900
 Alpha  occ. eigenvalues --  -10.23492 -10.23191 -10.23100 -10.22746 -10.22194
 Alpha  occ. eigenvalues --  -10.21834 -10.21780 -10.21480 -10.21342 -10.20915
 Alpha  occ. eigenvalues --  -10.19730 -10.19571 -10.19390 -10.19371 -10.19189
 Alpha  occ. eigenvalues --  -10.18891 -10.18780 -10.18522 -10.17964 -10.17745
 Alpha  occ. eigenvalues --  -10.17657 -10.17390 -10.17290 -10.17268 -10.17254
 Alpha  occ. eigenvalues --  -10.17022 -10.17006 -10.16944 -10.16702 -10.16579
 Alpha  occ. eigenvalues --  -10.15402 -10.14979  -1.79332  -1.12864  -1.09044
 Alpha  occ. eigenvalues --   -1.06974  -1.06907  -1.06694  -1.05648  -1.05465
 Alpha  occ. eigenvalues --   -1.05263  -1.05039  -1.04531  -1.03708  -1.03282
 Alpha  occ. eigenvalues --   -1.01074  -1.00560  -0.99979  -0.99569  -0.99478
 Alpha  occ. eigenvalues --   -0.99440  -0.99107  -0.98961  -0.98513  -0.97988
 Alpha  occ. eigenvalues --   -0.97809  -0.97162  -0.95701  -0.95222  -0.94741
 Alpha  occ. eigenvalues --   -0.94379  -0.92902  -0.92014  -0.91034  -0.90360
 Alpha  occ. eigenvalues --   -0.90289  -0.90033  -0.88959  -0.88517  -0.88465
 Alpha  occ. eigenvalues --   -0.88153  -0.87434  -0.87225  -0.86946  -0.85064
 Alpha  occ. eigenvalues --   -0.83698  -0.82977  -0.82238  -0.80532  -0.79679
 Alpha  occ. eigenvalues --   -0.79330  -0.78329  -0.77898  -0.77004  -0.76044
 Alpha  occ. eigenvalues --   -0.75266  -0.74500  -0.73345  -0.72455  -0.72288
 Alpha  occ. eigenvalues --   -0.71943  -0.71584  -0.71394  -0.70779  -0.70758
 Alpha  occ. eigenvalues --   -0.70718  -0.69897  -0.68804  -0.68376  -0.67712
 Alpha  occ. eigenvalues --   -0.66696  -0.66372  -0.65902  -0.65668  -0.64479
 Alpha  occ. eigenvalues --   -0.63241  -0.63226  -0.62550  -0.62263  -0.61883
 Alpha  occ. eigenvalues --   -0.61264  -0.61115  -0.60434  -0.60183  -0.59978
 Alpha  occ. eigenvalues --   -0.59745  -0.59391  -0.58792  -0.57740  -0.57298
 Alpha  occ. eigenvalues --   -0.57238  -0.57197  -0.56558  -0.56277  -0.56148
 Alpha  occ. eigenvalues --   -0.55763  -0.55648  -0.55209  -0.54801  -0.54761
 Alpha  occ. eigenvalues --   -0.54102  -0.53885  -0.53738  -0.53588  -0.53127
 Alpha  occ. eigenvalues --   -0.52766  -0.52533  -0.52272  -0.51768  -0.51576
 Alpha  occ. eigenvalues --   -0.51335  -0.51293  -0.50656  -0.50470  -0.50267
 Alpha  occ. eigenvalues --   -0.49595  -0.49248  -0.49026  -0.48488  -0.48309
 Alpha  occ. eigenvalues --   -0.48171  -0.48023  -0.47681  -0.47494  -0.47415
 Alpha  occ. eigenvalues --   -0.47351  -0.47123  -0.46951  -0.46800  -0.46710
 Alpha  occ. eigenvalues --   -0.46594  -0.46411  -0.45894  -0.45635  -0.45459
 Alpha  occ. eigenvalues --   -0.45347  -0.45126  -0.44899  -0.44871  -0.44605
 Alpha  occ. eigenvalues --   -0.44287  -0.44205  -0.44083  -0.43905  -0.43791
 Alpha  occ. eigenvalues --   -0.43558  -0.43378  -0.43272  -0.43195  -0.42978
 Alpha  occ. eigenvalues --   -0.42963  -0.42625  -0.42371  -0.42076  -0.42010
 Alpha  occ. eigenvalues --   -0.41820  -0.41690  -0.41627  -0.41459  -0.41385
 Alpha  occ. eigenvalues --   -0.41146  -0.41080  -0.40911  -0.40781  -0.40709
 Alpha  occ. eigenvalues --   -0.40612  -0.40470  -0.40359  -0.40069  -0.39859
 Alpha  occ. eigenvalues --   -0.39782  -0.39741  -0.39577  -0.39464  -0.39308
 Alpha  occ. eigenvalues --   -0.39244  -0.39051  -0.38915  -0.38833  -0.38600
 Alpha  occ. eigenvalues --   -0.38344  -0.38244  -0.38213  -0.38083  -0.38044
 Alpha  occ. eigenvalues --   -0.37780  -0.37702  -0.37614  -0.37447  -0.37341
 Alpha  occ. eigenvalues --   -0.37258  -0.37000  -0.36512  -0.36304  -0.36234
 Alpha  occ. eigenvalues --   -0.35802  -0.35643  -0.35501  -0.35392  -0.35319
 Alpha  occ. eigenvalues --   -0.34903  -0.34842  -0.34762  -0.34429  -0.34390
 Alpha  occ. eigenvalues --   -0.34180  -0.34145  -0.34053  -0.33762  -0.33551
 Alpha  occ. eigenvalues --   -0.33305  -0.32831  -0.32518  -0.32466  -0.32416
 Alpha  occ. eigenvalues --   -0.32267  -0.32129  -0.32075  -0.31823  -0.31731
 Alpha  occ. eigenvalues --   -0.31530  -0.31360  -0.31183  -0.30801  -0.30753
 Alpha  occ. eigenvalues --   -0.30319  -0.29868  -0.29734  -0.29519  -0.28785
 Alpha  occ. eigenvalues --   -0.28312  -0.28208  -0.28180  -0.27618  -0.26741
 Alpha  occ. eigenvalues --   -0.25891  -0.25427  -0.25111  -0.24731  -0.24188
 Alpha  occ. eigenvalues --   -0.23915  -0.23522  -0.23430  -0.23394  -0.23208
 Alpha  occ. eigenvalues --   -0.23060  -0.22805  -0.22670  -0.22458  -0.22195
 Alpha  occ. eigenvalues --   -0.21853  -0.21474  -0.21385  -0.21235  -0.21164
 Alpha  occ. eigenvalues --   -0.20949  -0.20651  -0.20466  -0.20275  -0.20098
 Alpha  occ. eigenvalues --   -0.18657  -0.18165  -0.17385
 Alpha virt. eigenvalues --   -0.09675  -0.04278  -0.03959  -0.02719  -0.01607
 Alpha virt. eigenvalues --   -0.01404  -0.01347  -0.00505  -0.00185   0.00027
 Alpha virt. eigenvalues --    0.00327   0.00644   0.00867   0.01496   0.02292

 Mulliken charges:
               1
     1  C    0.039365
     2  C    0.015666
     3  O   -0.282322
     4  H    0.034955
     5  H    0.034677
     6  H    0.020284
     7  N   -0.113389
     8  C    0.116144
     9  C    0.031797
    10  O   -0.285004
    11  C    0.101213
    12  C    0.179919
    13  O   -0.468842
    14  O   -0.413314
    15  H    0.110969
    16  H    0.014699
    17  H    0.017669
    18  H   -0.001855
    19  N   -0.121858
    20  C    0.170652
    21  C    0.069569
    22  O   -0.305174
    23  C   -0.032998
    24  C    0.051071
    25  C   -0.077009
    26  C    0.021386
    27  N    0.076907
    28  H    0.144763
    29  H   -0.007604
    30  H    0.054974
    31  H    0.027873
    32  H    0.011975
    33  H    0.025178
    34  H    0.023567
    35  H    0.052474
    36  H    0.086191
    37  H    0.056516
    38  H    0.196834
    39  H    0.200030
    40  H    0.191754
    41  N   -0.159304
    42  C    0.139711
    43  C    0.055236
    44  O   -0.282880
    45  C    0.088507
    46  C    0.126112
    47  O   -0.479158
    48  O   -0.405778
    49  H    0.163316
    50  H    0.013851
    51  H   -0.022979
    52  H    0.019277
    53  N   -0.156289
    54  C    0.259679
    55  C    0.011516
    56  O   -0.285794
    57  H    0.123669
    58  H    0.021049
    59  H   -0.000385
    60  N   -0.154832
    61  C    0.174168
    62  C    0.000909
    63  O   -0.318014
    64  C    0.061942
    65  C    0.088333
    66  N   -0.038290
    67  O   -0.338689
    68  H    0.137692
    69  H    0.031532
    70  H    0.055850
    71  H    0.026396
    72  H    0.124534
    73  H    0.118854
    74  N   -0.160831
    75  C    0.259907
    76  C    0.028953
    77  O   -0.292160
    78  H    0.129048
    79  H    0.031568
    80  H    0.039190
    81  N   -0.156557
    82  C    0.110516
    83  C    0.116531
    84  O   -0.356700
    85  C    0.175435
    86  C   -0.025588
    87  C    0.004460
    88  C    0.035773
    89  C   -0.031081
    90  C   -0.047385
    91  C    0.175991
    92  O   -0.187891
    93  H    0.135904
    94  H   -0.000233
    95  H   -0.019303
    96  H   -0.029564
    97  H   -0.045380
    98  H   -0.044621
    99  H   -0.035564
   100  H   -0.032473
   101  H    0.174671
   102  N   -0.106233
   103  C    0.168789
   104  C    0.067074
   105  O   -0.279971
   106  C   -0.094470
   107  C    0.042337
   108  C    0.024071
   109  C    0.019942
   110  H    0.131359
   111  H    0.028104
   112  H   -0.009078
   113  H   -0.025060
   114  H    0.015724
   115  H    0.036430
   116  H   -0.001734
   117  H   -0.033965
   118  H    0.015051
   119  H   -0.001127
   120  H    0.014099
   121  N   -0.117490
   122  C    0.080632
   123  C    0.119688
   124  O   -0.290141
   125  C    0.232416
   126  O   -0.298122
   127  H    0.156995
   128  H    0.037388
   129  H    0.025888
   130  H   -0.019019
   131  H    0.170249
   132  N   -0.114156
   133  C    0.082390
   134  C    0.017184
   135  O   -0.253113
   136  C    0.040418
   137  H    0.116307
   138  H    0.017312
   139  H    0.052120
   140  H    0.024554
   141  H    0.015786
   142  N   -0.125571
   143  C    0.136405
   144  C    0.067895
   145  O   -0.298942
   146  C    0.036422
   147  H    0.109760
   148  H    0.026019
   149  H    0.017369
   150  H    0.001724
   151  H    0.023495
   152  N   -0.130365
   153  C    0.116318
   154  C    0.071832
   155  O   -0.286973
   156  C   -0.058888
   157  C    0.161863
   158  C    0.149244
   159  O   -0.423949
   160  O   -0.425310
   161  H    0.132882
   162  H   -0.028486
   163  H    0.060152
   164  H   -0.018790
   165  H   -0.049445
   166  H   -0.061346
   167  N   -0.165634
   168  C    0.133799
   169  H    0.024782
   170  H    0.036737
   171  H    0.000750
   172  H    0.130434
   173  Ca   1.298834
   174  O   -0.329070
   175  H    0.164380
   176  H    0.170988
 Sum of Mulliken charges =   0.00000

 Dipole moment (field-independent basis, Debye):
    X=             34.0339    Y=             -4.6497    Z=            -17.5636  Tot=             38.5798
 Quadrupole moment (field-independent basis, Debye-Ang):
   XX=           -533.6279   YY=           -533.3773   ZZ=           -488.7037
   XY=            104.8044   XZ=            -83.0239   YZ=            -16.9553

 ESP charges:
               1
     1  C   -0.446838
     2  C    0.935689
     3  O   -0.702851
     4  H    0.129755
     5  H    0.104941
     6  H    0.099388
     7  N   -0.900477
     8  C    0.551702
     9  C    0.551458
    10  O   -0.554079
    11  C   -0.261295
    12  C    0.657850
    13  O   -0.616637
    14  O   -0.635439
    15  H    0.364299
    16  H   -0.047523
    17  H    0.068508
    18  H    0.057489
    19  N   -0.542989
    20  C    0.107887
    21  C    0.519164
    22  O   -0.591919
    23  C    0.017847
    24  C   -0.463203
    25  C    0.337570
    26  C    0.042354
    27  N   -0.448382
    28  H    0.320858
    29  H    0.057934
    30  H    0.113136
    31  H    0.063012
    32  H    0.105384
    33  H    0.136099
    34  H   -0.033122
    35  H   -0.006152
    36  H    0.077248
    37  H    0.049386
    38  H    0.337429
    39  H    0.356495
    40  H    0.346914
    41  N   -0.141000
    42  C    0.018426
    43  C    0.354730
    44  O   -0.531093
    45  C   -0.247433
    46  C    0.708345
    47  O   -0.694578
    48  O   -0.704931
    49  H    0.000245
    50  H    0.107522
    51  H    0.067180
    52  H    0.110680
    53  N    0.163079
    54  C   -0.399887
    55  C    0.754165
    56  O   -0.567849
    57  H   -0.093282
    58  H    0.146788
    59  H    0.151861
    60  N   -0.618418
    61  C    0.150173
    62  C    0.418806
    63  O   -0.549060
    64  C   -0.351909
    65  C    0.691324
    66  N   -0.895761
    67  O   -0.524680
    68  H    0.219723
    69  H    0.109438
    70  H    0.157308
    71  H    0.104739
    72  H    0.400279
    73  H    0.418556
    74  N   -0.138423
    75  C   -0.419013
    76  C    0.726388
    77  O   -0.539084
    78  H    0.188796
    79  H    0.190460
    80  H    0.161751
    81  N   -0.629511
    82  C   -0.001072
    83  C    0.775217
    84  O   -0.639373
    85  C   -0.031313
    86  C    0.086208
    87  C   -0.239359
    88  C   -0.277330
    89  C   -0.143639
    90  C   -0.235828
    91  C    0.341901
    92  O   -0.545980
    93  H    0.398760
    94  H    0.104131
    95  H    0.032824
    96  H   -0.018384
    97  H    0.138972
    98  H    0.231024
    99  H    0.123446
   100  H    0.124764
   101  H    0.412148
   102  N   -0.790651
   103  C    0.181530
   104  C    0.528192
   105  O   -0.552474
   106  C    0.162964
   107  C    0.179533
   108  C   -0.080811
   109  C   -0.297812
   110  H    0.344746
   111  H    0.055762
   112  H   -0.020604
   113  H   -0.026842
   114  H   -0.023655
   115  H    0.020083
   116  H    0.055217
   117  H   -0.116443
   118  H    0.083996
   119  H    0.064303
   120  H    0.040857
   121  N   -0.318451
   122  C    0.086171
   123  C    0.352703
   124  O   -0.229882
   125  C   -0.035120
   126  O   -0.495391
   127  H    0.246642
   128  H    0.081365
   129  H    0.094870
   130  H    0.036297
   131  H    0.402097
   132  N   -0.479701
   133  C    0.301344
   134  C    0.424147
   135  O   -0.513109
   136  C   -0.434828
   137  H    0.301310
   138  H    0.029903
   139  H    0.146255
   140  H    0.116983
   141  H    0.111318
   142  N   -0.413002
   143  C    0.204468
   144  C    0.420680
   145  O   -0.544991
   146  C   -0.422309
   147  H    0.259386
   148  H    0.079319
   149  H    0.119836
   150  H    0.107118
   151  H    0.116507
   152  N   -0.231347
   153  C    0.439837
   154  C    0.368546
   155  O   -0.546738
   156  C   -0.366099
   157  C    0.116485
   158  C    0.680867
   159  O   -0.646444
   160  O   -0.785454
   161  H    0.048132
   162  H   -0.098707
   163  H    0.115683
   164  H    0.089841
   165  H   -0.052070
   166  H   -0.091526
   167  N   -0.053755
   168  C   -0.199297
   169  H    0.081509
   170  H    0.106311
   171  H    0.064638
   172  H    0.072553
   173  Ca   1.573924
   174  O   -0.832417
   175  H    0.402132
   176  H    0.412709
 Sum of ESP charges =   0.00000

 Normal termination of Gaussian 09 at Mon Sep 16 12:04:55 2019.
