 Gaussian 09, Revision D.01,
 Gaussian 09:  ES64L-G09RevD.01 24-Apr-2013

 ----------------------------------------------------------------------
 #maxdisk=50GB #B3LYP/SVP Density=Current scf=(tight) #IOP(5/87=12)Pop=
 (MK,readradii) iop(6/33=2) iop(6/42=6)
 ----------------------------------------------------------------------

 ------------
 SOL molecule
 ------------
 Symbolic Z-matrix:
 Charge =  0 Multiplicity = 1

                         Standard orientation:
 ---------------------------------------------------------------------
 Center     Atomic      Atomic             Coordinates (Angstroms)
 Number     Number       Type             X           Y           Z
 ---------------------------------------------------------------------
      1          6           0        2.678096    1.517498    5.247074
      2          6           0        1.845154    1.694864    3.982539
      3          8           0        2.423631    1.718034    2.902990
      4          1           0        3.725063    1.725093    5.024191
      5          1           0        2.326944    2.207446    6.013563
      6          1           0        2.579572    0.493131    5.606540
      7          7           0        0.513179    1.770338    4.003689
      8          6           0       -0.366361    1.820816    2.848370
      9          6           0       -0.383071    3.255345    2.355268
     10          8           0       -1.290792    4.000769    2.727809
     11          6           0       -1.720817    1.178301    3.164790
     12          6           0       -2.641281    1.183492    1.953130
     13          8           0       -3.861813    0.965896    2.123579
     14          8           0       -2.190803    1.385881    0.806523
     15          1           0        0.095533    1.675069    4.916101
     16          1           0        0.072714    1.211609    2.064227
     17          1           0       -2.211105    1.549181    4.065882
     18          1           0       -1.536956    0.132489    3.397969
     19          7           0        0.537280    3.676167    1.481619
     20          6           0        0.861096    5.024318    1.059088
     21          6           0       -0.098270    5.622013    0.034844
     22          8           0       -0.156343    6.831356   -0.146039
     23          6           0        2.346234    5.031199    0.725595
     24          6           0        3.045706    6.303783    0.240036
     25          6           0        4.565282    6.256940    0.096879
     26          6           0        4.892434    5.199785   -0.950544
     27          7           0        6.170825    5.461029   -1.647156
     28          1           0        1.224784    2.973192    1.240238
     29          1           0        0.727110    5.641206    1.942036
     30          1           0        2.570435    4.170349    0.092136
     31          1           0        2.756351    4.805962    1.707416
     32          1           0        2.821731    7.098219    0.963989
     33          1           0        2.693238    6.611250   -0.737937
     34          1           0        4.933386    5.956813    1.073569
     35          1           0        4.936849    7.242565   -0.180755
     36          1           0        4.121798    5.209143   -1.715287
     37          1           0        5.057951    4.190599   -0.575513
     38          1           0        6.264328    6.424340   -1.933841
     39          1           0        6.969596    5.309300   -1.042223
     40          1           0        6.319751    4.855056   -2.441459
     41          7           0       -0.891785    4.771811   -0.625829
     42          6           0       -1.991954    5.273793   -1.419393
     43          6           0       -3.364079    5.106561   -0.781736
     44          8           0       -4.429191    5.521584   -1.255754
     45          6           0       -1.927855    4.764408   -2.850937
     46          6           0       -2.177258    3.288862   -3.107769
     47          8           0       -2.314072    2.883144   -4.290340
     48          8           0       -2.218854    2.513305   -2.127575
     49          1           0       -0.738028    3.770581   -0.660431
     50          1           0       -1.880349    6.356120   -1.506060
     51          1           0       -0.923128    5.044969   -3.186806
     52          1           0       -2.657845    5.268261   -3.487135
     53          7           0       -3.360218    4.349681    0.313718
     54          6           0       -4.496369    4.100215    1.174431
     55          6           0       -5.525599    3.148771    0.569335
     56          8           0       -6.702407    3.287329    0.893872
     57          1           0       -2.492754    4.018743    0.730595
     58          1           0       -5.006314    5.052928    1.267139
     59          1           0       -4.302667    3.726562    2.177158
     60          7           0       -5.160542    2.285737   -0.386545
     61          6           0       -6.123231    1.508326   -1.133714
     62          6           0       -6.392189    0.148322   -0.500115
     63          8           0       -7.042575   -0.643034   -1.184260
     64          6           0       -5.603588    1.417839   -2.567270
     65          6           0       -4.714884    0.202271   -2.743335
     66          7           0       -5.044136   -0.630111   -3.723606
     67          8           0       -3.852948   -0.129837   -1.932797
     68          1           0       -4.192343    2.169355   -0.632403
     69          1           0       -7.043243    2.079983   -1.203614
     70          1           0       -5.068584    2.306691   -2.887606
     71          1           0       -6.477743    1.273947   -3.209958
     72          1           0       -5.598945   -0.379659   -4.531851
     73          1           0       -4.524566   -1.503267   -3.711538
     74          7           0       -6.066734   -0.104233    0.774599
     75          6           0       -6.583934   -1.190319    1.586647
     76          6           0       -5.498774   -2.215389    1.854898
     77          8           0       -5.604935   -3.196698    2.585898
     78          1           0       -5.577357    0.619348    1.291165
     79          1           0       -7.389557   -1.681129    1.041692
     80          1           0       -6.989187   -0.778105    2.513443
     81          7           0       -4.352576   -2.078638    1.173333
     82          6           0       -3.337469   -3.095798    0.944764
     83          6           0       -1.906109   -2.564946    1.004797
     84          8           0       -1.716811   -1.480926    0.471632
     85          6           0       -3.542680   -3.575845   -0.483362
     86          6           0       -4.780315   -4.414189   -0.720931
     87          6           0       -4.644988   -5.801737   -0.617987
     88          6           0       -6.010845   -3.802561   -0.994991
     89          6           0       -5.819571   -6.556554   -0.700483
     90          6           0       -7.181791   -4.562945   -1.065006
     91          6           0       -7.084532   -5.959314   -0.930868
     92          8           0       -8.192488   -6.755057   -1.059037
     93          1           0       -4.157988   -1.190812    0.751431
     94          1           0       -3.393365   -3.896343    1.685644
     95          1           0       -2.662902   -4.128254   -0.793739
     96          1           0       -3.557017   -2.669367   -1.084437
     97          1           0       -3.648977   -6.219399   -0.533607
     98          1           0       -6.093894   -2.736036   -1.128131
     99          1           0       -5.801193   -7.633038   -0.633058
    100          1           0       -8.111905   -4.065570   -1.293272
    101          1           0       -9.011158   -6.265857   -1.067047
    102          7           0       -0.961105   -3.306515    1.576500
    103          6           0        0.470872   -3.093793    1.694785
    104          6           0        1.123557   -3.973841    0.639504
    105          8           0        1.030607   -5.197664    0.689687
    106          6           0        0.967656   -3.487488    3.080970
    107          6           0        0.580280   -2.428445    4.106722
    108          6           0        2.462622   -3.771523    3.151669
    109          6           0        0.943417   -2.773470    5.545537
    110          1           0       -1.295411   -4.192338    1.943863
    111          1           0        0.740542   -2.050093    1.520805
    112          1           0        0.523839   -4.435183    3.396568
    113          1           0       -0.509350   -2.357181    4.095444
    114          1           0        0.931705   -1.472499    3.725582
    115          1           0        2.815322   -4.512809    2.429935
    116          1           0        3.009856   -2.827790    3.060546
    117          1           0        2.635596   -4.258682    4.109822
    118          1           0        0.613309   -3.708589    5.993847
    119          1           0        2.010786   -2.638231    5.687431
    120          1           0        0.512646   -1.979782    6.161163
    121          7           0        1.909505   -3.334763   -0.233859
    122          6           0        2.740257   -3.910905   -1.277608
    123          6           0        4.215372   -3.887254   -0.935736
    124          8           0        4.658020   -3.222321    0.000922
    125          6           0        2.377935   -3.263573   -2.613903
    126          8           0        2.988050   -1.982902   -2.661227
    127          1           0        1.942517   -2.341476   -0.072948
    128          1           0        2.508760   -4.965074   -1.399826
    129          1           0        1.306146   -3.174712   -2.774753
    130          1           0        2.826352   -3.913807   -3.362981
    131          1           0        2.541755   -1.460459   -1.993788
    132          7           0        5.089234   -4.427015   -1.791553
    133          6           0        6.517410   -4.484825   -1.552446
    134          6           0        7.178378   -3.116067   -1.567296
    135          8           0        8.053516   -2.746776   -0.792339
    136          6           0        7.248106   -5.251267   -2.643890
    137          1           0        4.700688   -4.934216   -2.569486
    138          1           0        6.735306   -4.958525   -0.593369
    139          1           0        8.319449   -5.275412   -2.430016
    140          1           0        6.896058   -6.282370   -2.544443
    141          1           0        6.916676   -4.758661   -3.553446
    142          7           0        6.715089   -2.263870   -2.494401
    143          6           0        7.227383   -0.927294   -2.712623
    144          6           0        7.047871   -0.141959   -1.420832
    145          8           0        7.859725    0.739730   -1.136020
    146          6           0        6.492429   -0.244839   -3.868606
    147          1           0        6.058747   -2.619507   -3.174795
    148          1           0        8.285121   -0.803499   -2.909515
    149          1           0        6.763330    0.800503   -4.018177
    150          1           0        6.595478   -0.853721   -4.771016
    151          1           0        5.433070   -0.118562   -3.663881
    152          7           0        5.929477   -0.335374   -0.724566
    153          6           0        5.400400    0.364104    0.414472
    154          6           0        6.113009   -0.073392    1.686198
    155          8           0        6.698922    0.690540    2.440992
    156          6           0        3.890693    0.158359    0.402062
    157          6           0        3.255067    0.975248   -0.722915
    158          6           0        1.756354    0.714350   -0.683005
    159          8           0        1.277556   -0.401622   -0.977046
    160          8           0        0.858757    1.553220   -0.431977
    161          1           0        5.376105   -1.091653   -1.116893
    162          1           0        5.533741    1.451491    0.387822
    163          1           0        3.541607    0.590020    1.345199
    164          1           0        3.681351   -0.906519    0.332706
    165          1           0        3.578082    0.724174   -1.730150
    166          1           0        3.446368    2.039995   -0.640349
    167          7           0        6.162075   -1.395526    1.891514
    168          6           0        6.870288   -1.942765    3.027456
    169          1           0        7.942242   -1.809919    2.884136
    170          1           0        6.558571   -1.425321    3.934666
    171          1           0        6.644850   -3.005120    3.119341
    172          1           0        5.810651   -2.127971    1.290744
    173         20           0       -1.315691    0.344134   -1.347066
    174          8           0       -0.278546    1.018080   -3.792270
    175          1           0        0.451691    0.690478   -4.327369
    176          1           0       -0.687672    1.685497   -4.336854
 ---------------------------------------------------------------------

 SCF Done:  E(RB3LYP) =  -5333.63141463     A.U. after   18 cycles

 The electronic state is 1-A.
 Alpha  occ. eigenvalues -- -145.36880 -19.15204 -19.14581 -19.14338 -19.14083
 Alpha  occ. eigenvalues --  -19.12064 -19.12038 -19.10793 -19.10786 -19.10123
 Alpha  occ. eigenvalues --  -19.09820 -19.09472 -19.08411 -19.08289 -19.07828
 Alpha  occ. eigenvalues --  -19.07215 -19.05902 -19.05122 -19.04624 -19.04003
 Alpha  occ. eigenvalues --  -19.03603 -19.02923 -19.02900 -19.01923 -15.42625
 Alpha  occ. eigenvalues --  -14.58272 -14.40549 -14.38359 -14.37784 -14.37085
 Alpha  occ. eigenvalues --  -14.35944 -14.35436 -14.35219 -14.33241 -14.33119
 Alpha  occ. eigenvalues --  -14.32535 -14.31061 -14.30690 -14.29238 -14.28802
 Alpha  occ. eigenvalues --  -12.56242 -12.56201 -12.56182 -10.34907 -10.33074
 Alpha  occ. eigenvalues --  -10.30760 -10.30069 -10.29422 -10.28844 -10.28722
 Alpha  occ. eigenvalues --  -10.28644 -10.28538 -10.27697 -10.27357 -10.27128
 Alpha  occ. eigenvalues --  -10.26750 -10.26691 -10.26400 -10.26055 -10.25700
 Alpha  occ. eigenvalues --  -10.24701 -10.24509 -10.24484 -10.23665 -10.23646
 Alpha  occ. eigenvalues --  -10.23363 -10.23236 -10.23232 -10.23090 -10.22868
 Alpha  occ. eigenvalues --  -10.22793 -10.22517 -10.22258 -10.22156 -10.21789
 Alpha  occ. eigenvalues --  -10.21339 -10.21031 -10.20393 -10.20019 -10.19934
 Alpha  occ. eigenvalues --  -10.19795 -10.19701 -10.19570 -10.18919 -10.18710
 Alpha  occ. eigenvalues --  -10.18407 -10.18008 -10.17716 -10.17344 -10.17331
 Alpha  occ. eigenvalues --  -10.16780 -10.16777 -10.16527 -10.16342 -10.16245
 Alpha  occ. eigenvalues --  -10.16072 -10.14924  -1.79457  -1.13536  -1.07985
 Alpha  occ. eigenvalues --   -1.07200  -1.06933  -1.06851  -1.05425  -1.05098
 Alpha  occ. eigenvalues --   -1.04951  -1.04017  -1.03428  -1.03393  -1.03106
 Alpha  occ. eigenvalues --   -1.02848  -1.02573  -1.01227  -1.01204  -1.00448
 Alpha  occ. eigenvalues --   -1.00121  -0.99106  -0.98348  -0.98205  -0.97641
 Alpha  occ. eigenvalues --   -0.97164  -0.96774  -0.95887  -0.94941  -0.94537
 Alpha  occ. eigenvalues --   -0.93875  -0.93048  -0.92715  -0.91709  -0.91074
 Alpha  occ. eigenvalues --   -0.90046  -0.89522  -0.89459  -0.89011  -0.88967
 Alpha  occ. eigenvalues --   -0.88126  -0.87542  -0.87202  -0.86342  -0.85243
 Alpha  occ. eigenvalues --   -0.83744  -0.82871  -0.82570  -0.81361  -0.81232
 Alpha  occ. eigenvalues --   -0.79766  -0.78879  -0.77542  -0.77193  -0.76106
 Alpha  occ. eigenvalues --   -0.75046  -0.75002  -0.74298  -0.74152  -0.72754
 Alpha  occ. eigenvalues --   -0.72326  -0.72207  -0.72009  -0.71844  -0.71009
 Alpha  occ. eigenvalues --   -0.70181  -0.69284  -0.68938  -0.68644  -0.68333
 Alpha  occ. eigenvalues --   -0.67790  -0.67167  -0.65377  -0.64570  -0.64416
 Alpha  occ. eigenvalues --   -0.64273  -0.63629  -0.63298  -0.63056  -0.62064
 Alpha  occ. eigenvalues --   -0.61763  -0.61165  -0.60975  -0.60001  -0.59783
 Alpha  occ. eigenvalues --   -0.59711  -0.59136  -0.58572  -0.58228  -0.57778
 Alpha  occ. eigenvalues --   -0.57506  -0.57324  -0.56940  -0.56804  -0.56142
 Alpha  occ. eigenvalues --   -0.55586  -0.55574  -0.54927  -0.54675  -0.54560
 Alpha  occ. eigenvalues --   -0.54405  -0.54305  -0.53860  -0.53719  -0.53562
 Alpha  occ. eigenvalues --   -0.53129  -0.52904  -0.52728  -0.52510  -0.51928
 Alpha  occ. eigenvalues --   -0.51661  -0.51092  -0.50850  -0.50633  -0.50315
 Alpha  occ. eigenvalues --   -0.50156  -0.49878  -0.49817  -0.49332  -0.49132
 Alpha  occ. eigenvalues --   -0.48862  -0.48785  -0.48532  -0.48248  -0.47878
 Alpha  occ. eigenvalues --   -0.47554  -0.47376  -0.47015  -0.46904  -0.46875
 Alpha  occ. eigenvalues --   -0.46823  -0.46314  -0.46117  -0.45965  -0.45726
 Alpha  occ. eigenvalues --   -0.45582  -0.45467  -0.45322  -0.45051  -0.44908
 Alpha  occ. eigenvalues --   -0.44813  -0.44659  -0.44570  -0.44327  -0.44009
 Alpha  occ. eigenvalues --   -0.43774  -0.43723  -0.43631  -0.43486  -0.43192
 Alpha  occ. eigenvalues --   -0.42994  -0.42908  -0.42830  -0.42761  -0.42337
 Alpha  occ. eigenvalues --   -0.42265  -0.42191  -0.41781  -0.41664  -0.41614
 Alpha  occ. eigenvalues --   -0.41518  -0.41374  -0.41176  -0.41140  -0.40981
 Alpha  occ. eigenvalues --   -0.40829  -0.40731  -0.40607  -0.40603  -0.40337
 Alpha  occ. eigenvalues --   -0.40029  -0.39956  -0.39916  -0.39742  -0.39700
 Alpha  occ. eigenvalues --   -0.39501  -0.39251  -0.39166  -0.39049  -0.38968
 Alpha  occ. eigenvalues --   -0.38824  -0.38699  -0.38602  -0.38493  -0.38350
 Alpha  occ. eigenvalues --   -0.38121  -0.37995  -0.37726  -0.37665  -0.37440
 Alpha  occ. eigenvalues --   -0.37403  -0.37313  -0.37202  -0.37023  -0.36845
 Alpha  occ. eigenvalues --   -0.36494  -0.36469  -0.36436  -0.36219  -0.36018
 Alpha  occ. eigenvalues --   -0.35847  -0.35545  -0.35378  -0.35001  -0.34910
 Alpha  occ. eigenvalues --   -0.34815  -0.34778  -0.34607  -0.34049  -0.33949
 Alpha  occ. eigenvalues --   -0.33882  -0.33436  -0.33346  -0.32917  -0.32495
 Alpha  occ. eigenvalues --   -0.32418  -0.32245  -0.32050  -0.31853  -0.31653
 Alpha  occ. eigenvalues --   -0.31497  -0.31348  -0.31113  -0.30937  -0.30284
 Alpha  occ. eigenvalues --   -0.29724  -0.29707  -0.29398  -0.29175  -0.28045
 Alpha  occ. eigenvalues --   -0.27946  -0.27843  -0.27448  -0.27420  -0.27290
 Alpha  occ. eigenvalues --   -0.26536  -0.26513  -0.26070  -0.25878  -0.25428
 Alpha  occ. eigenvalues --   -0.25348  -0.24811  -0.24044  -0.23924  -0.23851
 Alpha  occ. eigenvalues --   -0.23665  -0.23629  -0.23173  -0.22806  -0.22298
 Alpha  occ. eigenvalues --   -0.22223  -0.22073  -0.21768  -0.21302  -0.21179
 Alpha  occ. eigenvalues --   -0.20603  -0.20118  -0.19938  -0.19462  -0.19133
 Alpha  occ. eigenvalues --   -0.18888  -0.18087  -0.17851
 Alpha virt. eigenvalues --   -0.10371  -0.04691  -0.04048  -0.03515  -0.01972
 Alpha virt. eigenvalues --   -0.01219  -0.00888  -0.00515   0.00025   0.00633
 Alpha virt. eigenvalues --    0.00953   0.01123   0.01206   0.01659   0.01828

 Mulliken charges:
               1
     1  C    0.060022
     2  C    0.013593
     3  O   -0.300973
     4  H    0.042393
     5  H    0.020276
     6  H    0.036099
     7  N   -0.116624
     8  C    0.096614
     9  C    0.071737
    10  O   -0.301347
    11  C    0.099498
    12  C    0.151777
    13  O   -0.389623
    14  O   -0.466397
    15  H    0.112346
    16  H    0.013299
    17  H    0.003078
    18  H   -0.009280
    19  N   -0.130818
    20  C    0.180499
    21  C    0.071718
    22  O   -0.288576
    23  C   -0.060389
    24  C    0.032645
    25  C    0.003918
    26  C    0.008412
    27  N    0.064805
    28  H    0.146714
    29  H    0.011110
    30  H    0.017519
    31  H    0.016449
    32  H    0.030558
    33  H    0.019292
    34  H    0.040607
    35  H    0.023294
    36  H    0.069965
    37  H    0.098891
    38  H    0.179180
    39  H    0.195245
    40  H    0.193301
    41  N   -0.166883
    42  C    0.148386
    43  C    0.058514
    44  O   -0.289241
    45  C    0.053091
    46  C    0.136400
    47  O   -0.408967
    48  O   -0.476196
    49  H    0.154330
    50  H    0.014777
    51  H   -0.016052
    52  H    0.023248
    53  N   -0.166683
    54  C    0.248904
    55  C    0.023658
    56  O   -0.312186
    57  H    0.150895
    58  H    0.005154
    59  H    0.040090
    60  N   -0.164073
    61  C    0.132066
    62  C    0.081379
    63  O   -0.322696
    64  C    0.090401
    65  C    0.084624
    66  N   -0.030970
    67  O   -0.369407
    68  H    0.152160
    69  H    0.033618
    70  H    0.072494
    71  H   -0.006040
    72  H    0.135040
    73  H    0.125152
    74  N   -0.163522
    75  C    0.244354
    76  C    0.026272
    77  O   -0.292560
    78  H    0.164811
    79  H    0.033735
    80  H    0.035825
    81  N   -0.148559
    82  C    0.148158
    83  C    0.106352
    84  O   -0.359704
    85  C    0.109096
    86  C   -0.011331
    87  C    0.003348
    88  C    0.005430
    89  C   -0.009797
    90  C   -0.057338
    91  C    0.179667
    92  O   -0.208025
    93  H    0.151606
    94  H   -0.008864
    95  H   -0.033075
    96  H   -0.020673
    97  H   -0.040195
    98  H   -0.021224
    99  H   -0.035969
   100  H   -0.038151
   101  H    0.171721
   102  N   -0.099648
   103  C    0.161872
   104  C    0.049449
   105  O   -0.284554
   106  C   -0.123918
   107  C    0.005569
   108  C    0.063085
   109  C    0.042115
   110  H    0.139283
   111  H    0.011226
   112  H   -0.011565
   113  H    0.008773
   114  H    0.001752
   115  H    0.022845
   116  H    0.010571
   117  H    0.008718
   118  H    0.021598
   119  H    0.008597
   120  H   -0.000556
   121  N   -0.130564
   122  C    0.058884
   123  C    0.130005
   124  O   -0.282164
   125  C    0.270035
   126  O   -0.347245
   127  H    0.142858
   128  H    0.020387
   129  H    0.023009
   130  H   -0.020096
   131  H    0.158239
   132  N   -0.120987
   133  C    0.070381
   134  C    0.055205
   135  O   -0.239469
   136  C    0.054223
   137  H    0.113867
   138  H    0.022134
   139  H    0.053784
   140  H    0.030057
   141  H    0.003076
   142  N   -0.148994
   143  C    0.112516
   144  C    0.026414
   145  O   -0.292947
   146  C    0.048575
   147  H    0.108812
   148  H    0.013021
   149  H    0.002205
   150  H    0.026365
   151  H    0.007229
   152  N   -0.128750
   153  C    0.149206
   154  C    0.092084
   155  O   -0.265521
   156  C   -0.042691
   157  C    0.115871
   158  C    0.155783
   159  O   -0.455732
   160  O   -0.397363
   161  H    0.130068
   162  H   -0.046173
   163  H    0.044344
   164  H    0.004628
   165  H   -0.002173
   166  H   -0.060434
   167  N   -0.188058
   168  C    0.141333
   169  H    0.024861
   170  H    0.016272
   171  H    0.004201
   172  H    0.131646
   173  Ca   1.322385
   174  O   -0.303743
   175  H    0.161276
   176  H    0.165456
 Sum of Mulliken charges =   0.00000

 Dipole moment (field-independent basis, Debye):
    X=             33.0802    Y=              0.7161    Z=            -12.7450  Tot=             35.4576
 Quadrupole moment (field-independent basis, Debye-Ang):
   XX=           -582.8575   YY=           -519.5385   ZZ=           -509.0344
   XY=            132.3290   XZ=            -50.3530   YZ=              2.0678

 ESP charges:
               1
     1  C   -0.452326
     2  C    0.857516
     3  O   -0.710407
     4  H    0.145211
     5  H    0.102038
     6  H    0.126030
     7  N   -0.899254
     8  C    0.583881
     9  C    0.494635
    10  O   -0.540680
    11  C   -0.597535
    12  C    0.967087
    13  O   -0.719258
    14  O   -0.973913
    15  H    0.383623
    16  H    0.027403
    17  H    0.137225
    18  H    0.150424
    19  N   -0.297141
    20  C   -0.252887
    21  C    0.621178
    22  O   -0.591126
    23  C    0.059584
    24  C   -0.012298
    25  C   -0.118894
    26  C    0.146453
    27  N   -0.475585
    28  H    0.313910
    29  H    0.144488
    30  H   -0.023396
    31  H    0.054047
    32  H    0.054509
    33  H    0.023259
    34  H    0.045668
    35  H    0.061483
    36  H    0.088360
    37  H    0.079554
    38  H    0.341390
    39  H    0.347493
    40  H    0.356322
    41  N   -0.417498
    42  C    0.260654
    43  C    0.265828
    44  O   -0.522094
    45  C   -0.488796
    46  C    0.892443
    47  O   -0.719623
    48  O   -0.761645
    49  H    0.259333
    50  H    0.081372
    51  H    0.086864
    52  H    0.127607
    53  N    0.074336
    54  C   -0.297048
    55  C    0.684763
    56  O   -0.622564
    57  H    0.036028
    58  H    0.110192
    59  H    0.137119
    60  N   -0.419408
    61  C   -0.018069
    62  C    0.351158
    63  O   -0.507432
    64  C   -0.217422
    65  C    0.591617
    66  N   -0.745211
    67  O   -0.612084
    68  H    0.339842
    69  H    0.150495
    70  H    0.140265
    71  H    0.079786
    72  H    0.385093
    73  H    0.353116
    74  N   -0.109887
    75  C   -0.317072
    76  C    0.680090
    77  O   -0.588320
    78  H    0.263983
    79  H    0.152236
    80  H    0.135098
    81  N   -0.578073
    82  C    0.318288
    83  C    0.585940
    84  O   -0.617875
    85  C   -0.112104
    86  C    0.099079
    87  C   -0.239267
    88  C   -0.214024
    89  C   -0.187179
    90  C   -0.267215
    91  C    0.373540
    92  O   -0.586111
    93  H    0.288982
    94  H    0.029508
    95  H    0.008696
    96  H    0.015580
    97  H    0.141110
    98  H    0.216385
    99  H    0.136296
   100  H    0.127355
   101  H    0.426195
   102  N   -0.664769
   103  C    0.062309
   104  C    0.687100
   105  O   -0.581182
   106  C    0.207308
   107  C    0.116972
   108  C   -0.234864
   109  C   -0.298669
   110  H    0.307652
   111  H    0.087748
   112  H   -0.014480
   113  H   -0.006202
   114  H   -0.004519
   115  H    0.070388
   116  H    0.020616
   117  H    0.058055
   118  H    0.096927
   119  H    0.060656
   120  H    0.058396
   121  N   -0.496478
   122  C    0.046763
   123  C    0.597638
   124  O   -0.480380
   125  C    0.132802
   126  O   -0.570226
   127  H    0.240196
   128  H    0.047482
   129  H    0.055715
   130  H    0.027038
   131  H    0.394838
   132  N   -0.570422
   133  C    0.298717
   134  C    0.351565
   135  O   -0.485418
   136  C   -0.384522
   137  H    0.319699
   138  H    0.051575
   139  H    0.152941
   140  H    0.106428
   141  H    0.073427
   142  N   -0.298312
   143  C    0.076916
   144  C    0.449830
   145  O   -0.565358
   146  C   -0.394244
   147  H    0.305691
   148  H    0.090532
   149  H    0.115595
   150  H    0.108954
   151  H    0.116485
   152  N    0.267287
   153  C   -0.628777
   154  C    0.714114
   155  O   -0.562849
   156  C    0.139354
   157  C    0.159402
   158  C    0.604210
   159  O   -0.680477
   160  O   -0.714538
   161  H   -0.258006
   162  H    0.166380
   163  H    0.099857
   164  H   -0.097637
   165  H   -0.024617
   166  H   -0.089377
   167  N   -0.257445
   168  C   -0.275263
   169  H    0.117595
   170  H    0.101772
   171  H    0.099079
   172  H    0.278629
   173  Ca   1.657679
   174  O   -0.869019
   175  H    0.411764
   176  H    0.407655
 Sum of ESP charges =   0.00000

 Normal termination of Gaussian 09 at Mon Sep 16 12:10:43 2019.
