 Gaussian 16, Revision A.03,
 Gaussian 16:  ES64L-G16RevA.03 25-Dec-2016

 ----------------------------------------------------------------------
 #b3lyp/svp scf=(tight,noincore) Test #IOP(5/87=12) Density=Current Pop
 =(MK,readradii) iop(6/33=2) iop(6/42=6)
 ----------------------------------------------------------------------

 -----------------
 CaMKII_loop3_66.0
 -----------------
 Symbolic Z-matrix:
 Charge =  0 Multiplicity = 1

                         Standard orientation:
 ---------------------------------------------------------------------
 Center     Atomic      Atomic             Coordinates (Angstroms)
 Number     Number       Type             X           Y           Z
 ---------------------------------------------------------------------
      1          6           0        2.191471    1.357978    5.556231
      2          6           0        1.547191    1.428001    4.174891
      3          8           0        2.263357    1.445818    3.174947
      4          1           0        2.977265    2.110831    5.628658
      5          1           0        1.436436    1.546852    6.319598
      6          1           0        2.622583    0.368328    5.706495
      7          7           0        0.220667    1.391124    4.065917
      8          6           0       -0.453286    1.614767    2.794670
      9          6           0       -0.419249    3.095580    2.423408
     10          8           0       -1.051555    3.964228    3.013782
     11          6           0       -1.864643    1.059641    2.910020
     12          6           0       -2.793047    1.288556    1.727242
     13          8           0       -3.986811    0.930221    1.865532
     14          8           0       -2.380510    1.591461    0.581920
     15          1           0       -0.293885    1.155837    4.901367
     16          1           0        0.123122    1.076451    2.049841
     17          1           0       -2.238699    1.608182    3.775055
     18          1           0       -1.970834    0.049868    3.329402
     19          7           0        0.297510    3.388404    1.334184
     20          6           0        0.594069    4.721654    0.837196
     21          6           0       -0.596999    5.512732    0.322460
     22          8           0       -0.686390    6.709872    0.599886
     23          6           0        1.711136    4.568396   -0.187486
     24          6           0        2.438799    5.899136   -0.366759
     25          6           0        3.621423    5.815465   -1.315548
     26          6           0        4.341645    7.098084   -1.739420
     27          7           0        3.473835    8.164114   -2.251851
     28          1           0        0.750315    2.608789    0.893652
     29          1           0        0.928450    5.309553    1.689290
     30          1           0        1.286598    4.221467   -1.131260
     31          1           0        2.330113    3.805583    0.267138
     32          1           0        2.855048    6.136609    0.609429
     33          1           0        1.732143    6.684798   -0.621658
     34          1           0        3.239088    5.395852   -2.240991
     35          1           0        4.373651    5.151508   -0.884834
     36          1           0        5.168954    6.929893   -2.428965
     37          1           0        4.905594    7.476465   -0.888251
     38          1           0        2.950922    7.798454   -3.043403
     39          1           0        2.767105    8.454592   -1.605976
     40          1           0        4.112848    8.909202   -2.481650
     41          7           0       -1.565884    4.790150   -0.252028
     42          6           0       -2.691525    5.320827   -1.006160
     43          6           0       -4.051069    5.015992   -0.399517
     44          8           0       -5.092080    5.492925   -0.841480
     45          6           0       -2.555775    4.689100   -2.388873
     46          6           0       -2.265251    3.200412   -2.386933
     47          8           0       -1.068604    2.862465   -2.259550
     48          8           0       -3.182645    2.368503   -2.607874
     49          1           0       -1.418144    3.799158   -0.200975
     50          1           0       -2.471094    6.366539   -1.213275
     51          1           0       -1.699316    5.171932   -2.871730
     52          1           0       -3.399493    4.838146   -3.057697
     53          7           0       -4.096805    4.224165    0.684880
     54          6           0       -5.337221    3.865397    1.343482
     55          6           0       -6.198076    2.801926    0.685182
     56          8           0       -7.392621    2.898493    0.943325
     57          1           0       -3.216925    3.996536    1.100688
     58          1           0       -6.026427    4.704116    1.509749
     59          1           0       -5.079180    3.443654    2.317621
     60          7           0       -5.788051    1.891993   -0.206334
     61          6           0       -6.560532    0.935373   -0.971744
     62          6           0       -6.851234   -0.385607   -0.286833
     63          8           0       -7.655427   -1.133474   -0.855225
     64          6           0       -5.890259    0.725045   -2.334240
     65          6           0       -4.716593   -0.238272   -2.260561
     66          7           0       -4.719353   -1.315545   -3.045274
     67          8           0       -3.840863   -0.148334   -1.399743
     68          1           0       -4.793938    1.803372   -0.331569
     69          1           0       -7.524281    1.413376   -1.183643
     70          1           0       -5.562012    1.684481   -2.727989
     71          1           0       -6.542286    0.377317   -3.122939
     72          1           0       -5.396029   -1.486714   -3.780876
     73          1           0       -3.969533   -1.968681   -3.177123
     74          7           0       -6.121341   -0.645462    0.799322
     75          6           0       -6.237542   -1.856297    1.573772
     76          6           0       -5.172237   -2.931402    1.371841
     77          8           0       -5.318704   -4.067499    1.814029
     78          1           0       -5.511971    0.062060    1.181659
     79          1           0       -7.219842   -2.255733    1.340453
     80          1           0       -6.151054   -1.591515    2.631889
     81          7           0       -4.078321   -2.540829    0.718389
     82          6           0       -2.872331   -3.308834    0.466480
     83          6           0       -1.513841   -2.660611    0.738348
     84          8           0       -1.296801   -1.467990    0.576025
     85          6           0       -3.067317   -3.798215   -0.970561
     86          6           0       -4.226162   -4.759020   -1.108513
     87          6           0       -3.960759   -6.109224   -0.870584
     88          6           0       -5.507224   -4.368762   -1.494233
     89          6           0       -4.988507   -7.059915   -0.817456
     90          6           0       -6.577734   -5.263658   -1.448738
     91          6           0       -6.280657   -6.610376   -1.166260
     92          8           0       -7.323116   -7.482504   -1.045966
     93          1           0       -4.024022   -1.610049    0.339838
     94          1           0       -2.945967   -4.191794    1.106448
     95          1           0       -2.075782   -4.189889   -1.200449
     96          1           0       -3.247117   -2.984078   -1.676362
     97          1           0       -2.931620   -6.382210   -0.705504
     98          1           0       -5.734018   -3.320200   -1.664183
     99          1           0       -4.829774   -8.125004   -0.714548
    100          1           0       -7.614186   -4.961984   -1.494136
    101          1           0       -8.103708   -7.107878   -1.467547
    102          7           0       -0.531109   -3.493937    1.063318
    103          6           0        0.848700   -3.118668    1.316690
    104          6           0        1.716368   -3.998315    0.440863
    105          8           0        1.609072   -5.223041    0.408698
    106          6           0        1.187804   -3.347818    2.786044
    107          6           0        0.426578   -2.374553    3.684370
    108          6           0        2.679076   -3.362351    3.102900
    109          6           0        0.421679   -2.712934    5.168915
    110          1           0       -0.822313   -4.408627    1.380088
    111          1           0        1.012480   -2.042324    1.192354
    112          1           0        0.891039   -4.390453    2.919241
    113          1           0       -0.629709   -2.342305    3.418253
    114          1           0        0.683580   -1.322170    3.583170
    115          1           0        3.173204   -4.084798    2.455670
    116          1           0        3.076128   -2.375871    2.848917
    117          1           0        2.715197   -3.620945    4.154719
    118          1           0        1.433380   -2.635686    5.568158
    119          1           0       -0.114491   -1.893110    5.649861
    120          1           0        0.112673   -3.735005    5.390017
    121          7           0        2.659603   -3.320363   -0.215482
    122          6           0        3.749993   -3.872408   -0.992461
    123          6           0        5.143538   -3.656791   -0.410877
    124          8           0        5.246214   -3.072236    0.666830
    125          6           0        3.675023   -3.279675   -2.397469
    126          8           0        3.984351   -1.897985   -2.480826
    127          1           0        2.593620   -2.317312   -0.112359
    128          1           0        3.665651   -4.947059   -1.104316
    129          1           0        2.683723   -3.540965   -2.749679
    130          1           0        4.356471   -3.766595   -3.093053
    131          1           0        3.746679   -1.665223   -3.378341
    132          7           0        6.175532   -4.238747   -1.013801
    133          6           0        7.530826   -4.080466   -0.506037
    134          6           0        7.991902   -2.673073   -0.858675
    135          8           0        8.676414   -2.048285   -0.060875
    136          6           0        8.427055   -5.054455   -1.248884
    137          1           0        5.998347   -4.816871   -1.823540
    138          1           0        7.579372   -4.365996    0.541300
    139          1           0        8.089263   -6.073809   -1.436271
    140          1           0        8.482012   -4.872562   -2.323544
    141          1           0        9.444556   -4.938812   -0.863503
    142          7           0        7.494749   -2.044676   -1.930382
    143          6           0        7.671275   -0.692703   -2.404098
    144          6           0        7.074134    0.357570   -1.469086
    145          8           0        7.628286    1.396063   -1.109299
    146          6           0        7.076399   -0.614747   -3.807717
    147          1           0        6.941024   -2.672732   -2.502163
    148          1           0        8.742037   -0.517838   -2.539348
    149          1           0        6.039591   -0.930811   -3.912280
    150          1           0        7.165669    0.410973   -4.146729
    151          1           0        7.623260   -1.232869   -4.511826
    152          7           0        5.859801    0.122583   -0.968909
    153          6           0        5.256562    0.996958    0.024606
    154          6           0        5.810058    0.887960    1.433137
    155          8           0        5.894848    1.892679    2.145001
    156          6           0        3.737679    0.825735    0.011282
    157          6           0        3.114636    1.460585   -1.225077
    158          6           0        1.606658    1.236452   -1.358740
    159          8           0        1.070817    1.050839   -2.464959
    160          8           0        0.920798    1.184838   -0.317091
    161          1           0        5.366382   -0.746574   -1.151674
    162          1           0        5.425077    1.994740   -0.373054
    163          1           0        3.452413    1.349202    0.916162
    164          1           0        3.639976   -0.262129    0.008729
    165          1           0        3.674860    1.108856   -2.087478
    166          1           0        3.261550    2.526750   -1.067257
    167          7           0        6.248172   -0.293461    1.871774
    168          6           0        7.086665   -0.531079    3.036105
    169          1           0        8.101639   -0.194025    2.826818
    170          1           0        6.689808    0.019787    3.888661
    171          1           0        7.098329   -1.596639    3.265166
    172          1           0        6.040951   -1.118525    1.324939
    173         20           0       -1.284531    0.494778   -1.391027
    174          8           0       -1.924115   -0.645527   -3.785424
    175          1           0       -1.369678   -1.355897   -4.092629
    176          1           0       -2.572211   -0.528798   -4.476326
 ---------------------------------------------------------------------

 SCF Done:  E(RB3LYP) =  -5333.55286753     A.U. after   16 cycles

 The electronic state is 1-A.
 Alpha  occ. eigenvalues -- -145.34983 -19.19656 -19.19031 -19.14552 -19.14115
 Alpha  occ. eigenvalues --  -19.12635 -19.12108 -19.10858 -19.10349 -19.08792
 Alpha  occ. eigenvalues --  -19.06806 -19.06658 -19.06350 -19.06312 -19.06152
 Alpha  occ. eigenvalues --  -19.05898 -19.05636 -19.05604 -19.03979 -19.03822
 Alpha  occ. eigenvalues --  -19.02999 -19.02699 -19.02337 -19.02197 -15.40757
 Alpha  occ. eigenvalues --  -14.57990 -14.40476 -14.38620 -14.37820 -14.37687
 Alpha  occ. eigenvalues --  -14.36560 -14.34301 -14.33406 -14.32720 -14.31897
 Alpha  occ. eigenvalues --  -14.31317 -14.30929 -14.30918 -14.29754 -14.28576
 Alpha  occ. eigenvalues --  -12.54372 -12.54331 -12.54300 -10.34097 -10.32658
 Alpha  occ. eigenvalues --  -10.30855 -10.30559 -10.30116 -10.29543 -10.28979
 Alpha  occ. eigenvalues --  -10.28026 -10.27873 -10.27279 -10.25927 -10.25912
 Alpha  occ. eigenvalues --  -10.25630 -10.25384 -10.25196 -10.25045 -10.24730
 Alpha  occ. eigenvalues --  -10.24495 -10.24430 -10.24245 -10.23498 -10.23473
 Alpha  occ. eigenvalues --  -10.23198 -10.23003 -10.22682 -10.22618 -10.21936
 Alpha  occ. eigenvalues --  -10.21791 -10.21707 -10.20823 -10.20629 -10.19882
 Alpha  occ. eigenvalues --  -10.19843 -10.19757 -10.19707 -10.19695 -10.19634
 Alpha  occ. eigenvalues --  -10.19435 -10.19140 -10.18053 -10.17965 -10.17931
 Alpha  occ. eigenvalues --  -10.17747 -10.17645 -10.17642 -10.17641 -10.17606
 Alpha  occ. eigenvalues --  -10.17540 -10.17453 -10.17162 -10.17151 -10.16947
 Alpha  occ. eigenvalues --  -10.15553 -10.14202  -1.77736  -1.13373  -1.07990
 Alpha  occ. eigenvalues --   -1.07067  -1.06048  -1.05857  -1.05412  -1.05132
 Alpha  occ. eigenvalues --   -1.04821  -1.04671  -1.04497  -1.03373  -1.03250
 Alpha  occ. eigenvalues --   -1.02087  -1.01126  -1.00269  -0.99574  -0.99531
 Alpha  occ. eigenvalues --   -0.98665  -0.98413  -0.98196  -0.97750  -0.97555
 Alpha  occ. eigenvalues --   -0.97369  -0.97147  -0.95915  -0.95348  -0.94725
 Alpha  occ. eigenvalues --   -0.94282  -0.91073  -0.90782  -0.90684  -0.90515
 Alpha  occ. eigenvalues --   -0.89719  -0.89666  -0.88433  -0.88411  -0.87679
 Alpha  occ. eigenvalues --   -0.87378  -0.87234  -0.87203  -0.85954  -0.85448
 Alpha  occ. eigenvalues --   -0.83873  -0.83704  -0.82444  -0.81092  -0.80486
 Alpha  occ. eigenvalues --   -0.79307  -0.78244  -0.77696  -0.76562  -0.75301
 Alpha  occ. eigenvalues --   -0.75192  -0.74995  -0.74184  -0.73158  -0.72616
 Alpha  occ. eigenvalues --   -0.72069  -0.71242  -0.71183  -0.71138  -0.70419
 Alpha  occ. eigenvalues --   -0.70406  -0.69598  -0.68817  -0.67922  -0.67678
 Alpha  occ. eigenvalues --   -0.67361  -0.66545  -0.65401  -0.65071  -0.64375
 Alpha  occ. eigenvalues --   -0.63443  -0.63207  -0.62893  -0.62253  -0.61645
 Alpha  occ. eigenvalues --   -0.61108  -0.61038  -0.60969  -0.60767  -0.60248
 Alpha  occ. eigenvalues --   -0.59878  -0.59272  -0.58732  -0.58587  -0.58088
 Alpha  occ. eigenvalues --   -0.57771  -0.57578  -0.57215  -0.56748  -0.55992
 Alpha  occ. eigenvalues --   -0.55698  -0.55307  -0.55174  -0.55009  -0.54971
 Alpha  occ. eigenvalues --   -0.54075  -0.53736  -0.53459  -0.53324  -0.53107
 Alpha  occ. eigenvalues --   -0.52996  -0.52946  -0.52075  -0.51878  -0.51507
 Alpha  occ. eigenvalues --   -0.51180  -0.51089  -0.50893  -0.50502  -0.50372
 Alpha  occ. eigenvalues --   -0.50219  -0.49339  -0.48895  -0.48653  -0.48315
 Alpha  occ. eigenvalues --   -0.48271  -0.48067  -0.47873  -0.47502  -0.47424
 Alpha  occ. eigenvalues --   -0.47045  -0.46901  -0.46773  -0.46689  -0.46598
 Alpha  occ. eigenvalues --   -0.46408  -0.46223  -0.45444  -0.45359  -0.45282
 Alpha  occ. eigenvalues --   -0.45070  -0.44867  -0.44627  -0.44435  -0.44227
 Alpha  occ. eigenvalues --   -0.44132  -0.44059  -0.43860  -0.43522  -0.43372
 Alpha  occ. eigenvalues --   -0.43320  -0.43152  -0.42819  -0.42740  -0.42650
 Alpha  occ. eigenvalues --   -0.42546  -0.42337  -0.42201  -0.41908  -0.41727
 Alpha  occ. eigenvalues --   -0.41651  -0.41586  -0.41442  -0.41352  -0.41213
 Alpha  occ. eigenvalues --   -0.41048  -0.40982  -0.40812  -0.40639  -0.40507
 Alpha  occ. eigenvalues --   -0.40313  -0.40186  -0.40124  -0.40010  -0.39749
 Alpha  occ. eigenvalues --   -0.39509  -0.39345  -0.39111  -0.39049  -0.38960
 Alpha  occ. eigenvalues --   -0.38824  -0.38763  -0.38690  -0.38512  -0.38293
 Alpha  occ. eigenvalues --   -0.38253  -0.38165  -0.38069  -0.37926  -0.37869
 Alpha  occ. eigenvalues --   -0.37650  -0.37579  -0.37413  -0.37185  -0.36995
 Alpha  occ. eigenvalues --   -0.36742  -0.36593  -0.36478  -0.36463  -0.36375
 Alpha  occ. eigenvalues --   -0.36211  -0.36185  -0.35830  -0.35763  -0.35672
 Alpha  occ. eigenvalues --   -0.35197  -0.35122  -0.35066  -0.34724  -0.34483
 Alpha  occ. eigenvalues --   -0.34162  -0.33949  -0.33858  -0.33784  -0.33670
 Alpha  occ. eigenvalues --   -0.33221  -0.33132  -0.32955  -0.32847  -0.32766
 Alpha  occ. eigenvalues --   -0.32690  -0.32389  -0.32001  -0.31829  -0.31736
 Alpha  occ. eigenvalues --   -0.31594  -0.31549  -0.31146  -0.30259  -0.29954
 Alpha  occ. eigenvalues --   -0.29784  -0.29614  -0.28896  -0.28760  -0.28627
 Alpha  occ. eigenvalues --   -0.28352  -0.27253  -0.26171  -0.26062  -0.26060
 Alpha  occ. eigenvalues --   -0.25194  -0.24952  -0.24602  -0.24439  -0.24405
 Alpha  occ. eigenvalues --   -0.24176  -0.24080  -0.23498  -0.23446  -0.23046
 Alpha  occ. eigenvalues --   -0.22652  -0.22134  -0.22082  -0.21831  -0.21548
 Alpha  occ. eigenvalues --   -0.21401  -0.21197  -0.21085  -0.20897  -0.20776
 Alpha  occ. eigenvalues --   -0.20685  -0.20580  -0.20143  -0.19548  -0.19081
 Alpha  occ. eigenvalues --   -0.18427  -0.18003  -0.17784
 Alpha virt. eigenvalues --   -0.09752  -0.03749  -0.03332  -0.03079  -0.02568
 Alpha virt. eigenvalues --   -0.01864  -0.01378  -0.00701  -0.00538   0.00020
 Alpha virt. eigenvalues --    0.00194   0.00623   0.01033   0.01668   0.01828

 Mulliken charges:
               1
     1  C    0.073439
     2  C    0.015559
     3  O   -0.285818
     4  H    0.045775
     5  H   -0.007256
     6  H    0.033790
     7  N   -0.143106
     8  C    0.153382
     9  C    0.045391
    10  O   -0.279319
    11  C    0.037644
    12  C    0.176914
    13  O   -0.394152
    14  O   -0.470623
    15  H    0.113406
    16  H    0.014163
    17  H   -0.005669
    18  H    0.001269
    19  N   -0.132131
    20  C    0.134767
    21  C    0.039099
    22  O   -0.297986
    23  C   -0.007195
    24  C   -0.012861
    25  C    0.001148
    26  C    0.009875
    27  N    0.081240
    28  H    0.151522
    29  H   -0.005806
    30  H    0.051089
    31  H    0.047857
    32  H    0.011954
    33  H   -0.024958
    34  H    0.022785
    35  H    0.073139
    36  H    0.067631
    37  H    0.062634
    38  H    0.198461
    39  H    0.198054
    40  H    0.199307
    41  N   -0.157976
    42  C    0.111017
    43  C    0.095225
    44  O   -0.280766
    45  C    0.153751
    46  C    0.049032
    47  O   -0.441143
    48  O   -0.388211
    49  H    0.162200
    50  H    0.001792
    51  H   -0.045164
    52  H    0.001298
    53  N   -0.146594
    54  C    0.239822
    55  C    0.024484
    56  O   -0.310073
    57  H    0.131961
    58  H    0.025270
    59  H    0.021237
    60  N   -0.143527
    61  C    0.122852
    62  C    0.083896
    63  O   -0.312013
    64  C    0.121110
    65  C    0.089768
    66  N   -0.042752
    67  O   -0.346947
    68  H    0.153649
    69  H    0.024016
    70  H    0.061134
    71  H   -0.024629
    72  H    0.120777
    73  H    0.092755
    74  N   -0.166559
    75  C    0.220701
    76  C    0.031213
    77  O   -0.288466
    78  H    0.156850
    79  H    0.028588
    80  H    0.035964
    81  N   -0.160882
    82  C    0.097267
    83  C    0.131114
    84  O   -0.318016
    85  C    0.166405
    86  C   -0.017832
    87  C   -0.004052
    88  C   -0.005694
    89  C    0.018657
    90  C   -0.033443
    91  C    0.129747
    92  O   -0.206326
    93  H    0.151146
    94  H   -0.001263
    95  H   -0.037496
    96  H   -0.064339
    97  H   -0.043401
    98  H   -0.020431
    99  H   -0.023182
   100  H   -0.020731
   101  H    0.172211
   102  N   -0.113265
   103  C    0.105998
   104  C    0.074039
   105  O   -0.275524
   106  C   -0.131525
   107  C    0.002104
   108  C    0.090307
   109  C    0.038166
   110  H    0.138359
   111  H    0.036006
   112  H   -0.017803
   113  H    0.000071
   114  H    0.016147
   115  H    0.017086
   116  H    0.021719
   117  H    0.010740
   118  H    0.001180
   119  H    0.004035
   120  H    0.013197
   121  N   -0.124247
   122  C    0.122673
   123  C    0.087880
   124  O   -0.258610
   125  C    0.183861
   126  O   -0.288061
   127  H    0.153357
   128  H    0.035080
   129  H    0.013185
   130  H   -0.025848
   131  H    0.196251
   132  N   -0.151643
   133  C    0.117363
   134  C    0.048766
   135  O   -0.246140
   136  C    0.033166
   137  H    0.119405
   138  H    0.040354
   139  H    0.016950
   140  H   -0.018465
   141  H    0.055991
   142  N   -0.120695
   143  C    0.126605
   144  C    0.086783
   145  O   -0.266812
   146  C    0.026836
   147  H    0.089702
   148  H    0.015432
   149  H   -0.020261
   150  H    0.029807
   151  H    0.013395
   152  N   -0.177428
   153  C    0.094806
   154  C    0.099734
   155  O   -0.294077
   156  C    0.013627
   157  C    0.110024
   158  C    0.127468
   159  O   -0.384604
   160  O   -0.444749
   161  H    0.127067
   162  H   -0.025358
   163  H    0.059646
   164  H   -0.044833
   165  H   -0.035364
   166  H   -0.031691
   167  N   -0.167688
   168  C    0.144498
   169  H    0.028154
   170  H    0.024848
   171  H    0.008360
   172  H    0.121054
   173  Ca   1.263396
   174  O   -0.257261
   175  H    0.166854
   176  H    0.181006
 Sum of Mulliken charges =  -0.00000

 Dipole moment (field-independent basis, Debye):
    X=             28.1838    Y=              3.1229    Z=            -21.5032  Tot=             35.5874
 Quadrupole moment (field-independent basis, Debye-Ang):
   XX=           -666.5962   YY=           -394.8731   ZZ=           -484.6630
   XY=             96.0490   XZ=            -43.4358   YZ=            -41.1688

 ESP charges:
               1
     1  C   -0.407296
     2  C    0.807402
     3  O   -0.663925
     4  H    0.136736
     5  H    0.064332
     6  H    0.113609
     7  N   -0.729622
     8  C    0.218347
     9  C    0.489268
    10  O   -0.543638
    11  C   -0.507891
    12  C    0.657788
    13  O   -0.642867
    14  O   -0.384604
    15  H    0.376896
    16  H    0.076270
    17  H    0.113959
    18  H    0.169932
    19  N    0.061109
    20  C   -0.687985
    21  C    0.811495
    22  O   -0.612415
    23  C    0.186616
    24  C    0.022585
    25  C   -0.221794
    26  C    0.238522
    27  N   -0.588326
    28  H    0.060417
    29  H    0.196852
    30  H    0.058433
    31  H    0.124545
    32  H    0.015329
    33  H   -0.018429
    34  H    0.035114
    35  H    0.104701
    36  H    0.041050
    37  H    0.050255
    38  H    0.397351
    39  H    0.393280
    40  H    0.377630
    41  N   -0.350577
    42  C   -0.146918
    43  C    0.490212
    44  O   -0.527479
    45  C   -0.095124
    46  C    0.659749
    47  O   -0.702390
    48  O   -0.688628
    49  H    0.112965
    50  H    0.125944
    51  H    0.026372
    52  H    0.047134
    53  N   -0.209121
    54  C   -0.196022
    55  C    0.593058
    56  O   -0.597541
    57  H    0.202687
    58  H    0.118750
    59  H    0.098987
    60  N   -0.173708
    61  C   -0.192804
    62  C    0.412715
    63  O   -0.544775
    64  C   -0.087433
    65  C    0.672722
    66  N   -0.828895
    67  O   -0.532749
    68  H    0.065375
    69  H    0.162243
    70  H    0.103831
    71  H    0.043535
    72  H    0.350471
    73  H    0.377759
    74  N    0.012120
    75  C   -0.448631
    76  C    0.727270
    77  O   -0.550933
    78  H    0.158166
    79  H    0.167596
    80  H    0.147158
    81  N   -0.593649
    82  C    0.106483
    83  C    0.727010
    84  O   -0.681679
    85  C    0.068244
    86  C    0.227188
    87  C   -0.464606
    88  C   -0.373222
    89  C    0.107134
    90  C   -0.137530
    91  C    0.153994
    92  O   -0.494806
    93  H    0.309831
    94  H    0.065605
    95  H   -0.033091
    96  H   -0.097608
    97  H    0.177379
    98  H    0.230024
    99  H    0.070579
   100  H    0.143503
   101  H    0.383190
   102  N   -0.678851
   103  C   -0.033582
   104  C    0.754692
   105  O   -0.570273
   106  C    0.182920
   107  C    0.063415
   108  C   -0.303143
   109  C   -0.351819
   110  H    0.321785
   111  H    0.089043
   112  H    0.008440
   113  H    0.008201
   114  H    0.072548
   115  H    0.070605
   116  H    0.038753
   117  H    0.095370
   118  H    0.079550
   119  H    0.079549
   120  H    0.091819
   121  N   -0.631944
   122  C    0.291934
   123  C    0.441576
   124  O   -0.412327
   125  C   -0.086572
   126  O   -0.413075
   127  H    0.341549
   128  H    0.026278
   129  H    0.077310
   130  H    0.031481
   131  H    0.394101
   132  N   -0.438412
   133  C    0.072097
   134  C    0.550094
   135  O   -0.518256
   136  C   -0.365570
   137  H    0.296249
   138  H    0.127956
   139  H    0.114698
   140  H    0.087846
   141  H    0.129699
   142  N   -0.499357
   143  C    0.292308
   144  C    0.255039
   145  O   -0.518147
   146  C   -0.405001
   147  H    0.257806
   148  H    0.065685
   149  H    0.102090
   150  H    0.121053
   151  H    0.100908
   152  N    0.231649
   153  C   -0.221557
   154  C    0.525419
   155  O   -0.549622
   156  C   -0.257896
   157  C    0.005406
   158  C    0.692621
   159  O   -0.737328
   160  O   -0.770235
   161  H   -0.155405
   162  H    0.119596
   163  H    0.196440
   164  H    0.054951
   165  H   -0.028964
   166  H   -0.032240
   167  N   -0.083851
   168  C   -0.253369
   169  H    0.112584
   170  H    0.097347
   171  H    0.093311
   172  H    0.118310
   173  Ca   1.649642
   174  O   -0.847088
   175  H    0.417773
   176  H    0.426296
 Sum of ESP charges =  -0.00000

 Normal termination of Gaussian 16 at Sat Sep 14 23:54:01 2019.
