 Gaussian 16, Revision A.03,
 Gaussian 16:  ES64L-G16RevA.03 25-Dec-2016

 ----------------------------------------------------------------------
 #b3lyp/svp scf=(tight,noincore) Test #IOP(5/87=12) Density=Current Pop
 =(MK,readradii) iop(6/33=2) iop(6/42=6)
 ----------------------------------------------------------------------

 ------------------
 CaMKII_loop3_109.0
 ------------------
 Symbolic Z-matrix:
 Charge =  0 Multiplicity = 1

                         Standard orientation:
 ---------------------------------------------------------------------
 Center     Atomic      Atomic             Coordinates (Angstroms)
 Number     Number       Type             X           Y           Z
 ---------------------------------------------------------------------
      1          6           0        2.855480    1.047779    5.462930
      2          6           0        2.076662    1.015069    4.152903
      3          8           0        2.696918    1.028098    3.092472
      4          1           0        3.868056    0.681331    5.292379
      5          1           0        2.897859    2.071334    5.835582
      6          1           0        2.359348    0.413492    6.197101
      7          7           0        0.737863    1.079159    4.132662
      8          6           0       -0.076448    1.392371    2.970209
      9          6           0       -0.018472    2.881279    2.659259
     10          8           0       -0.478172    3.617803    3.536134
     11          6           0       -1.471868    0.788778    3.113658
     12          6           0       -2.382784    1.000042    1.921643
     13          8           0       -1.926701    1.338061    0.808032
     14          8           0       -3.607641    0.813722    2.074645
     15          1           0        0.303847    1.097663    5.044028
     16          1           0        0.395307    0.891722    2.126765
     17          1           0       -1.865963    1.189372    4.051749
     18          1           0       -1.445980   -0.285950    3.274871
     19          7           0        0.546794    3.213163    1.507683
     20          6           0        0.886016    4.576229    1.127708
     21          6           0       -0.167426    5.276570    0.284391
     22          8           0       -0.391303    6.470854    0.445834
     23          6           0        2.197299    4.489271    0.356040
     24          6           0        3.015592    5.764252    0.493590
     25          6           0        4.312202    5.580308   -0.291437
     26          6           0        5.121610    6.863780   -0.512703
     27          7           0        6.233993    6.699767   -1.464651
     28          1           0        0.900825    2.455985    0.949253
     29          1           0        0.997088    5.190301    2.019605
     30          1           0        1.956809    4.312531   -0.694259
     31          1           0        2.789018    3.714430    0.847559
     32          1           0        3.191229    5.955800    1.552533
     33          1           0        2.375057    6.539708    0.051229
     34          1           0        4.043299    5.221767   -1.278168
     35          1           0        4.941148    4.909687    0.300842
     36          1           0        5.586222    7.181023    0.416648
     37          1           0        4.553045    7.666023   -0.981572
     38          1           0        6.702580    7.588288   -1.588166
     39          1           0        6.817939    5.983842   -1.062957
     40          1           0        5.962687    6.365810   -2.372707
     41          7           0       -0.852234    4.689435   -0.689370
     42          6           0       -2.035886    5.125981   -1.398309
     43          6           0       -3.328581    4.885503   -0.620356
     44          8           0       -4.311941    5.562209   -0.897431
     45          6           0       -2.211231    4.620269   -2.819192
     46          6           0       -2.307160    3.111191   -3.001346
     47          8           0       -2.349829    2.513484   -4.102176
     48          8           0       -2.310000    2.353266   -2.001975
     49          1           0       -0.651658    3.703776   -0.827742
     50          1           0       -1.988479    6.216248   -1.348603
     51          1           0       -1.333480    4.971239   -3.359630
     52          1           0       -3.115424    5.007606   -3.290684
     53          7           0       -3.339418    4.005763    0.388872
     54          6           0       -4.511432    3.769663    1.197106
     55          6           0       -5.594234    2.911450    0.547561
     56          8           0       -6.712991    3.028531    1.046236
     57          1           0       -2.562451    3.370967    0.468602
     58          1           0       -4.844714    4.684091    1.676527
     59          1           0       -4.079715    3.192512    2.023615
     60          7           0       -5.293099    2.114209   -0.477877
     61          6           0       -6.278426    1.195759   -1.021734
     62          6           0       -6.568518    0.008519   -0.123231
     63          8           0       -7.452632   -0.763597   -0.470766
     64          6           0       -5.918946    0.762580   -2.441322
     65          6           0       -4.670886   -0.108663   -2.517361
     66          7           0       -4.399849   -0.778754   -3.639376
     67          8           0       -3.766986   -0.181835   -1.683929
     68          1           0       -4.323409    2.085231   -0.718837
     69          1           0       -7.252756    1.680577   -1.075879
     70          1           0       -5.739848    1.653043   -3.039486
     71          1           0       -6.783127    0.241849   -2.861716
     72          1           0       -4.974917   -0.477413   -4.409500
     73          1           0       -3.517854   -1.260504   -3.693234
     74          7           0       -5.980616   -0.156415    1.064779
     75          6           0       -6.354870   -1.180515    2.024129
     76          6           0       -5.429283   -2.370138    2.225841
     77          8           0       -5.679842   -3.204501    3.094091
     78          1           0       -5.179381    0.408796    1.283779
     79          1           0       -7.255277   -1.618941    1.607416
     80          1           0       -6.577770   -0.842706    3.035366
     81          7           0       -4.422907   -2.494174    1.347136
     82          6           0       -3.353596   -3.463284    1.347061
     83          6           0       -1.971757   -2.885501    1.076532
     84          8           0       -1.825548   -1.872517    0.403489
     85          6           0       -3.711807   -4.671065    0.485695
     86          6           0       -4.793367   -4.519322   -0.565828
     87          6           0       -6.072084   -4.973731   -0.218849
     88          6           0       -4.573148   -3.770419   -1.723519
     89          6           0       -7.159038   -4.603215   -1.026222
     90          6           0       -5.680958   -3.473685   -2.526268
     91          6           0       -7.002511   -3.699236   -2.094501
     92          8           0       -8.077914   -3.333625   -2.841520
     93          1           0       -4.397724   -1.772604    0.647063
     94          1           0       -3.257576   -3.907816    2.343039
     95          1           0       -3.970913   -5.504939    1.150164
     96          1           0       -2.791348   -5.002924    0.012488
     97          1           0       -6.130461   -5.448388    0.746238
     98          1           0       -3.583953   -3.424664   -1.974210
     99          1           0       -8.156058   -4.927268   -0.767298
    100          1           0       -5.520674   -3.000504   -3.487782
    101          1           0       -7.903609   -2.820840   -3.626866
    102          7           0       -0.978298   -3.445847    1.785299
    103          6           0        0.414268   -3.073869    1.739557
    104          6           0        0.979088   -3.772695    0.510932
    105          8           0        0.648004   -4.934188    0.294331
    106          6           0        1.199137   -3.413073    3.003290
    107          6           0        0.571921   -2.792073    4.244161
    108          6           0        2.663566   -2.983470    2.946821
    109          6           0        0.882483   -3.497991    5.562239
    110          1           0       -1.154834   -4.354519    2.190949
    111          1           0        0.482516   -1.994332    1.582260
    112          1           0        1.224584   -4.501595    3.115416
    113          1           0       -0.519507   -2.833318    4.177958
    114          1           0        0.898506   -1.758433    4.368387
    115          1           0        2.862229   -1.944217    2.691700
    116          1           0        3.100302   -3.054844    3.950996
    117          1           0        3.171057   -3.722692    2.329000
    118          1           0        0.228906   -3.107257    6.340419
    119          1           0        0.950335   -4.586760    5.472370
    120          1           0        1.854085   -3.091202    5.838487
    121          7           0        1.898281   -3.091807   -0.179631
    122          6           0        2.696759   -3.653868   -1.243031
    123          6           0        4.161302   -3.518257   -0.864450
    124          8           0        4.619806   -2.708419   -0.061247
    125          6           0        2.269403   -2.981786   -2.546478
    126          8           0        2.970884   -1.772521   -2.686842
    127          1           0        2.103586   -2.135347    0.069234
    128          1           0        2.391139   -4.697195   -1.297496
    129          1           0        1.192874   -2.797946   -2.608838
    130          1           0        2.477898   -3.598937   -3.430194
    131          1           0        2.386482   -1.201735   -2.183973
    132          7           0        4.971003   -4.393009   -1.481534
    133          6           0        6.393712   -4.458634   -1.280306
    134          6           0        7.185054   -3.191684   -1.608812
    135          8           0        8.223157   -3.008726   -0.970794
    136          6           0        6.933623   -5.555825   -2.186930
    137          1           0        4.581146   -5.079133   -2.120474
    138          1           0        6.695522   -4.807352   -0.292729
    139          1           0        6.754577   -5.134801   -3.175556
    140          1           0        7.991660   -5.738100   -1.988351
    141          1           0        6.362582   -6.478458   -2.010127
    142          7           0        6.830952   -2.351502   -2.581236
    143          6           0        7.439071   -1.035990   -2.701725
    144          6           0        7.046442   -0.002900   -1.656179
    145          8           0        7.780604    0.934994   -1.329435
    146          6           0        7.101244   -0.456116   -4.077850
    147          1           0        6.053585   -2.499680   -3.196738
    148          1           0        8.510566   -1.193499   -2.652831
    149          1           0        7.495222   -1.120909   -4.841874
    150          1           0        6.027278   -0.343116   -4.242558
    151          1           0        7.591182    0.504561   -4.164792
    152          7           0        5.845690   -0.117767   -1.097698
    153          6           0        5.314089    0.661062    0.000175
    154          6           0        5.946980    0.351659    1.356722
    155          8           0        6.284534    1.286842    2.078933
    156          6           0        3.786420    0.642733    0.127025
    157          6           0        3.057151    0.925656   -1.178434
    158          6           0        1.562691    0.692295   -1.024051
    159          8           0        0.766712    1.619983   -0.776439
    160          8           0        1.129541   -0.474098   -1.130386
    161          1           0        5.311081   -0.921224   -1.406971
    162          1           0        5.647386    1.675204   -0.242987
    163          1           0        3.506392    1.352152    0.906005
    164          1           0        3.428167   -0.354058    0.361462
    165          1           0        3.447791    0.273279   -1.954065
    166          1           0        3.356131    1.946513   -1.447621
    167          7           0        6.202615   -0.936393    1.594152
    168          6           0        6.976735   -1.501971    2.679168
    169          1           0        7.966441   -1.777924    2.313897
    170          1           0        7.076770   -0.765967    3.477209
    171          1           0        6.471185   -2.388267    3.062948
    172          1           0        5.704561   -1.567001    0.985401
    173         20           0       -1.401250    0.129044   -1.299545
    174          8           0       -1.122759    0.097573   -4.049536
    175          1           0       -1.556993    0.946466   -4.076389
    176          1           0       -0.744516   -0.008168   -4.917552
 ---------------------------------------------------------------------

 SCF Done:  E(RB3LYP) =  -5333.62254194     A.U. after   17 cycles

 The electronic state is 1-A.
 Alpha  occ. eigenvalues -- -145.36454 -19.14821 -19.14452 -19.14286 -19.13638
 Alpha  occ. eigenvalues --  -19.12967 -19.12031 -19.11570 -19.11194 -19.10846
 Alpha  occ. eigenvalues --  -19.09860 -19.09525 -19.08344 -19.07212 -19.06765
 Alpha  occ. eigenvalues --  -19.06583 -19.05791 -19.05049 -19.04974 -19.04635
 Alpha  occ. eigenvalues --  -19.04384 -19.04033 -19.03462 -19.03008 -15.42278
 Alpha  occ. eigenvalues --  -14.58592 -14.39903 -14.38012 -14.37087 -14.36410
 Alpha  occ. eigenvalues --  -14.36211 -14.35381 -14.34418 -14.32892 -14.32760
 Alpha  occ. eigenvalues --  -14.32246 -14.32124 -14.30424 -14.29869 -14.29117
 Alpha  occ. eigenvalues --  -12.55867 -12.55866 -12.55822 -10.35059 -10.32998
 Alpha  occ. eigenvalues --  -10.30622 -10.30596 -10.30405 -10.29467 -10.29053
 Alpha  occ. eigenvalues --  -10.28476 -10.27541 -10.27516 -10.26098 -10.25969
 Alpha  occ. eigenvalues --  -10.25835 -10.25713 -10.25567 -10.25312 -10.24852
 Alpha  occ. eigenvalues --  -10.24710 -10.24637 -10.23887 -10.23845 -10.23767
 Alpha  occ. eigenvalues --  -10.23520 -10.23099 -10.22598 -10.22592 -10.22586
 Alpha  occ. eigenvalues --  -10.22530 -10.22496 -10.22318 -10.21195 -10.21067
 Alpha  occ. eigenvalues --  -10.20828 -10.20682 -10.20625 -10.20323 -10.20218
 Alpha  occ. eigenvalues --  -10.19738 -10.19162 -10.19058 -10.18939 -10.18093
 Alpha  occ. eigenvalues --  -10.18076 -10.18038 -10.17859 -10.17852 -10.17638
 Alpha  occ. eigenvalues --  -10.17279 -10.17063 -10.16936 -10.16851 -10.16838
 Alpha  occ. eigenvalues --  -10.16448 -10.16138  -1.79329  -1.14167  -1.07758
 Alpha  occ. eigenvalues --   -1.07668  -1.06931  -1.06775  -1.05849  -1.05397
 Alpha  occ. eigenvalues --   -1.04675  -1.04588  -1.03914  -1.03372  -1.03036
 Alpha  occ. eigenvalues --   -1.02530  -1.01682  -1.00788  -1.00582  -0.99786
 Alpha  occ. eigenvalues --   -0.99668  -0.99347  -0.99060  -0.98772  -0.98384
 Alpha  occ. eigenvalues --   -0.97349  -0.96680  -0.96407  -0.95367  -0.94501
 Alpha  occ. eigenvalues --   -0.94275  -0.93739  -0.92010  -0.91100  -0.90951
 Alpha  occ. eigenvalues --   -0.90449  -0.89601  -0.89342  -0.89096  -0.88619
 Alpha  occ. eigenvalues --   -0.88505  -0.88238  -0.87958  -0.86306  -0.85656
 Alpha  occ. eigenvalues --   -0.83079  -0.82796  -0.82073  -0.82053  -0.80274
 Alpha  occ. eigenvalues --   -0.78809  -0.77985  -0.77339  -0.77220  -0.77031
 Alpha  occ. eigenvalues --   -0.75707  -0.75014  -0.74535  -0.73755  -0.73276
 Alpha  occ. eigenvalues --   -0.72508  -0.72436  -0.72363  -0.71662  -0.70623
 Alpha  occ. eigenvalues --   -0.69281  -0.69090  -0.68725  -0.68161  -0.67750
 Alpha  occ. eigenvalues --   -0.67636  -0.65985  -0.65584  -0.64838  -0.64256
 Alpha  occ. eigenvalues --   -0.64039  -0.63349  -0.62651  -0.62573  -0.62176
 Alpha  occ. eigenvalues --   -0.61890  -0.60804  -0.60515  -0.60452  -0.60157
 Alpha  occ. eigenvalues --   -0.59292  -0.58856  -0.58415  -0.58030  -0.57753
 Alpha  occ. eigenvalues --   -0.57511  -0.57134  -0.56463  -0.56285  -0.56192
 Alpha  occ. eigenvalues --   -0.56162  -0.55912  -0.55178  -0.55083  -0.54469
 Alpha  occ. eigenvalues --   -0.54139  -0.54008  -0.53842  -0.53723  -0.53498
 Alpha  occ. eigenvalues --   -0.53447  -0.52844  -0.52634  -0.52483  -0.51698
 Alpha  occ. eigenvalues --   -0.51481  -0.51124  -0.50763  -0.50683  -0.50257
 Alpha  occ. eigenvalues --   -0.49866  -0.49673  -0.49420  -0.49064  -0.48990
 Alpha  occ. eigenvalues --   -0.48916  -0.48446  -0.48297  -0.48118  -0.47895
 Alpha  occ. eigenvalues --   -0.47487  -0.47331  -0.47269  -0.46977  -0.46768
 Alpha  occ. eigenvalues --   -0.46548  -0.46072  -0.46030  -0.45739  -0.45721
 Alpha  occ. eigenvalues --   -0.45551  -0.45517  -0.45076  -0.44699  -0.44573
 Alpha  occ. eigenvalues --   -0.44534  -0.44512  -0.44372  -0.44211  -0.44011
 Alpha  occ. eigenvalues --   -0.43833  -0.43514  -0.43391  -0.43315  -0.43155
 Alpha  occ. eigenvalues --   -0.43032  -0.42973  -0.42867  -0.42738  -0.42530
 Alpha  occ. eigenvalues --   -0.42261  -0.42081  -0.41944  -0.41878  -0.41662
 Alpha  occ. eigenvalues --   -0.41574  -0.41381  -0.41006  -0.40920  -0.40824
 Alpha  occ. eigenvalues --   -0.40821  -0.40601  -0.40520  -0.40496  -0.40214
 Alpha  occ. eigenvalues --   -0.40087  -0.40013  -0.39839  -0.39770  -0.39623
 Alpha  occ. eigenvalues --   -0.39330  -0.39231  -0.39137  -0.38943  -0.38828
 Alpha  occ. eigenvalues --   -0.38644  -0.38583  -0.38509  -0.38317  -0.38111
 Alpha  occ. eigenvalues --   -0.37979  -0.37640  -0.37446  -0.37403  -0.37339
 Alpha  occ. eigenvalues --   -0.37303  -0.37183  -0.37180  -0.37017  -0.36764
 Alpha  occ. eigenvalues --   -0.36681  -0.36247  -0.36185  -0.36105  -0.35716
 Alpha  occ. eigenvalues --   -0.35611  -0.35514  -0.35427  -0.35192  -0.34773
 Alpha  occ. eigenvalues --   -0.34590  -0.34279  -0.34214  -0.33990  -0.33964
 Alpha  occ. eigenvalues --   -0.33871  -0.33463  -0.33255  -0.32866  -0.32818
 Alpha  occ. eigenvalues --   -0.32247  -0.32153  -0.32029  -0.31961  -0.31500
 Alpha  occ. eigenvalues --   -0.31481  -0.31332  -0.31031  -0.30906  -0.30420
 Alpha  occ. eigenvalues --   -0.30173  -0.29399  -0.29248  -0.29090  -0.28735
 Alpha  occ. eigenvalues --   -0.28586  -0.28032  -0.27935  -0.27198  -0.26932
 Alpha  occ. eigenvalues --   -0.26682  -0.26321  -0.26241  -0.25937  -0.25040
 Alpha  occ. eigenvalues --   -0.25029  -0.24552  -0.24255  -0.23915  -0.23844
 Alpha  occ. eigenvalues --   -0.23498  -0.23434  -0.23231  -0.23011  -0.22810
 Alpha  occ. eigenvalues --   -0.22585  -0.22385  -0.22150  -0.21940  -0.21569
 Alpha  occ. eigenvalues --   -0.21364  -0.20562  -0.20221  -0.19842  -0.19516
 Alpha  occ. eigenvalues --   -0.19153  -0.18993  -0.18163
 Alpha virt. eigenvalues --   -0.10727  -0.04669  -0.04037  -0.03010  -0.01212
 Alpha virt. eigenvalues --   -0.00928  -0.00529  -0.00361  -0.00297   0.00271
 Alpha virt. eigenvalues --    0.00671   0.01037   0.01246   0.01267   0.01837

 Mulliken charges:
               1
     1  C    0.063952
     2  C    0.020625
     3  O   -0.296848
     4  H    0.038451
     5  H    0.046899
     6  H    0.005320
     7  N   -0.129885
     8  C    0.135579
     9  C    0.054305
    10  O   -0.289984
    11  C    0.062281
    12  C    0.156062
    13  O   -0.477270
    14  O   -0.367047
    15  H    0.112104
    16  H   -0.028741
    17  H    0.008437
    18  H    0.010648
    19  N   -0.105551
    20  C    0.159824
    21  C    0.029055
    22  O   -0.283569
    23  C   -0.013812
    24  C    0.010562
    25  C   -0.025189
    26  C    0.034494
    27  N    0.073530
    28  H    0.157790
    29  H    0.003974
    30  H    0.018564
    31  H    0.034094
    32  H    0.023410
    33  H    0.024001
    34  H    0.012529
    35  H    0.058166
    36  H    0.073224
    37  H    0.061564
    38  H    0.196899
    39  H    0.198631
    40  H    0.185109
    41  N   -0.140499
    42  C    0.155155
    43  C    0.026119
    44  O   -0.287740
    45  C    0.100074
    46  C    0.111369
    47  O   -0.403459
    48  O   -0.469763
    49  H    0.136956
    50  H    0.008697
    51  H   -0.000648
    52  H    0.039423
    53  N   -0.178656
    54  C    0.243586
    55  C    0.027616
    56  O   -0.297486
    57  H    0.146022
    58  H    0.013463
    59  H    0.024550
    60  N   -0.153961
    61  C    0.176941
    62  C    0.031046
    63  O   -0.298566
    64  C    0.070817
    65  C    0.078306
    66  N   -0.013580
    67  O   -0.396741
    68  H    0.148445
    69  H    0.031244
    70  H    0.061531
    71  H    0.026839
    72  H    0.122544
    73  H    0.120604
    74  N   -0.160312
    75  C    0.237323
    76  C    0.016523
    77  O   -0.299697
    78  H    0.145457
    79  H    0.036782
    80  H    0.032385
    81  N   -0.118321
    82  C    0.115733
    83  C    0.151652
    84  O   -0.351838
    85  C    0.132236
    86  C   -0.070526
    87  C    0.044673
    88  C    0.003148
    89  C   -0.027062
    90  C   -0.049360
    91  C    0.214114
    92  O   -0.195476
    93  H    0.136860
    94  H   -0.000701
    95  H   -0.006550
    96  H   -0.011999
    97  H   -0.015845
    98  H   -0.065760
    99  H   -0.017697
   100  H   -0.071315
   101  H    0.168833
   102  N   -0.118809
   103  C    0.124557
   104  C    0.066531
   105  O   -0.290782
   106  C   -0.075194
   107  C   -0.006824
   108  C    0.041867
   109  C    0.041519
   110  H    0.134647
   111  H    0.009963
   112  H   -0.019978
   113  H    0.005225
   114  H    0.000199
   115  H    0.034948
   116  H   -0.005252
   117  H    0.011174
   118  H    0.012651
   119  H    0.015041
   120  H   -0.006234
   121  N   -0.136451
   122  C    0.035530
   123  C    0.146257
   124  O   -0.285870
   125  C    0.276372
   126  O   -0.343699
   127  H    0.159393
   128  H    0.016471
   129  H    0.015551
   130  H   -0.016413
   131  H    0.176916
   132  N   -0.109120
   133  C    0.088837
   134  C    0.066806
   135  O   -0.265822
   136  C    0.016737
   137  H    0.122744
   138  H    0.022149
   139  H    0.000672
   140  H    0.051155
   141  H    0.031935
   142  N   -0.139247
   143  C    0.094228
   144  C    0.056757
   145  O   -0.295710
   146  C    0.033396
   147  H    0.113846
   148  H    0.024863
   149  H    0.019593
   150  H    0.019664
   151  H    0.021422
   152  N   -0.143595
   153  C    0.124881
   154  C    0.082008
   155  O   -0.290596
   156  C   -0.015756
   157  C    0.084278
   158  C    0.177524
   159  O   -0.392415
   160  O   -0.470749
   161  H    0.121377
   162  H   -0.037148
   163  H    0.067147
   164  H   -0.012872
   165  H   -0.012416
   166  H   -0.037886
   167  N   -0.163061
   168  C    0.135324
   169  H    0.030957
   170  H    0.029328
   171  H    0.011207
   172  H    0.123699
   173  Ca   1.313006
   174  O   -0.329227
   175  H    0.151181
   176  H    0.173899
 Sum of Mulliken charges =  -0.00000

 Dipole moment (field-independent basis, Debye):
    X=             34.0628    Y=              4.9996    Z=            -15.7267  Tot=             37.8497
 Quadrupole moment (field-independent basis, Debye-Ang):
   XX=           -605.4402   YY=           -453.1128   ZZ=           -511.4258
   XY=            158.7261   XZ=            -14.8842   YZ=            -29.4332

 ESP charges:
               1
     1  C   -0.450900
     2  C    0.979300
     3  O   -0.729674
     4  H    0.131072
     5  H    0.126237
     6  H    0.091303
     7  N   -0.970690
     8  C    0.349186
     9  C    0.570874
    10  O   -0.564478
    11  C   -0.242428
    12  C    0.803248
    13  O   -0.875331
    14  O   -0.726742
    15  H    0.397330
    16  H    0.107776
    17  H    0.076650
    18  H    0.045798
    19  N   -0.234922
    20  C   -0.331335
    21  C    0.581326
    22  O   -0.567126
    23  C    0.509933
    24  C   -0.354779
    25  C    0.013934
    26  C    0.086192
    27  N   -0.345080
    28  H    0.152057
    29  H    0.130203
    30  H   -0.045618
    31  H   -0.037137
    32  H    0.106507
    33  H    0.071407
    34  H    0.026869
    35  H    0.062280
    36  H    0.069899
    37  H    0.069112
    38  H    0.323920
    39  H    0.310420
    40  H    0.323763
    41  N   -0.413635
    42  C    0.182376
    43  C    0.495608
    44  O   -0.563347
    45  C   -0.532159
    46  C    0.834286
    47  O   -0.734508
    48  O   -0.649876
    49  H    0.246482
    50  H    0.074767
    51  H    0.122436
    52  H    0.166018
    53  N   -0.231254
    54  C   -0.265281
    55  C    0.659080
    56  O   -0.592569
    57  H    0.214765
    58  H    0.142374
    59  H    0.129483
    60  N   -0.465867
    61  C    0.118229
    62  C    0.396153
    63  O   -0.535630
    64  C   -0.313858
    65  C    0.704896
    66  N   -0.650610
    67  O   -0.665008
    68  H    0.265126
    69  H    0.112105
    70  H    0.142760
    71  H    0.093395
    72  H    0.306885
    73  H    0.347709
    74  N   -0.175499
    75  C   -0.211156
    76  C    0.567983
    77  O   -0.568616
    78  H    0.279451
    79  H    0.128869
    80  H    0.104879
    81  N   -0.327353
    82  C   -0.036853
    83  C    0.778502
    84  O   -0.670460
    85  C    0.006779
    86  C   -0.056726
    87  C   -0.184497
    88  C   -0.061729
    89  C   -0.223109
    90  C   -0.346344
    91  C    0.458023
    92  O   -0.581355
    93  H    0.280347
    94  H    0.071592
    95  H    0.037625
    96  H   -0.005470
    97  H    0.165988
    98  H    0.092909
    99  H    0.149953
   100  H    0.107457
   101  H    0.423451
   102  N   -0.615884
   103  C   -0.210778
   104  C    0.741977
   105  O   -0.570927
   106  C    0.174848
   107  C    0.257694
   108  C   -0.196791
   109  C   -0.388652
   110  H    0.335741
   111  H    0.081201
   112  H    0.007993
   113  H   -0.027701
   114  H   -0.013467
   115  H    0.036192
   116  H    0.040651
   117  H    0.045915
   118  H    0.099675
   119  H    0.084584
   120  H    0.068244
   121  N   -0.512823
   122  C   -0.093962
   123  C    0.681095
   124  O   -0.494211
   125  C    0.192653
   126  O   -0.548179
   127  H    0.333399
   128  H    0.073186
   129  H    0.056451
   130  H    0.010215
   131  H    0.333858
   132  N   -0.632538
   133  C    0.388445
   134  C    0.365434
   135  O   -0.512672
   136  C   -0.304803
   137  H    0.325192
   138  H    0.016161
   139  H    0.036428
   140  H    0.120713
   141  H    0.087328
   142  N   -0.346869
   143  C    0.115550
   144  C    0.250963
   145  O   -0.516472
   146  C   -0.329790
   147  H    0.288135
   148  H    0.115853
   149  H    0.084374
   150  H    0.088018
   151  H    0.114301
   152  N    0.116305
   153  C    0.042618
   154  C    0.456426
   155  O   -0.542208
   156  C   -0.526515
   157  C    0.000590
   158  C    0.676290
   159  O   -0.734230
   160  O   -0.693530
   161  H    0.020454
   162  H    0.007458
   163  H    0.266934
   164  H    0.162668
   165  H    0.001060
   166  H   -0.024871
   167  N   -0.087699
   168  C   -0.190572
   169  H    0.082576
   170  H    0.093255
   171  H    0.077139
   172  H    0.108004
   173  Ca   1.615417
   174  O   -0.875578
   175  H    0.385938
   176  H    0.439796
 Sum of ESP charges =  -0.00000

 Normal termination of Gaussian 16 at Sat Sep 14 23:48:46 2019.
