 Gaussian 16, Revision A.03,
 Gaussian 16:  ES64L-G16RevA.03 25-Dec-2016

 ----------------------------------------------------------------------
 #b3lyp/svp scf=(tight,noincore) Test #IOP(5/87=12) Density=Current Pop
 =(MK,readradii) iop(6/33=2) iop(6/42=6)
 ----------------------------------------------------------------------

 ------------------
 CaMKII_loop3_106.0
 ------------------
 Symbolic Z-matrix:
 Charge =  0 Multiplicity = 1

                         Standard orientation:
 ---------------------------------------------------------------------
 Center     Atomic      Atomic             Coordinates (Angstroms)
 Number     Number       Type             X           Y           Z
 ---------------------------------------------------------------------
      1          6           0        2.644588    2.309306    5.032275
      2          6           0        1.843194    2.354221    3.744233
      3          8           0        2.438269    2.104574    2.703194
      4          1           0        1.964210    2.240543    5.880975
      5          1           0        3.300630    1.439298    5.022015
      6          1           0        3.244263    3.215572    5.119989
      7          7           0        0.506421    2.442245    3.768483
      8          6           0       -0.305073    2.291725    2.575327
      9          6           0       -0.416896    3.619620    1.838516
     10          8           0       -1.044389    4.570181    2.317355
     11          6           0       -1.695863    1.747279    2.886742
     12          6           0       -2.529822    1.637036    1.624498
     13          8           0       -1.950232    1.539146    0.519196
     14          8           0       -3.768646    1.515963    1.716457
     15          1           0        0.032685    2.543066    4.652909
     16          1           0        0.195451    1.579007    1.924705
     17          1           0       -2.138560    2.500009    3.544782
     18          1           0       -1.695081    0.818827    3.466981
     19          7           0        0.378308    3.758115    0.783542
     20          6           0        0.823388    4.980604    0.142898
     21          6           0       -0.216083    5.538336   -0.815086
     22          8           0       -0.131855    6.714192   -1.141229
     23          6           0        2.160001    4.850250   -0.581929
     24          6           0        3.311079    4.483001    0.352388
     25          6           0        3.557941    5.372555    1.556402
     26          6           0        4.909218    5.222958    2.249995
     27          7           0        5.137154    6.265558    3.261347
     28          1           0        0.890184    2.910283    0.544035
     29          1           0        0.933863    5.704041    0.947034
     30          1           0        2.370752    5.769863   -1.118860
     31          1           0        2.144161    4.022643   -1.292292
     32          1           0        4.220488    4.437863   -0.251879
     33          1           0        3.196826    3.507625    0.815301
     34          1           0        2.760415    5.147014    2.263214
     35          1           0        3.394439    6.419332    1.296353
     36          1           0        5.756241    5.349461    1.583700
     37          1           0        4.996729    4.273268    2.780967
     38          1           0        4.981212    7.152131    2.795439
     39          1           0        4.568346    6.228325    4.094756
     40          1           0        6.123693    6.296278    3.466521
     41          7           0       -1.157587    4.730402   -1.304180
     42          6           0       -2.206735    5.192650   -2.197442
     43          6           0       -3.622743    5.017239   -1.671371
     44          8           0       -4.631952    5.317468   -2.298635
     45          6           0       -2.218971    4.480249   -3.543820
     46          6           0       -2.332997    2.962749   -3.488216
     47          8           0       -2.235320    2.380833   -2.391524
     48          8           0       -2.381191    2.299470   -4.549649
     49          1           0       -1.312822    3.783994   -0.974614
     50          1           0       -2.115964    6.237764   -2.476005
     51          1           0       -1.318795    4.652986   -4.132416
     52          1           0       -3.029013    4.885319   -4.145776
     53          7           0       -3.705798    4.492040   -0.442319
     54          6           0       -4.913893    4.345271    0.344043
     55          6           0       -5.814249    3.329903   -0.344495
     56          8           0       -6.856206    3.684096   -0.886228
     57          1           0       -2.864106    4.456780    0.129006
     58          1           0       -5.424006    5.300383    0.382085
     59          1           0       -4.621296    4.096400    1.360188
     60          7           0       -5.351808    2.095420   -0.553063
     61          6           0       -6.233850    1.087074   -1.098720
     62          6           0       -6.564496   -0.030215   -0.111178
     63          8           0       -7.327853   -0.917501   -0.496030
     64          6           0       -5.594414    0.583938   -2.398941
     65          6           0       -4.672591   -0.619832   -2.323563
     66          7           0       -5.152789   -1.834335   -2.625046
     67          8           0       -3.518388   -0.537032   -1.926877
     68          1           0       -4.434441    1.875387   -0.195121
     69          1           0       -7.224088    1.488148   -1.285449
     70          1           0       -5.157780    1.461944   -2.881595
     71          1           0       -6.416382    0.341027   -3.079501
     72          1           0       -6.075285   -1.941680   -2.997036
     73          1           0       -4.569861   -2.657725   -2.620106
     74          7           0       -6.092140    0.069580    1.127942
     75          6           0       -6.399153   -0.851294    2.206383
     76          6           0       -5.326933   -1.927851    2.337416
     77          8           0       -5.543894   -2.781723    3.188257
     78          1           0       -5.289418    0.672808    1.241757
     79          1           0       -7.365762   -1.328824    2.099000
     80          1           0       -6.442392   -0.272174    3.126899
     81          7           0       -4.298465   -1.954972    1.476244
     82          6           0       -3.328078   -3.012473    1.314246
     83          6           0       -1.947058   -2.433502    1.027582
     84          8           0       -1.841861   -1.398478    0.380929
     85          6           0       -3.644624   -4.051586    0.246894
     86          6           0       -4.947979   -4.785315    0.452822
     87          6           0       -5.026296   -6.145253    0.795653
     88          6           0       -6.093058   -4.094369    0.030936
     89          6           0       -6.289513   -6.741755    0.757333
     90          6           0       -7.368957   -4.664878    0.032157
     91          6           0       -7.448317   -6.035836    0.361665
     92          8           0       -8.691664   -6.593458    0.349682
     93          1           0       -4.294586   -1.175014    0.838317
     94          1           0       -3.241219   -3.519988    2.282690
     95          1           0       -2.818854   -4.764203    0.201263
     96          1           0       -3.717241   -3.589103   -0.737960
     97          1           0       -4.160776   -6.759872    0.936077
     98          1           0       -5.896429   -3.097219   -0.328827
     99          1           0       -6.396932   -7.800667    0.943524
    100          1           0       -8.260290   -4.138704   -0.265783
    101          1           0       -8.728965   -7.504652    0.648403
    102          7           0       -0.894025   -3.170570    1.404744
    103          6           0        0.504766   -2.839063    1.276339
    104          6           0        1.200864   -3.711807    0.247375
    105          8           0        0.877725   -4.897334    0.209886
    106          6           0        1.210589   -2.900597    2.630638
    107          6           0        0.462263   -2.390531    3.866090
    108          6           0        2.517910   -2.127078    2.556622
    109          6           0        1.117742   -2.552927    5.240199
    110          1           0       -1.116713   -3.927449    2.033190
    111          1           0        0.555267   -1.861889    0.801912
    112          1           0        1.399967   -3.978523    2.681737
    113          1           0       -0.474291   -2.956925    3.882400
    114          1           0        0.188424   -1.356418    3.685196
    115          1           0        3.242669   -2.613349    3.209894
    116          1           0        2.920089   -2.202041    1.551320
    117          1           0        2.345292   -1.073986    2.764950
    118          1           0        1.017826   -3.581312    5.580701
    119          1           0        2.205670   -2.437631    5.209858
    120          1           0        0.727152   -1.714087    5.822939
    121          7           0        2.138501   -3.172438   -0.534813
    122          6           0        3.073094   -3.942291   -1.322253
    123          6           0        4.469437   -3.631570   -0.780239
    124          8           0        4.719493   -2.584488   -0.194670
    125          6           0        2.899048   -3.452178   -2.757382
    126          8           0        1.672321   -3.741525   -3.375379
    127          1           0        2.334022   -2.188745   -0.395459
    128          1           0        2.849499   -5.000274   -1.300383
    129          1           0        3.627242   -4.058742   -3.288432
    130          1           0        3.181911   -2.405727   -2.909460
    131          1           0        1.775412   -3.772905   -4.333287
    132          7           0        5.376496   -4.587322   -0.983912
    133          6           0        6.762923   -4.559126   -0.552719
    134          6           0        7.615071   -3.345425   -0.895171
    135          8           0        8.478452   -2.960396   -0.117723
    136          6           0        7.470456   -5.717232   -1.263977
    137          1           0        5.203217   -5.289965   -1.680236
    138          1           0        6.857204   -4.763834    0.517470
    139          1           0        8.508790   -5.738985   -0.936884
    140          1           0        7.096501   -6.719674   -1.043596
    141          1           0        7.566393   -5.457803   -2.319246
    142          7           0        7.309404   -2.692799   -2.019069
    143          6           0        7.947309   -1.474503   -2.468661
    144          6           0        7.394323   -0.236484   -1.775542
    145          8           0        8.130101    0.750037   -1.778366
    146          6           0        7.769371   -1.367598   -3.976842
    147          1           0        6.474859   -3.019484   -2.486736
    148          1           0        9.022237   -1.542933   -2.255945
    149          1           0        8.070208   -2.277131   -4.516607
    150          1           0        6.754571   -1.090559   -4.246710
    151          1           0        8.467874   -0.590736   -4.283728
    152          7           0        6.162508   -0.256490   -1.272321
    153          6           0        5.650282    0.734867   -0.348343
    154          6           0        6.234210    0.547433    1.044566
    155          8           0        6.916249    1.393309    1.612646
    156          6           0        4.122563    0.722804   -0.263903
    157          6           0        3.482488    1.005723   -1.626313
    158          6           0        1.965771    0.832170   -1.619332
    159          8           0        1.302489    0.723665   -2.671180
    160          8           0        1.346430    0.710029   -0.554111
    161          1           0        5.665726   -1.139525   -1.291221
    162          1           0        5.904320    1.743215   -0.676822
    163          1           0        3.857813    1.513927    0.431029
    164          1           0        3.712841   -0.246469    0.029420
    165          1           0        3.960446    0.392154   -2.379698
    166          1           0        3.764190    2.008651   -1.952473
    167          7           0        6.203443   -0.687671    1.543138
    168          6           0        6.906626   -1.045970    2.752789
    169          1           0        7.015593   -2.129269    2.801862
    170          1           0        7.892777   -0.581562    2.751651
    171          1           0        6.342445   -0.699151    3.617961
    172          1           0        5.675547   -1.340175    0.968191
    173         20           0       -1.035822    0.280448   -1.506172
    174          8           0       -1.401594    0.008151   -4.074647
    175          1           0       -1.843331    0.752248   -4.482921
    176          1           0       -1.673974   -0.752742   -4.587435
 ---------------------------------------------------------------------

 SCF Done:  E(RB3LYP) =  -5333.59971073     A.U. after   20 cycles

 The electronic state is 1-A.
 Alpha  occ. eigenvalues -- -145.34601 -19.17400 -19.16053 -19.14526 -19.12404
 Alpha  occ. eigenvalues --  -19.12257 -19.11486 -19.11312 -19.09521 -19.09046
 Alpha  occ. eigenvalues --  -19.09027 -19.08477 -19.07546 -19.07066 -19.06465
 Alpha  occ. eigenvalues --  -19.06296 -19.05920 -19.05436 -19.05242 -19.04697
 Alpha  occ. eigenvalues --  -19.03933 -19.02984 -19.01944 -19.00543 -15.40381
 Alpha  occ. eigenvalues --  -14.57953 -14.42267 -14.38498 -14.38319 -14.37622
 Alpha  occ. eigenvalues --  -14.37438 -14.36169 -14.34589 -14.34162 -14.33968
 Alpha  occ. eigenvalues --  -14.33331 -14.31934 -14.31140 -14.29861 -14.28531
 Alpha  occ. eigenvalues --  -12.54014 -12.53937 -12.53935 -10.35267 -10.33914
 Alpha  occ. eigenvalues --  -10.31190 -10.30645 -10.30382 -10.29975 -10.28497
 Alpha  occ. eigenvalues --  -10.27936 -10.27936 -10.27789 -10.27730 -10.27461
 Alpha  occ. eigenvalues --  -10.26745 -10.26119 -10.25581 -10.25485 -10.25464
 Alpha  occ. eigenvalues --  -10.25048 -10.25018 -10.24684 -10.24325 -10.23579
 Alpha  occ. eigenvalues --  -10.23309 -10.23277 -10.23037 -10.23029 -10.22754
 Alpha  occ. eigenvalues --  -10.22687 -10.22405 -10.22112 -10.21947 -10.21756
 Alpha  occ. eigenvalues --  -10.20910 -10.20900 -10.20870 -10.20869 -10.19801
 Alpha  occ. eigenvalues --  -10.19785 -10.19579 -10.19305 -10.18879 -10.18634
 Alpha  occ. eigenvalues --  -10.18592 -10.18251 -10.17936 -10.17768 -10.17624
 Alpha  occ. eigenvalues --  -10.17328 -10.17250 -10.17182 -10.16544 -10.16411
 Alpha  occ. eigenvalues --  -10.16389 -10.12860  -1.77259  -1.13416  -1.10422
 Alpha  occ. eigenvalues --   -1.05638  -1.05574  -1.05019  -1.04953  -1.04855
 Alpha  occ. eigenvalues --   -1.04750  -1.04351  -1.04013  -1.03032  -1.02823
 Alpha  occ. eigenvalues --   -1.02089  -1.01859  -1.01755  -1.01598  -0.99958
 Alpha  occ. eigenvalues --   -0.99863  -0.99740  -0.99254  -0.98702  -0.97457
 Alpha  occ. eigenvalues --   -0.96603  -0.96174  -0.95517  -0.95333  -0.94464
 Alpha  occ. eigenvalues --   -0.94056  -0.93598  -0.93048  -0.91893  -0.90690
 Alpha  occ. eigenvalues --   -0.90467  -0.90079  -0.89875  -0.88815  -0.88785
 Alpha  occ. eigenvalues --   -0.88416  -0.87438  -0.86343  -0.85838  -0.85603
 Alpha  occ. eigenvalues --   -0.84236  -0.83283  -0.82973  -0.81275  -0.80552
 Alpha  occ. eigenvalues --   -0.79747  -0.78853  -0.78494  -0.78260  -0.76110
 Alpha  occ. eigenvalues --   -0.75869  -0.74739  -0.74507  -0.73661  -0.73040
 Alpha  occ. eigenvalues --   -0.72888  -0.72839  -0.72428  -0.71630  -0.71298
 Alpha  occ. eigenvalues --   -0.70375  -0.69692  -0.69356  -0.68510  -0.68460
 Alpha  occ. eigenvalues --   -0.67967  -0.67048  -0.66038  -0.65409  -0.65203
 Alpha  occ. eigenvalues --   -0.64546  -0.63678  -0.62378  -0.62257  -0.62175
 Alpha  occ. eigenvalues --   -0.61557  -0.61461  -0.60878  -0.60487  -0.60461
 Alpha  occ. eigenvalues --   -0.60298  -0.59632  -0.59462  -0.58988  -0.58302
 Alpha  occ. eigenvalues --   -0.58076  -0.57657  -0.57217  -0.56985  -0.56383
 Alpha  occ. eigenvalues --   -0.56294  -0.55307  -0.55232  -0.55164  -0.55100
 Alpha  occ. eigenvalues --   -0.54490  -0.54247  -0.53887  -0.53459  -0.53333
 Alpha  occ. eigenvalues --   -0.53089  -0.52743  -0.52581  -0.52520  -0.52114
 Alpha  occ. eigenvalues --   -0.51566  -0.51133  -0.50926  -0.50592  -0.50260
 Alpha  occ. eigenvalues --   -0.50096  -0.49973  -0.49451  -0.49121  -0.48876
 Alpha  occ. eigenvalues --   -0.48783  -0.48590  -0.48518  -0.48168  -0.47992
 Alpha  occ. eigenvalues --   -0.47887  -0.47700  -0.47545  -0.47499  -0.47206
 Alpha  occ. eigenvalues --   -0.47070  -0.46664  -0.46555  -0.46356  -0.46109
 Alpha  occ. eigenvalues --   -0.45726  -0.45607  -0.45433  -0.45004  -0.44875
 Alpha  occ. eigenvalues --   -0.44831  -0.44610  -0.44521  -0.44259  -0.44138
 Alpha  occ. eigenvalues --   -0.43821  -0.43696  -0.43403  -0.43318  -0.43249
 Alpha  occ. eigenvalues --   -0.43092  -0.43012  -0.42833  -0.42557  -0.42482
 Alpha  occ. eigenvalues --   -0.42290  -0.42207  -0.42115  -0.42074  -0.41777
 Alpha  occ. eigenvalues --   -0.41700  -0.41609  -0.41570  -0.41404  -0.41210
 Alpha  occ. eigenvalues --   -0.40976  -0.40854  -0.40726  -0.40589  -0.40466
 Alpha  occ. eigenvalues --   -0.40188  -0.40061  -0.39900  -0.39625  -0.39502
 Alpha  occ. eigenvalues --   -0.39487  -0.39266  -0.39120  -0.38986  -0.38847
 Alpha  occ. eigenvalues --   -0.38701  -0.38529  -0.38475  -0.38402  -0.38226
 Alpha  occ. eigenvalues --   -0.38082  -0.38060  -0.37949  -0.37553  -0.37478
 Alpha  occ. eigenvalues --   -0.37339  -0.36873  -0.36740  -0.36590  -0.36462
 Alpha  occ. eigenvalues --   -0.36411  -0.36280  -0.36031  -0.35882  -0.35747
 Alpha  occ. eigenvalues --   -0.35470  -0.35326  -0.35310  -0.35020  -0.34830
 Alpha  occ. eigenvalues --   -0.34692  -0.34527  -0.34386  -0.34262  -0.34138
 Alpha  occ. eigenvalues --   -0.33805  -0.33766  -0.33680  -0.33362  -0.33221
 Alpha  occ. eigenvalues --   -0.33114  -0.32851  -0.32716  -0.32444  -0.32134
 Alpha  occ. eigenvalues --   -0.31921  -0.31409  -0.30611  -0.30161  -0.30122
 Alpha  occ. eigenvalues --   -0.29404  -0.29092  -0.28956  -0.28360  -0.28250
 Alpha  occ. eigenvalues --   -0.28008  -0.27757  -0.27501  -0.27068  -0.26604
 Alpha  occ. eigenvalues --   -0.26509  -0.26031  -0.25633  -0.24837  -0.24795
 Alpha  occ. eigenvalues --   -0.24760  -0.24642  -0.24473  -0.24090  -0.24016
 Alpha  occ. eigenvalues --   -0.23825  -0.23734  -0.23537  -0.23410  -0.22912
 Alpha  occ. eigenvalues --   -0.22750  -0.22161  -0.21364  -0.21243  -0.20947
 Alpha  occ. eigenvalues --   -0.20754  -0.20168  -0.19487  -0.19268  -0.19101
 Alpha  occ. eigenvalues --   -0.18775  -0.18289  -0.16864
 Alpha virt. eigenvalues --   -0.10362  -0.05607  -0.04699  -0.03997  -0.01698
 Alpha virt. eigenvalues --   -0.01224  -0.00921  -0.00386  -0.00333  -0.00062
 Alpha virt. eigenvalues --    0.00438   0.00759   0.01246   0.01803   0.01898

 Mulliken charges:
               1
     1  C    0.084112
     2  C    0.018424
     3  O   -0.297713
     4  H    0.004187
     5  H    0.056645
     6  H   -0.011879
     7  N   -0.111937
     8  C    0.092383
     9  C    0.044661
    10  O   -0.299150
    11  C    0.071454
    12  C    0.172498
    13  O   -0.450408
    14  O   -0.390749
    15  H    0.119089
    16  H    0.024626
    17  H    0.002789
    18  H    0.013494
    19  N   -0.131238
    20  C    0.110750
    21  C    0.072960
    22  O   -0.293515
    23  C    0.067232
    24  C   -0.014070
    25  C   -0.064779
    26  C    0.043616
    27  N    0.073606
    28  H    0.147033
    29  H   -0.013547
    30  H    0.021410
    31  H    0.030204
    32  H    0.009196
    33  H    0.066784
    34  H    0.041780
    35  H    0.007763
    36  H    0.063011
    37  H    0.091102
    38  H    0.180599
    39  H    0.195161
    40  H    0.189679
    41  N   -0.141407
    42  C    0.153146
    43  C    0.047519
    44  O   -0.257426
    45  C    0.048905
    46  C    0.149966
    47  O   -0.461495
    48  O   -0.403640
    49  H    0.147422
    50  H    0.015509
    51  H    0.002121
    52  H    0.026754
    53  N   -0.175426
    54  C    0.257056
    55  C    0.026198
    56  O   -0.277186
    57  H    0.127482
    58  H   -0.006335
    59  H    0.011210
    60  N   -0.159263
    61  C    0.123282
    62  C    0.008739
    63  O   -0.306554
    64  C    0.135189
    65  C    0.049569
    66  N   -0.031413
    67  O   -0.324587
    68  H    0.143143
    69  H    0.041160
    70  H    0.065111
    71  H   -0.018108
    72  H    0.125564
    73  H    0.122328
    74  N   -0.164004
    75  C    0.249827
    76  C    0.012684
    77  O   -0.293250
    78  H    0.139208
    79  H    0.042727
    80  H    0.025690
    81  N   -0.139721
    82  C    0.126459
    83  C    0.113098
    84  O   -0.331729
    85  C    0.144072
    86  C    0.000989
    87  C   -0.006326
    88  C    0.007362
    89  C   -0.034820
    90  C   -0.003230
    91  C    0.153258
    92  O   -0.203034
    93  H    0.137652
    94  H   -0.006772
    95  H   -0.014268
    96  H   -0.027304
    97  H   -0.046205
    98  H   -0.024259
    99  H   -0.056119
   100  H   -0.017138
   101  H    0.170022
   102  N   -0.100706
   103  C    0.118523
   104  C    0.063060
   105  O   -0.281335
   106  C   -0.100848
   107  C    0.030053
   108  C    0.073491
   109  C    0.048387
   110  H    0.129222
   111  H   -0.008981
   112  H   -0.017779
   113  H   -0.018630
   114  H    0.007099
   115  H    0.005638
   116  H   -0.026778
   117  H    0.030581
   118  H    0.016778
   119  H   -0.006517
   120  H    0.017869
   121  N   -0.127730
   122  C    0.104625
   123  C    0.083890
   124  O   -0.285311
   125  C    0.247302
   126  O   -0.291662
   127  H    0.161152
   128  H    0.027831
   129  H   -0.047085
   130  H    0.015654
   131  H    0.185569
   132  N   -0.089054
   133  C    0.069062
   134  C    0.042991
   135  O   -0.244791
   136  C    0.006908
   137  H    0.131236
   138  H    0.032583
   139  H    0.040284
   140  H    0.042870
   141  H    0.012445
   142  N   -0.148910
   143  C    0.081225
   144  C    0.083166
   145  O   -0.272973
   146  C    0.046230
   147  H    0.105173
   148  H    0.037605
   149  H    0.018879
   150  H    0.011642
   151  H    0.039410
   152  N   -0.137577
   153  C    0.127661
   154  C    0.053060
   155  O   -0.293544
   156  C    0.017487
   157  C    0.052952
   158  C    0.102703
   159  O   -0.377873
   160  O   -0.434867
   161  H    0.112318
   162  H   -0.016992
   163  H    0.018019
   164  H   -0.009713
   165  H   -0.017005
   166  H   -0.004040
   167  N   -0.169884
   168  C    0.160814
   169  H    0.008988
   170  H    0.033993
   171  H    0.002112
   172  H    0.123542
   173  Ca   1.310382
   174  O   -0.319220
   175  H    0.157088
   176  H    0.143587
 Sum of Mulliken charges =  -0.00000

 Dipole moment (field-independent basis, Debye):
    X=             32.1495    Y=             -4.2320    Z=             13.8640  Tot=             35.2663
 Quadrupole moment (field-independent basis, Debye-Ang):
   XX=           -621.4707   YY=           -441.8937   ZZ=           -508.6074
   XY=            118.9683   XZ=             30.1552   YZ=            142.6285

 ESP charges:
               1
     1  C   -0.506959
     2  C    0.829518
     3  O   -0.651067
     4  H    0.108466
     5  H    0.166500
     6  H    0.117160
     7  N   -0.767417
     8  C    0.576585
     9  C    0.203097
    10  O   -0.521528
    11  C   -0.309652
    12  C    0.886692
    13  O   -0.960729
    14  O   -0.688649
    15  H    0.352227
    16  H   -0.037665
    17  H    0.050859
    18  H    0.063916
    19  N    0.145631
    20  C   -0.252597
    21  C    0.552822
    22  O   -0.569640
    23  C    0.078406
    24  C   -0.243282
    25  C   -0.016411
    26  C    0.087639
    27  N   -0.359219
    28  H    0.156554
    29  H    0.095221
    30  H    0.061304
    31  H    0.008161
    32  H    0.071928
    33  H    0.147346
    34  H    0.008923
    35  H    0.040393
    36  H    0.074608
    37  H    0.076458
    38  H    0.303622
    39  H    0.326149
    40  H    0.332385
    41  N   -0.264593
    42  C   -0.015056
    43  C    0.301579
    44  O   -0.444761
    45  C   -0.125955
    46  C    0.786646
    47  O   -0.660059
    48  O   -0.758176
    49  H    0.051045
    50  H    0.115913
    51  H    0.044706
    52  H    0.044313
    53  N   -0.076487
    54  C   -0.157801
    55  C    0.409015
    56  O   -0.522908
    57  H    0.177679
    58  H    0.085945
    59  H    0.096423
    60  N   -0.268210
    61  C    0.196593
    62  C    0.352738
    63  O   -0.527792
    64  C   -0.332414
    65  C    0.650273
    66  N   -0.735194
    67  O   -0.649435
    68  H    0.259025
    69  H    0.088464
    70  H    0.176199
    71  H    0.069338
    72  H    0.345576
    73  H    0.364794
    74  N   -0.232465
    75  C   -0.159558
    76  C    0.670215
    77  O   -0.575133
    78  H    0.170883
    79  H    0.137059
    80  H    0.091080
    81  N   -0.728809
    82  C    0.421263
    83  C    0.355282
    84  O   -0.450568
    85  C   -0.232066
    86  C    0.160732
    87  C   -0.229665
    88  C   -0.246019
    89  C   -0.196274
    90  C   -0.079804
    91  C    0.241952
    92  O   -0.540730
    93  H    0.445357
    94  H    0.014488
    95  H    0.058599
    96  H    0.057587
    97  H    0.141931
    98  H    0.126255
    99  H    0.105044
   100  H    0.136543
   101  H    0.413759
   102  N   -0.469887
   103  C   -0.078508
   104  C    0.803273
   105  O   -0.595878
   106  C    0.384970
   107  C    0.234476
   108  C   -0.601792
   109  C   -0.419660
   110  H    0.282389
   111  H    0.037480
   112  H   -0.077659
   113  H   -0.068070
   114  H   -0.025280
   115  H    0.139296
   116  H    0.111708
   117  H    0.153870
   118  H    0.105451
   119  H    0.086611
   120  H    0.107373
   121  N   -0.687815
   122  C    0.410605
   123  C    0.126885
   124  O   -0.152894
   125  C    0.221138
   126  O   -0.622504
   127  H    0.317425
   128  H    0.020855
   129  H   -0.050717
   130  H    0.025679
   131  H    0.423123
   132  N   -0.381754
   133  C    0.127609
   134  C    0.447406
   135  O   -0.532628
   136  C   -0.304582
   137  H    0.280847
   138  H    0.089101
   139  H    0.119138
   140  H    0.104390
   141  H    0.061383
   142  N   -0.259909
   143  C    0.014800
   144  C    0.441856
   145  O   -0.515179
   146  C   -0.268551
   147  H    0.182847
   148  H    0.125978
   149  H    0.079154
   150  H    0.072075
   151  H    0.104504
   152  N   -0.096452
   153  C   -0.158933
   154  C    0.487741
   155  O   -0.578190
   156  C   -0.116943
   157  C   -0.137448
   158  C    0.770179
   159  O   -0.753089
   160  O   -0.737493
   161  H    0.103536
   162  H    0.101851
   163  H    0.062484
   164  H    0.000752
   165  H    0.010491
   166  H    0.071035
   167  N   -0.033551
   168  C   -0.225226
   169  H    0.085106
   170  H    0.128027
   171  H    0.061397
   172  H    0.020560
   173  Ca   1.627518
   174  O   -0.836780
   175  H    0.454767
   176  H    0.366121
 Sum of ESP charges =   0.00000

 Normal termination of Gaussian 16 at Sat Sep 14 23:36:46 2019.
