 Gaussian 16, Revision A.03,
 Gaussian 16:  ES64L-G16RevA.03 25-Dec-2016

 ----------------------------------------------------------------------
 #b3lyp/svp scf=(tight,noincore) Test #IOP(5/87=12) Density=Current Pop
 =(MK,readradii) iop(6/33=2) iop(6/42=6)
 ----------------------------------------------------------------------

 ------------------
 CaMKII_loop3_102.0
 ------------------
 Symbolic Z-matrix:
 Charge =  0 Multiplicity = 1

                         Standard orientation:
 ---------------------------------------------------------------------
 Center     Atomic      Atomic             Coordinates (Angstroms)
 Number     Number       Type             X           Y           Z
 ---------------------------------------------------------------------
      1          6           0        2.817290    1.531779    5.769494
      2          6           0        2.234740    1.551726    4.358807
      3          8           0        2.969999    1.366172    3.395499
      4          1           0        2.052029    1.839867    6.481912
      5          1           0        3.152950    0.523287    6.009777
      6          1           0        3.662045    2.219181    5.824517
      7          7           0        0.907796    1.672590    4.319906
      8          6           0        0.138831    1.875280    3.103267
      9          6           0        0.113372    3.312426    2.629809
     10          8           0       -0.077558    4.247294    3.407284
     11          6           0       -1.188714    1.137010    3.304967
     12          6           0       -2.187226    1.208920    2.167732
     13          8           0       -3.395003    0.987484    2.432195
     14          8           0       -1.868365    1.571867    1.009848
     15          1           0        0.437186    1.884656    5.194008
     16          1           0        0.672665    1.300229    2.337998
     17          1           0       -1.673465    1.536543    4.195074
     18          1           0       -1.107208    0.058947    3.383308
     19          7           0        0.449115    3.549720    1.359113
     20          6           0        0.842197    4.790371    0.720387
     21          6           0       -0.292388    5.488033   -0.031468
     22          8           0       -0.454340    6.699631   -0.033018
     23          6           0        2.026788    4.402014   -0.169627
     24          6           0        2.989857    5.550202   -0.446324
     25          6           0        4.205729    5.171117   -1.292344
     26          6           0        5.225121    6.298067   -1.345487
     27          7           0        4.761083    7.507522   -2.038730
     28          1           0        0.510315    2.792023    0.691094
     29          1           0        1.217528    5.538846    1.407272
     30          1           0        1.647318    4.040225   -1.128278
     31          1           0        2.597154    3.622503    0.330118
     32          1           0        3.341294    5.922524    0.514128
     33          1           0        2.498765    6.438077   -0.845707
     34          1           0        3.866683    4.944905   -2.303767
     35          1           0        4.659199    4.259064   -0.892937
     36          1           0        6.149690    5.975578   -1.837191
     37          1           0        5.564887    6.514896   -0.323506
     38          1           0        4.416106    7.249276   -2.955081
     39          1           0        4.065701    8.126763   -1.658881
     40          1           0        5.598372    8.074131   -2.037497
     41          7           0       -1.237110    4.682754   -0.531093
     42          6           0       -2.359334    5.179173   -1.301601
     43          6           0       -3.649590    4.937693   -0.537844
     44          8           0       -4.687991    5.461222   -0.939518
     45          6           0       -2.437708    4.604819   -2.715947
     46          6           0       -2.740418    3.115293   -2.768665
     47          8           0       -2.635008    2.456004   -1.713617
     48          8           0       -2.975666    2.644714   -3.900130
     49          1           0       -1.076928    3.680685   -0.561080
     50          1           0       -2.314250    6.258686   -1.472532
     51          1           0       -1.469716    4.802114   -3.184420
     52          1           0       -3.232771    5.138376   -3.220023
     53          7           0       -3.560512    4.146662    0.533853
     54          6           0       -4.730820    3.784724    1.314993
     55          6           0       -5.739596    2.830822    0.687664
     56          8           0       -6.911011    2.801083    1.063166
     57          1           0       -2.669220    3.727784    0.754400
     58          1           0       -5.234397    4.733958    1.472997
     59          1           0       -4.403713    3.309744    2.244023
     60          7           0       -5.339500    2.033494   -0.303896
     61          6           0       -6.198215    1.069381   -0.978948
     62          6           0       -6.536134   -0.190790   -0.200307
     63          8           0       -7.303453   -0.982639   -0.737983
     64          6           0       -5.738171    0.691231   -2.378792
     65          6           0       -4.596090   -0.316761   -2.471532
     66          7           0       -4.273907   -0.769728   -3.691663
     67          8           0       -3.929680   -0.707577   -1.528738
     68          1           0       -4.384860    2.036641   -0.621942
     69          1           0       -7.149291    1.597989   -1.050548
     70          1           0       -5.465398    1.573188   -2.958659
     71          1           0       -6.594118    0.277212   -2.896714
     72          1           0       -4.851482   -0.583191   -4.500001
     73          1           0       -3.851797   -1.683049   -3.717479
     74          7           0       -6.088641   -0.315078    1.051093
     75          6           0       -6.464324   -1.359160    1.976974
     76          6           0       -5.427412   -2.476254    2.107027
     77          8           0       -5.628522   -3.320536    2.971227
     78          1           0       -5.452199    0.415480    1.353792
     79          1           0       -7.292159   -1.932641    1.552228
     80          1           0       -6.693448   -0.960248    2.962759
     81          7           0       -4.336289   -2.470865    1.345960
     82          6           0       -3.222301   -3.376985    1.497214
     83          6           0       -1.847623   -2.753462    1.256634
     84          8           0       -1.674646   -1.732843    0.588939
     85          6           0       -3.472351   -4.568816    0.578295
     86          6           0       -4.588912   -4.586061   -0.431207
     87          6           0       -5.644007   -5.500191   -0.290700
     88          6           0       -4.551252   -3.669614   -1.485345
     89          6           0       -6.708976   -5.465253   -1.191045
     90          6           0       -5.572307   -3.744437   -2.448335
     91          6           0       -6.731630   -4.521118   -2.235409
     92          8           0       -7.683499   -4.579535   -3.216955
     93          1           0       -4.299602   -1.684836    0.706418
     94          1           0       -3.246100   -3.818729    2.489179
     95          1           0       -3.698532   -5.407381    1.240904
     96          1           0       -2.530721   -4.868200    0.105958
     97          1           0       -5.787663   -6.210585    0.518067
     98          1           0       -3.699601   -3.034540   -1.661048
     99          1           0       -7.548625   -6.135599   -1.066449
    100          1           0       -5.556460   -3.083361   -3.292211
    101          1           0       -8.323055   -5.288317   -3.140159
    102          7           0       -0.846296   -3.417639    1.848423
    103          6           0        0.548723   -3.048975    1.749382
    104          6           0        1.103041   -3.937512    0.637837
    105          8           0        0.865025   -5.138870    0.628404
    106          6           0        1.329448   -3.344356    3.024929
    107          6           0        0.650671   -2.832770    4.293053
    108          6           0        2.720666   -2.738102    2.976256
    109          6           0        1.208170   -3.368075    5.607414
    110          1           0       -1.113138   -4.267561    2.333219
    111          1           0        0.662773   -2.027350    1.380228
    112          1           0        1.503171   -4.425338    3.056498
    113          1           0       -0.415025   -3.010802    4.349600
    114          1           0        0.824792   -1.755328    4.310391
    115          1           0        2.696595   -1.650200    2.845910
    116          1           0        3.331973   -3.059814    3.823195
    117          1           0        3.305914   -3.087165    2.133617
    118          1           0        0.784670   -4.363445    5.670542
    119          1           0        2.301667   -3.357251    5.684538
    120          1           0        0.921843   -2.822326    6.509730
    121          7           0        1.967738   -3.397887   -0.220302
    122          6           0        2.791983   -4.127242   -1.170912
    123          6           0        4.259666   -3.747330   -1.037588
    124          8           0        4.609785   -2.752872   -0.405077
    125          6           0        2.364854   -3.952125   -2.624802
    126          8           0        2.263219   -2.586577   -2.976725
    127          1           0        2.169310   -2.420939   -0.076286
    128          1           0        2.768650   -5.182609   -0.913703
    129          1           0        1.402148   -4.439522   -2.764944
    130          1           0        2.985264   -4.355870   -3.433184
    131          1           0        1.820804   -2.461501   -3.820481
    132          7           0        5.296983   -4.419021   -1.563139
    133          6           0        6.708350   -4.298765   -1.287311
    134          6           0        7.244900   -2.900468   -1.558934
    135          8           0        8.041190   -2.376803   -0.778487
    136          6           0        7.534915   -5.354121   -2.016295
    137          1           0        4.976234   -5.276974   -1.981631
    138          1           0        6.945869   -4.443952   -0.239072
    139          1           0        8.580416   -5.301465   -1.709286
    140          1           0        7.084542   -6.340676   -1.867725
    141          1           0        7.467708   -5.225819   -3.091154
    142          7           0        6.885362   -2.209736   -2.644486
    143          6           0        7.284731   -0.821173   -2.773327
    144          6           0        6.943338    0.182703   -1.687471
    145          8           0        7.776014    1.062829   -1.426264
    146          6           0        6.688948   -0.251078   -4.054160
    147          1           0        6.294316   -2.639081   -3.336170
    148          1           0        8.367318   -0.868050   -2.917226
    149          1           0        7.254199    0.655899   -4.281281
    150          1           0        6.879508   -0.920717   -4.889547
    151          1           0        5.616433   -0.054653   -4.128512
    152          7           0        5.791352   -0.001089   -1.052373
    153          6           0        5.310859    0.756053    0.088925
    154          6           0        5.988687    0.380930    1.395344
    155          8           0        6.483356    1.216756    2.151716
    156          6           0        3.798481    0.586622    0.249880
    157          6           0        3.025837    0.662586   -1.060177
    158          6           0        1.525669    0.631432   -0.796120
    159          8           0        0.807238    1.650148   -0.779573
    160          8           0        0.940057   -0.467298   -0.652763
    161          1           0        5.191132   -0.763170   -1.328723
    162          1           0        5.582319    1.797613   -0.112227
    163          1           0        3.444911    1.336088    0.968411
    164          1           0        3.622617   -0.438137    0.563634
    165          1           0        3.361214   -0.265112   -1.519088
    166          1           0        3.235545    1.609673   -1.558923
    167          7           0        6.302058   -0.892354    1.615909
    168          6           0        7.182143   -1.474983    2.619948
    169          1           0        8.128649   -1.750512    2.156164
    170          1           0        7.363855   -0.746899    3.410844
    171          1           0        6.713328   -2.363899    3.043136
    172          1           0        5.954439   -1.559854    0.942259
    173         20           0       -1.490425    0.235480   -1.055009
    174          8           0       -1.091157    0.720040   -3.616335
    175          1           0       -1.663165    1.386432   -3.979692
    176          1           0       -0.416955    0.588432   -4.290745
 ---------------------------------------------------------------------

 SCF Done:  E(RB3LYP) =  -5333.59499518     A.U. after   16 cycles

 The electronic state is 1-A.
 Alpha  occ. eigenvalues -- -145.35975 -19.16119 -19.14549 -19.13981 -19.13899
 Alpha  occ. eigenvalues --  -19.12411 -19.12409 -19.11082 -19.10312 -19.09088
 Alpha  occ. eigenvalues --  -19.07502 -19.07463 -19.07397 -19.07189 -19.06129
 Alpha  occ. eigenvalues --  -19.06116 -19.05459 -19.05376 -19.05289 -19.04600
 Alpha  occ. eigenvalues --  -19.04053 -19.03791 -19.03696 -19.01733 -15.41754
 Alpha  occ. eigenvalues --  -14.58683 -14.40060 -14.37581 -14.36991 -14.36586
 Alpha  occ. eigenvalues --  -14.36020 -14.35175 -14.33685 -14.32069 -14.31871
 Alpha  occ. eigenvalues --  -14.31781 -14.31540 -14.31011 -14.29799 -14.29417
 Alpha  occ. eigenvalues --  -12.55352 -12.55337 -12.55313 -10.34861 -10.32845
 Alpha  occ. eigenvalues --  -10.30430 -10.30396 -10.30033 -10.28755 -10.28210
 Alpha  occ. eigenvalues --  -10.27773 -10.27532 -10.27026 -10.26762 -10.26736
 Alpha  occ. eigenvalues --  -10.26347 -10.25565 -10.25162 -10.24824 -10.24426
 Alpha  occ. eigenvalues --  -10.24364 -10.24292 -10.23913 -10.23603 -10.23600
 Alpha  occ. eigenvalues --  -10.23140 -10.22887 -10.22712 -10.22638 -10.22590
 Alpha  occ. eigenvalues --  -10.22466 -10.22233 -10.21781 -10.20993 -10.20428
 Alpha  occ. eigenvalues --  -10.19923 -10.19798 -10.19690 -10.19661 -10.18981
 Alpha  occ. eigenvalues --  -10.18562 -10.18419 -10.18130 -10.17994 -10.17794
 Alpha  occ. eigenvalues --  -10.17680 -10.17661 -10.17628 -10.17523 -10.17329
 Alpha  occ. eigenvalues --  -10.17311 -10.17247 -10.17238 -10.17130 -10.16898
 Alpha  occ. eigenvalues --  -10.15682 -10.15212  -1.78711  -1.14006  -1.07987
 Alpha  occ. eigenvalues --   -1.06647  -1.06287  -1.06222  -1.05287  -1.04760
 Alpha  occ. eigenvalues --   -1.04597  -1.04358  -1.03505  -1.02907  -1.02717
 Alpha  occ. eigenvalues --   -1.01499  -1.00762  -1.00547  -1.00335  -0.99525
 Alpha  occ. eigenvalues --   -0.99153  -0.98924  -0.98853  -0.98391  -0.97513
 Alpha  occ. eigenvalues --   -0.97144  -0.96476  -0.96177  -0.93903  -0.93809
 Alpha  occ. eigenvalues --   -0.93267  -0.92091  -0.91688  -0.91267  -0.90667
 Alpha  occ. eigenvalues --   -0.90410  -0.89928  -0.89627  -0.88573  -0.88105
 Alpha  occ. eigenvalues --   -0.87883  -0.87541  -0.86939  -0.86633  -0.85532
 Alpha  occ. eigenvalues --   -0.83243  -0.82880  -0.81964  -0.81337  -0.79958
 Alpha  occ. eigenvalues --   -0.79115  -0.78012  -0.77557  -0.76851  -0.75900
 Alpha  occ. eigenvalues --   -0.75324  -0.74608  -0.74302  -0.73183  -0.72886
 Alpha  occ. eigenvalues --   -0.72431  -0.72297  -0.70535  -0.70510  -0.70110
 Alpha  occ. eigenvalues --   -0.70104  -0.69427  -0.68238  -0.68101  -0.67933
 Alpha  occ. eigenvalues --   -0.67720  -0.66150  -0.65009  -0.64365  -0.64060
 Alpha  occ. eigenvalues --   -0.63983  -0.63223  -0.62818  -0.61818  -0.61567
 Alpha  occ. eigenvalues --   -0.61045  -0.60502  -0.60375  -0.60028  -0.59867
 Alpha  occ. eigenvalues --   -0.59678  -0.59164  -0.58293  -0.58237  -0.58120
 Alpha  occ. eigenvalues --   -0.57467  -0.56309  -0.55858  -0.55511  -0.55396
 Alpha  occ. eigenvalues --   -0.55340  -0.55123  -0.54873  -0.54800  -0.54251
 Alpha  occ. eigenvalues --   -0.53907  -0.53871  -0.53803  -0.53468  -0.53123
 Alpha  occ. eigenvalues --   -0.52977  -0.52887  -0.52718  -0.51627  -0.51373
 Alpha  occ. eigenvalues --   -0.51197  -0.50980  -0.50641  -0.50495  -0.49951
 Alpha  occ. eigenvalues --   -0.49384  -0.49181  -0.48994  -0.48940  -0.48613
 Alpha  occ. eigenvalues --   -0.48533  -0.48211  -0.47730  -0.47549  -0.47332
 Alpha  occ. eigenvalues --   -0.47166  -0.47031  -0.46948  -0.46914  -0.45948
 Alpha  occ. eigenvalues --   -0.45790  -0.45595  -0.45432  -0.45282  -0.45084
 Alpha  occ. eigenvalues --   -0.44744  -0.44598  -0.44498  -0.44392  -0.44338
 Alpha  occ. eigenvalues --   -0.44226  -0.44060  -0.43809  -0.43738  -0.43565
 Alpha  occ. eigenvalues --   -0.43366  -0.43198  -0.43135  -0.43031  -0.42924
 Alpha  occ. eigenvalues --   -0.42428  -0.42278  -0.42122  -0.42093  -0.41927
 Alpha  occ. eigenvalues --   -0.41720  -0.41674  -0.41445  -0.41329  -0.41302
 Alpha  occ. eigenvalues --   -0.41159  -0.41112  -0.40959  -0.40696  -0.40592
 Alpha  occ. eigenvalues --   -0.40354  -0.40219  -0.40082  -0.39932  -0.39728
 Alpha  occ. eigenvalues --   -0.39674  -0.39400  -0.39367  -0.39310  -0.39084
 Alpha  occ. eigenvalues --   -0.39000  -0.38869  -0.38828  -0.38778  -0.38490
 Alpha  occ. eigenvalues --   -0.38359  -0.38286  -0.38187  -0.38085  -0.37940
 Alpha  occ. eigenvalues --   -0.37473  -0.37299  -0.37214  -0.37154  -0.36981
 Alpha  occ. eigenvalues --   -0.36818  -0.36760  -0.36456  -0.36278  -0.36148
 Alpha  occ. eigenvalues --   -0.35961  -0.35745  -0.35451  -0.35364  -0.35338
 Alpha  occ. eigenvalues --   -0.35088  -0.34766  -0.34718  -0.34456  -0.34363
 Alpha  occ. eigenvalues --   -0.34312  -0.34180  -0.33901  -0.33595  -0.33507
 Alpha  occ. eigenvalues --   -0.33234  -0.33106  -0.32871  -0.32770  -0.32568
 Alpha  occ. eigenvalues --   -0.32249  -0.32061  -0.31973  -0.31823  -0.31494
 Alpha  occ. eigenvalues --   -0.31357  -0.31266  -0.31029  -0.30673  -0.30373
 Alpha  occ. eigenvalues --   -0.29371  -0.29330  -0.28583  -0.28449  -0.27997
 Alpha  occ. eigenvalues --   -0.27788  -0.27366  -0.26820  -0.26717  -0.26250
 Alpha  occ. eigenvalues --   -0.25860  -0.25636  -0.25220  -0.24876  -0.24620
 Alpha  occ. eigenvalues --   -0.24418  -0.24317  -0.24008  -0.23805  -0.23284
 Alpha  occ. eigenvalues --   -0.23118  -0.22947  -0.22812  -0.22552  -0.22043
 Alpha  occ. eigenvalues --   -0.21830  -0.21819  -0.21656  -0.21323  -0.20872
 Alpha  occ. eigenvalues --   -0.20688  -0.20637  -0.20481  -0.20243  -0.19513
 Alpha  occ. eigenvalues --   -0.19238  -0.18599  -0.17534
 Alpha virt. eigenvalues --   -0.10445  -0.04973  -0.04352  -0.03038  -0.01895
 Alpha virt. eigenvalues --   -0.00692  -0.00409  -0.00181  -0.00053   0.00378
 Alpha virt. eigenvalues --    0.00526   0.01167   0.01626   0.01934   0.02215

 Mulliken charges:
               1
     1  C    0.055152
     2  C    0.029222
     3  O   -0.280134
     4  H   -0.011096
     5  H    0.035914
     6  H    0.040261
     7  N   -0.133502
     8  C    0.123966
     9  C    0.092126
    10  O   -0.284921
    11  C    0.066669
    12  C    0.102544
    13  O   -0.369063
    14  O   -0.489395
    15  H    0.125022
    16  H   -0.000586
    17  H    0.008611
    18  H    0.017531
    19  N   -0.152065
    20  C    0.129057
    21  C    0.061808
    22  O   -0.276873
    23  C    0.055661
    24  C   -0.030768
    25  C    0.001107
    26  C    0.006738
    27  N    0.078709
    28  H    0.165465
    29  H   -0.011043
    30  H    0.013387
    31  H    0.028186
    32  H   -0.002894
    33  H   -0.032429
    34  H    0.015520
    35  H    0.074248
    36  H    0.074004
    37  H    0.085070
    38  H    0.196139
    39  H    0.193391
    40  H    0.194614
    41  N   -0.167172
    42  C    0.136829
    43  C    0.038742
    44  O   -0.289783
    45  C    0.077089
    46  C    0.149102
    47  O   -0.459868
    48  O   -0.403526
    49  H    0.149798
    50  H    0.007659
    51  H   -0.014457
    52  H    0.024723
    53  N   -0.157028
    54  C    0.253066
    55  C    0.019933
    56  O   -0.299390
    57  H    0.146203
    58  H    0.014669
    59  H    0.039780
    60  N   -0.168092
    61  C    0.153208
    62  C    0.035814
    63  O   -0.292894
    64  C    0.059677
    65  C    0.076120
    66  N   -0.025325
    67  O   -0.353106
    68  H    0.142439
    69  H    0.027847
    70  H    0.060649
    71  H    0.030270
    72  H    0.124323
    73  H    0.124144
    74  N   -0.171063
    75  C    0.256781
    76  C   -0.004838
    77  O   -0.307006
    78  H    0.154222
    79  H    0.035337
    80  H    0.045411
    81  N   -0.120903
    82  C    0.116766
    83  C    0.153585
    84  O   -0.362216
    85  C    0.137751
    86  C   -0.033604
    87  C    0.027406
    88  C    0.030388
    89  C   -0.071893
    90  C   -0.028752
    91  C    0.196270
    92  O   -0.214336
    93  H    0.151063
    94  H    0.007871
    95  H   -0.020514
    96  H    0.002400
    97  H   -0.022779
    98  H   -0.052959
    99  H   -0.043775
   100  H   -0.068941
   101  H    0.173229
   102  N   -0.117076
   103  C    0.139041
   104  C    0.038217
   105  O   -0.294278
   106  C   -0.058782
   107  C    0.041344
   108  C    0.018899
   109  C    0.018524
   110  H    0.135866
   111  H    0.029536
   112  H   -0.015005
   113  H   -0.006147
   114  H    0.006399
   115  H    0.045968
   116  H    0.006894
   117  H   -0.016333
   118  H    0.002955
   119  H    0.004518
   120  H    0.009789
   121  N   -0.107900
   122  C    0.164228
   123  C    0.057370
   124  O   -0.296783
   125  C    0.216542
   126  O   -0.308390
   127  H    0.158970
   128  H    0.027618
   129  H    0.013096
   130  H   -0.018722
   131  H    0.172062
   132  N   -0.101559
   133  C    0.107988
   134  C    0.046760
   135  O   -0.262061
   136  C    0.043317
   137  H    0.103384
   138  H    0.017513
   139  H    0.055478
   140  H    0.022733
   141  H    0.000357
   142  N   -0.124308
   143  C    0.104361
   144  C    0.084848
   145  O   -0.282189
   146  C    0.012920
   147  H    0.103170
   148  H    0.017322
   149  H    0.025316
   150  H   -0.002905
   151  H    0.017574
   152  N   -0.147562
   153  C    0.130505
   154  C    0.087006
   155  O   -0.284260
   156  C   -0.092222
   157  C    0.152276
   158  C    0.125602
   159  O   -0.412413
   160  O   -0.443569
   161  H    0.136565
   162  H   -0.020305
   163  H    0.067988
   164  H    0.010270
   165  H   -0.022374
   166  H   -0.031644
   167  N   -0.164857
   168  C    0.132283
   169  H    0.029348
   170  H    0.034041
   171  H    0.003364
   172  H    0.120963
   173  Ca   1.301944
   174  O   -0.318742
   175  H    0.158132
   176  H    0.167528
 Sum of Mulliken charges =  -0.00000

 Dipole moment (field-independent basis, Debye):
    X=             29.5771    Y=              1.5799    Z=            -20.3290  Tot=             35.9245
 Quadrupole moment (field-independent basis, Debye-Ang):
   XX=           -633.5267   YY=           -394.3903   ZZ=           -504.0688
   XY=            141.5743   XZ=            -48.8214   YZ=            -37.2603

 ESP charges:
               1
     1  C   -0.487919
     2  C    0.899545
     3  O   -0.680446
     4  H    0.088425
     5  H    0.140063
     6  H    0.137261
     7  N   -0.775182
     8  C    0.239957
     9  C    0.479097
    10  O   -0.552324
    11  C   -0.205026
    12  C    0.930405
    13  O   -0.772352
    14  O   -0.936438
    15  H    0.367651
    16  H    0.079922
    17  H    0.066998
    18  H    0.004098
    19  N   -0.107547
    20  C   -0.153401
    21  C    0.602432
    22  O   -0.577497
    23  C   -0.039420
    24  C    0.084869
    25  C   -0.165229
    26  C    0.147270
    27  N   -0.519348
    28  H   -0.003342
    29  H    0.099064
    30  H    0.061912
    31  H    0.089355
    32  H    0.003352
    33  H   -0.035223
    34  H    0.049577
    35  H    0.092367
    36  H    0.061669
    37  H    0.077572
    38  H    0.375216
    39  H    0.381467
    40  H    0.352865
    41  N   -0.556057
    42  C    0.280289
    43  C    0.390645
    44  O   -0.538808
    45  C   -0.412845
    46  C    0.871399
    47  O   -0.717177
    48  O   -0.714839
    49  H    0.369479
    50  H    0.051864
    51  H    0.076585
    52  H    0.108747
    53  N   -0.144154
    54  C   -0.496232
    55  C    0.721921
    56  O   -0.613154
    57  H    0.231504
    58  H    0.176673
    59  H    0.204808
    60  N   -0.250203
    61  C   -0.166712
    62  C    0.489064
    63  O   -0.534667
    64  C   -0.121476
    65  C    0.686341
    66  N   -0.741799
    67  O   -0.580339
    68  H    0.134222
    69  H    0.146966
    70  H    0.109759
    71  H    0.060419
    72  H    0.345989
    73  H    0.341024
    74  N   -0.194088
    75  C   -0.304192
    76  C    0.647144
    77  O   -0.596039
    78  H    0.289292
    79  H    0.138781
    80  H    0.142718
    81  N   -0.166482
    82  C   -0.362066
    83  C    0.871168
    84  O   -0.671631
    85  C    0.281881
    86  C   -0.210681
    87  C   -0.065938
    88  C    0.097544
    89  C   -0.369825
    90  C   -0.425703
    91  C    0.520841
    92  O   -0.584650
    93  H    0.124504
    94  H    0.143787
    95  H   -0.025288
    96  H   -0.051766
    97  H    0.147247
    98  H    0.045751
    99  H    0.144234
   100  H    0.162639
   101  H    0.411791
   102  N   -0.681121
   103  C   -0.069802
   104  C    0.691960
   105  O   -0.583444
   106  C    0.337366
   107  C    0.104385
   108  C   -0.345916
   109  C   -0.329867
   110  H    0.334059
   111  H    0.143127
   112  H   -0.056304
   113  H    0.003137
   114  H    0.006616
   115  H    0.052688
   116  H    0.106194
   117  H    0.029310
   118  H    0.061865
   119  H    0.067572
   120  H    0.093014
   121  N   -0.367960
   122  C   -0.059246
   123  C    0.514106
   124  O   -0.393329
   125  C    0.070378
   126  O   -0.554080
   127  H    0.311507
   128  H    0.094248
   129  H    0.068559
   130  H    0.026163
   131  H    0.409813
   132  N   -0.492816
   133  C    0.220273
   134  C    0.486223
   135  O   -0.516894
   136  C   -0.351037
   137  H    0.274758
   138  H    0.047499
   139  H    0.131127
   140  H    0.106526
   141  H    0.078533
   142  N   -0.419976
   143  C    0.093437
   144  C    0.388415
   145  O   -0.512539
   146  C   -0.321633
   147  H    0.267379
   148  H    0.098912
   149  H    0.096705
   150  H    0.085583
   151  H    0.082932
   152  N   -0.095890
   153  C   -0.271862
   154  C    0.584490
   155  O   -0.564473
   156  C    0.249106
   157  C   -0.546490
   158  C    1.109484
   159  O   -0.841855
   160  O   -0.886722
   161  H    0.216770
   162  H    0.094142
   163  H    0.060807
   164  H   -0.118838
   165  H    0.067816
   166  H    0.088254
   167  N   -0.133622
   168  C   -0.217284
   169  H    0.093360
   170  H    0.110547
   171  H    0.070110
   172  H    0.146207
   173  Ca   1.673861
   174  O   -0.906408
   175  H    0.410763
   176  H    0.427397
 Sum of ESP charges =  -0.00000

 Normal termination of Gaussian 16 at Sat Sep 14 23:29:26 2019.
