 Gaussian 09, Revision D.01,
 Gaussian 09:  ES64L-G09RevD.01 24-Apr-2013

 ----------------------------------------------------------------------
 #maxdisk=50GB #B3LYP/SVP Density=Current scf=(tight) #IOP(5/87=12)Pop=
 (MK,readradii) iop(6/33=2) iop(6/42=6)
 ----------------------------------------------------------------------

 ------------
 SOL molecule
 ------------
 Symbolic Z-matrix:
 Charge =  0 Multiplicity = 1

                         Standard orientation:
 ---------------------------------------------------------------------
 Center     Atomic      Atomic             Coordinates (Angstroms)
 Number     Number       Type             X           Y           Z
 ---------------------------------------------------------------------
      1          6           0        2.335672    1.530900    5.501521
      2          6           0        1.790800    1.544909    4.084510
      3          8           0        2.510775    1.437233    3.092068
      4          1           0        3.406503    1.734912    5.480980
      5          1           0        1.832336    2.295847    6.092956
      6          1           0        2.161660    0.551793    5.948975
      7          7           0        0.471466    1.566446    3.945252
      8          6           0       -0.275953    1.718552    2.703467
      9          6           0       -0.285378    3.153191    2.187404
     10          8           0       -1.098241    4.036561    2.460007
     11          6           0       -1.722196    1.333128    3.004182
     12          6           0       -2.771594    1.191808    1.905960
     13          8           0       -2.277785    1.278082    0.761753
     14          8           0       -4.004341    1.117157    2.076137
     15          1           0       -0.025433    1.624817    4.814380
     16          1           0        0.073742    1.089795    1.893419
     17          1           0       -2.095426    1.942067    3.826613
     18          1           0       -1.478899    0.362673    3.423615
     19          7           0        0.713661    3.428365    1.344790
     20          6           0        1.169137    4.772917    1.051327
     21          6           0        0.090803    5.564767    0.325606
     22          8           0       -0.014026    6.770967    0.578968
     23          6           0        2.437810    4.652873    0.209805
     24          6           0        3.373321    5.854528    0.365839
     25          6           0        4.440553    5.790424   -0.728650
     26          6           0        5.127358    7.157263   -0.716351
     27          7           0        6.373307    7.136268   -1.490993
     28          1           0        1.208207    2.641777    0.961248
     29          1           0        1.291451    5.363901    1.955085
     30          1           0        2.097781    4.474495   -0.810813
     31          1           0        2.991366    3.753954    0.461244
     32          1           0        3.771666    5.865939    1.375438
     33          1           0        2.749580    6.721829    0.140370
     34          1           0        4.039852    5.505244   -1.704412
     35          1           0        5.120262    5.008617   -0.413413
     36          1           0        5.429371    7.414682    0.293908
     37          1           0        4.503538    7.941732   -1.139149
     38          1           0        6.157765    6.921527   -2.454335
     39          1           0        6.893924    7.998831   -1.559860
     40          1           0        6.909085    6.354854   -1.117585
     41          7           0       -0.620632    4.896747   -0.577504
     42          6           0       -1.673093    5.477018   -1.390777
     43          6           0       -3.052532    5.310375   -0.766376
     44          8           0       -3.985757    6.057916   -1.069154
     45          6           0       -1.655641    4.956401   -2.820760
     46          6           0       -1.805267    3.461054   -3.043357
     47          8           0       -1.778818    3.026999   -4.212714
     48          8           0       -1.862452    2.687685   -2.063953
     49          1           0       -0.439449    3.908388   -0.732808
     50          1           0       -1.535783    6.557788   -1.467470
     51          1           0       -0.710309    5.313489   -3.246715
     52          1           0       -2.452100    5.526273   -3.301384
     53          7           0       -3.151205    4.352653    0.146001
     54          6           0       -4.293322    4.112480    0.998812
     55          6           0       -5.327474    3.390693    0.155394
     56          8           0       -6.527103    3.660516    0.245318
     57          1           0       -2.308028    3.805631    0.291669
     58          1           0       -4.612795    5.081476    1.369060
     59          1           0       -4.014342    3.524665    1.880427
     60          7           0       -4.916303    2.461376   -0.711963
     61          6           0       -5.868082    1.660980   -1.443867
     62          6           0       -6.401407    0.478501   -0.651333
     63          8           0       -7.319105   -0.219118   -1.081285
     64          6           0       -5.224835    1.360806   -2.793322
     65          6           0       -4.391553    0.092141   -2.682739
     66          7           0       -4.420337   -0.845823   -3.632948
     67          8           0       -3.708730   -0.098860   -1.674438
     68          1           0       -3.914496    2.308827   -0.812521
     69          1           0       -6.697911    2.299085   -1.773724
     70          1           0       -4.572703    2.156488   -3.131132
     71          1           0       -5.960124    1.370569   -3.601873
     72          1           0       -4.809517   -0.718918   -4.557197
     73          1           0       -4.018203   -1.750254   -3.427785
     74          7           0       -6.023496    0.304386    0.620110
     75          6           0       -6.511752   -0.799496    1.422201
     76          6           0       -5.564633   -1.976837    1.531903
     77          8           0       -5.797191   -3.054723    2.086320
     78          1           0       -5.394333    0.998871    1.013484
     79          1           0       -7.359159   -1.287355    0.944713
     80          1           0       -6.532760   -0.466603    2.456146
     81          7           0       -4.324036   -1.834902    1.064386
     82          6           0       -3.396453   -2.951478    0.975780
     83          6           0       -1.935009   -2.514967    1.124908
     84          8           0       -1.581472   -1.515141    0.505911
     85          6           0       -3.620309   -3.658717   -0.355498
     86          6           0       -4.972232   -4.322969   -0.539817
     87          6           0       -5.288081   -5.619256   -0.129843
     88          6           0       -5.933437   -3.595879   -1.243468
     89          6           0       -6.547421   -6.179570   -0.391782
     90          6           0       -7.217329   -4.124933   -1.437437
     91          6           0       -7.570488   -5.401455   -0.961756
     92          8           0       -8.832403   -5.886024   -1.196199
     93          1           0       -4.008600   -0.883460    0.949677
     94          1           0       -3.502705   -3.588083    1.846610
     95          1           0       -2.915727   -4.484650   -0.265504
     96          1           0       -3.483174   -2.952833   -1.177886
     97          1           0       -4.535295   -6.206706    0.376928
     98          1           0       -5.736356   -2.588942   -1.591226
     99          1           0       -6.737132   -7.179176   -0.034435
    100          1           0       -8.049559   -3.517834   -1.773028
    101          1           0       -9.327289   -5.230132   -1.692781
    102          7           0       -1.045084   -3.305430    1.712788
    103          6           0        0.351727   -2.982061    1.872948
    104          6           0        1.130857   -3.885764    0.922224
    105          8           0        1.033696   -5.107027    1.044193
    106          6           0        0.839660   -3.273250    3.295350
    107          6           0       -0.056985   -2.554322    4.300373
    108          6           0        2.323828   -2.935789    3.377599
    109          6           0        0.488375   -2.825387    5.694542
    110          1           0       -1.461683   -4.168186    2.035585
    111          1           0        0.507636   -1.920992    1.703163
    112          1           0        0.741752   -4.350978    3.443726
    113          1           0       -1.061191   -2.980073    4.302630
    114          1           0       -0.156272   -1.501426    4.020099
    115          1           0        2.861598   -3.077553    2.436532
    116          1           0        2.362249   -1.871340    3.587532
    117          1           0        2.831683   -3.519845    4.143015
    118          1           0        1.483342   -2.390497    5.786258
    119          1           0       -0.176182   -2.341618    6.408986
    120          1           0        0.492583   -3.916491    5.732948
    121          7           0        1.808126   -3.272038   -0.046666
    122          6           0        2.543558   -3.992686   -1.062051
    123          6           0        4.045618   -3.911596   -0.839253
    124          8           0        4.566065   -3.007940   -0.188529
    125          6           0        2.144768   -3.535357   -2.460985
    126          8           0        2.451910   -2.182457   -2.667687
    127          1           0        1.738831   -2.258717    0.013992
    128          1           0        2.131868   -5.004078   -0.983964
    129          1           0        1.053296   -3.617488   -2.518810
    130          1           0        2.570742   -4.187609   -3.228261
    131          1           0        1.956657   -1.632537   -2.050506
    132          7           0        4.836863   -4.778073   -1.473169
    133          6           0        6.229483   -4.933702   -1.110419
    134          6           0        7.015903   -3.651947   -1.359917
    135          8           0        8.003967   -3.346469   -0.705079
    136          6           0        6.696852   -6.148103   -1.907285
    137          1           0        4.374913   -5.429215   -2.101194
    138          1           0        6.322752   -5.208510   -0.064674
    139          1           0        6.966849   -5.890054   -2.927389
    140          1           0        7.636158   -6.382397   -1.417580
    141          1           0        5.961715   -6.953353   -1.936378
    142          7           0        6.547182   -2.861362   -2.334173
    143          6           0        7.244606   -1.651864   -2.731180
    144          6           0        7.025348   -0.523734   -1.746169
    145          8           0        7.886479    0.325809   -1.503619
    146          6           0        6.773824   -1.336072   -4.154289
    147          1           0        5.683695   -3.141436   -2.760023
    148          1           0        8.310629   -1.877613   -2.689549
    149          1           0        5.702444   -1.177680   -4.265451
    150          1           0        7.339774   -0.532741   -4.619435
    151          1           0        7.011798   -2.233980   -4.735261
    152          7           0        5.910724   -0.579246   -1.013959
    153          6           0        5.598904    0.402816   -0.002563
    154          6           0        6.270221    0.008952    1.305262
    155          8           0        6.654670    0.904612    2.056189
    156          6           0        4.085813    0.430165    0.169506
    157          6           0        3.220324    0.939444   -0.983475
    158          6           0        1.740328    0.668663   -0.765329
    159          8           0        1.027919    1.681127   -0.918924
    160          8           0        1.281740   -0.489115   -0.695709
    161          1           0        5.283082   -1.372644   -1.134728
    162          1           0        5.888430    1.398745   -0.329520
    163          1           0        3.856340    1.145462    0.966997
    164          1           0        3.795635   -0.611812    0.292309
    165          1           0        3.560797    0.436200   -1.892828
    166          1           0        3.467804    1.997025   -1.033248
    167          7           0        6.338629   -1.271726    1.679137
    168          6           0        6.952398   -1.684288    2.920339
    169          1           0        7.911031   -1.178247    3.036680
    170          1           0        6.299689   -1.422410    3.753614
    171          1           0        7.111280   -2.761960    2.906777
    172          1           0        6.140863   -1.899916    0.903530
    173         20           0       -1.193120    0.281043   -1.259735
    174          8           0       -0.915123   -1.922302   -2.594121
    175          1           0       -0.931818   -1.779166   -3.535468
    176          1           0       -1.080687   -2.864630   -2.486846
 ---------------------------------------------------------------------

 SCF Done:  E(RB3LYP) =  -5333.58138901     A.U. after   19 cycles

 The electronic state is 1-A.
 Alpha  occ. eigenvalues -- -145.37296 -19.21688 -19.14777 -19.14580 -19.14383
 Alpha  occ. eigenvalues --  -19.11938 -19.11865 -19.11667 -19.11458 -19.10916
 Alpha  occ. eigenvalues --  -19.10058 -19.08992 -19.08795 -19.07989 -19.06620
 Alpha  occ. eigenvalues --  -19.06429 -19.04959 -19.04948 -19.04696 -19.04458
 Alpha  occ. eigenvalues --  -19.04167 -19.03346 -19.02818 -19.01323 -15.43062
 Alpha  occ. eigenvalues --  -14.58675 -14.39981 -14.37697 -14.37185 -14.37023
 Alpha  occ. eigenvalues --  -14.36655 -14.35490 -14.34359 -14.32818 -14.32748
 Alpha  occ. eigenvalues --  -14.31904 -14.30963 -14.29135 -14.29109 -14.28822
 Alpha  occ. eigenvalues --  -12.56679 -12.56637 -12.56615 -10.35157 -10.32495
 Alpha  occ. eigenvalues --  -10.30461 -10.30138 -10.30097 -10.29462 -10.29216
 Alpha  occ. eigenvalues --  -10.28106 -10.27603 -10.27488 -10.27355 -10.26591
 Alpha  occ. eigenvalues --  -10.26187 -10.25968 -10.25241 -10.25186 -10.24720
 Alpha  occ. eigenvalues --  -10.24459 -10.23883 -10.23845 -10.23456 -10.23424
 Alpha  occ. eigenvalues --  -10.23164 -10.22603 -10.22274 -10.22266 -10.22147
 Alpha  occ. eigenvalues --  -10.21900 -10.21867 -10.21852 -10.21794 -10.20890
 Alpha  occ. eigenvalues --  -10.20708 -10.20497 -10.19937 -10.19484 -10.19351
 Alpha  occ. eigenvalues --  -10.19318 -10.18503 -10.18426 -10.18401 -10.18368
 Alpha  occ. eigenvalues --  -10.18328 -10.17894 -10.17849 -10.17739 -10.17543
 Alpha  occ. eigenvalues --  -10.17431 -10.17064 -10.16998 -10.16765 -10.16508
 Alpha  occ. eigenvalues --  -10.16505 -10.14597  -1.80033  -1.14114  -1.08397
 Alpha  occ. eigenvalues --   -1.08037  -1.07987  -1.07591  -1.06717  -1.05605
 Alpha  occ. eigenvalues --   -1.05258  -1.04636  -1.04429  -1.03949  -1.03256
 Alpha  occ. eigenvalues --   -1.02984  -1.02323  -1.01852  -1.00975  -0.99674
 Alpha  occ. eigenvalues --   -0.99582  -0.98936  -0.98829  -0.97947  -0.97623
 Alpha  occ. eigenvalues --   -0.96921  -0.96535  -0.95991  -0.95627  -0.94400
 Alpha  occ. eigenvalues --   -0.94181  -0.93744  -0.92024  -0.91493  -0.91384
 Alpha  occ. eigenvalues --   -0.90632  -0.89716  -0.89100  -0.88729  -0.88656
 Alpha  occ. eigenvalues --   -0.88167  -0.87101  -0.86989  -0.85824  -0.85145
 Alpha  occ. eigenvalues --   -0.83094  -0.82920  -0.82199  -0.81565  -0.79565
 Alpha  occ. eigenvalues --   -0.78682  -0.78100  -0.77819  -0.77560  -0.75871
 Alpha  occ. eigenvalues --   -0.75664  -0.75075  -0.74274  -0.73482  -0.72608
 Alpha  occ. eigenvalues --   -0.72514  -0.72417  -0.72102  -0.72022  -0.70614
 Alpha  occ. eigenvalues --   -0.69721  -0.69244  -0.68566  -0.68215  -0.67933
 Alpha  occ. eigenvalues --   -0.67782  -0.66292  -0.64916  -0.64534  -0.64331
 Alpha  occ. eigenvalues --   -0.64219  -0.63638  -0.62696  -0.61332  -0.61110
 Alpha  occ. eigenvalues --   -0.60898  -0.60765  -0.60506  -0.60424  -0.60222
 Alpha  occ. eigenvalues --   -0.59996  -0.59691  -0.59251  -0.58876  -0.58312
 Alpha  occ. eigenvalues --   -0.57432  -0.57165  -0.57071  -0.56321  -0.56083
 Alpha  occ. eigenvalues --   -0.55881  -0.55863  -0.55614  -0.55036  -0.54584
 Alpha  occ. eigenvalues --   -0.54199  -0.54073  -0.53554  -0.53476  -0.53164
 Alpha  occ. eigenvalues --   -0.52894  -0.52595  -0.52200  -0.52008  -0.51721
 Alpha  occ. eigenvalues --   -0.51577  -0.51212  -0.50611  -0.50408  -0.50095
 Alpha  occ. eigenvalues --   -0.49807  -0.49697  -0.49449  -0.49275  -0.49163
 Alpha  occ. eigenvalues --   -0.48917  -0.48627  -0.48395  -0.48366  -0.48092
 Alpha  occ. eigenvalues --   -0.48014  -0.47889  -0.47610  -0.47390  -0.47061
 Alpha  occ. eigenvalues --   -0.46752  -0.46456  -0.46349  -0.46218  -0.46072
 Alpha  occ. eigenvalues --   -0.45984  -0.45923  -0.45241  -0.45188  -0.44841
 Alpha  occ. eigenvalues --   -0.44777  -0.44657  -0.44340  -0.44230  -0.44044
 Alpha  occ. eigenvalues --   -0.43860  -0.43615  -0.43479  -0.43115  -0.43009
 Alpha  occ. eigenvalues --   -0.42973  -0.42732  -0.42671  -0.42558  -0.42272
 Alpha  occ. eigenvalues --   -0.42079  -0.41977  -0.41900  -0.41739  -0.41728
 Alpha  occ. eigenvalues --   -0.41380  -0.41054  -0.40998  -0.40794  -0.40692
 Alpha  occ. eigenvalues --   -0.40595  -0.40501  -0.40429  -0.40346  -0.39944
 Alpha  occ. eigenvalues --   -0.39844  -0.39731  -0.39721  -0.39529  -0.39464
 Alpha  occ. eigenvalues --   -0.39400  -0.39259  -0.39163  -0.39028  -0.38946
 Alpha  occ. eigenvalues --   -0.38863  -0.38768  -0.38693  -0.38525  -0.38354
 Alpha  occ. eigenvalues --   -0.38208  -0.37779  -0.37544  -0.37331  -0.37143
 Alpha  occ. eigenvalues --   -0.36980  -0.36903  -0.36748  -0.36653  -0.36588
 Alpha  occ. eigenvalues --   -0.36548  -0.36241  -0.36111  -0.35868  -0.35656
 Alpha  occ. eigenvalues --   -0.35464  -0.35310  -0.34916  -0.34852  -0.34828
 Alpha  occ. eigenvalues --   -0.34310  -0.34217  -0.34017  -0.33982  -0.33699
 Alpha  occ. eigenvalues --   -0.33655  -0.33418  -0.32996  -0.32654  -0.32399
 Alpha  occ. eigenvalues --   -0.32224  -0.32055  -0.32008  -0.31720  -0.31697
 Alpha  occ. eigenvalues --   -0.31433  -0.31273  -0.31099  -0.31051  -0.29997
 Alpha  occ. eigenvalues --   -0.29809  -0.29490  -0.29157  -0.29004  -0.28885
 Alpha  occ. eigenvalues --   -0.28773  -0.27685  -0.27619  -0.27334  -0.27157
 Alpha  occ. eigenvalues --   -0.26863  -0.26677  -0.26327  -0.26076  -0.25337
 Alpha  occ. eigenvalues --   -0.24663  -0.24267  -0.24212  -0.23780  -0.23627
 Alpha  occ. eigenvalues --   -0.23228  -0.23109  -0.23020  -0.22480  -0.22239
 Alpha  occ. eigenvalues --   -0.21801  -0.21750  -0.21679  -0.21518  -0.21043
 Alpha  occ. eigenvalues --   -0.20429  -0.20289  -0.20170  -0.19275  -0.19061
 Alpha  occ. eigenvalues --   -0.18667  -0.17732  -0.17355
 Alpha virt. eigenvalues --   -0.10844  -0.04627  -0.04509  -0.04142  -0.02959
 Alpha virt. eigenvalues --   -0.00827  -0.00761  -0.00486  -0.00039   0.00108
 Alpha virt. eigenvalues --    0.00640   0.00939   0.01341   0.01555   0.01674

 Mulliken charges:
               1
     1  C    0.041070
     2  C    0.014207
     3  O   -0.286838
     4  H    0.040720
     5  H    0.023748
     6  H    0.040361
     7  N   -0.111426
     8  C    0.116064
     9  C    0.067736
    10  O   -0.271220
    11  C    0.048367
    12  C    0.201364
    13  O   -0.482319
    14  O   -0.381793
    15  H    0.111602
    16  H    0.002383
    17  H    0.008732
    18  H   -0.017679
    19  N   -0.127792
    20  C    0.125780
    21  C    0.058256
    22  O   -0.289666
    23  C    0.028604
    24  C    0.001770
    25  C   -0.047649
    26  C    0.035018
    27  N    0.076797
    28  H    0.139973
    29  H   -0.004824
    30  H    0.012488
    31  H    0.016520
    32  H    0.031934
    33  H    0.028997
    34  H    0.043151
    35  H    0.032885
    36  H    0.069428
    37  H    0.081843
    38  H    0.185759
    39  H    0.189616
    40  H    0.201581
    41  N   -0.156560
    42  C    0.132505
    43  C    0.044188
    44  O   -0.290605
    45  C    0.044440
    46  C    0.128365
    47  O   -0.377062
    48  O   -0.463876
    49  H    0.151369
    50  H   -0.002885
    51  H   -0.010243
    52  H    0.024036
    53  N   -0.172944
    54  C    0.276518
    55  C    0.017703
    56  O   -0.291079
    57  H    0.148165
    58  H    0.002657
    59  H    0.039265
    60  N   -0.190719
    61  C    0.153783
    62  C    0.060577
    63  O   -0.313258
    64  C    0.097537
    65  C    0.059401
    66  N   -0.038724
    67  O   -0.356758
    68  H    0.161952
    69  H    0.033633
    70  H    0.065003
    71  H   -0.007632
    72  H    0.134222
    73  H    0.114236
    74  N   -0.168944
    75  C    0.320576
    76  C   -0.034958
    77  O   -0.310486
    78  H    0.164877
    79  H    0.040084
    80  H    0.028024
    81  N   -0.163731
    82  C    0.158009
    83  C    0.078434
    84  O   -0.376333
    85  C    0.181201
    86  C    0.007173
    87  C    0.010163
    88  C   -0.016747
    89  C   -0.034050
    90  C   -0.048814
    91  C    0.174998
    92  O   -0.198633
    93  H    0.156137
    94  H   -0.014457
    95  H   -0.041068
    96  H   -0.028311
    97  H   -0.049187
    98  H   -0.030702
    99  H   -0.032705
   100  H   -0.023571
   101  H    0.171853
   102  N   -0.097250
   103  C    0.146210
   104  C    0.043384
   105  O   -0.289812
   106  C   -0.129891
   107  C    0.007816
   108  C    0.046577
   109  C    0.046331
   110  H    0.134185
   111  H    0.022634
   112  H   -0.005180
   113  H   -0.006165
   114  H    0.005329
   115  H    0.019888
   116  H    0.017363
   117  H    0.018418
   118  H    0.011370
   119  H    0.011873
   120  H    0.010455
   121  N   -0.135145
   122  C    0.061201
   123  C    0.132215
   124  O   -0.283335
   125  C    0.272871
   126  O   -0.344533
   127  H    0.155910
   128  H    0.019393
   129  H   -0.051433
   130  H   -0.007216
   131  H    0.176281
   132  N   -0.155919
   133  C    0.091260
   134  C    0.062024
   135  O   -0.251256
   136  C    0.048419
   137  H    0.124029
   138  H    0.025130
   139  H    0.010385
   140  H    0.038864
   141  H    0.031756
   142  N   -0.162428
   143  C    0.117933
   144  C    0.070528
   145  O   -0.286033
   146  C    0.036719
   147  H    0.111550
   148  H    0.024099
   149  H    0.024903
   150  H    0.026350
   151  H    0.009116
   152  N   -0.177748
   153  C    0.175211
   154  C    0.076603
   155  O   -0.301729
   156  C   -0.062482
   157  C    0.110672
   158  C    0.156063
   159  O   -0.400407
   160  O   -0.437809
   161  H    0.131964
   162  H   -0.039823
   163  H    0.046666
   164  H    0.003295
   165  H   -0.006259
   166  H   -0.040032
   167  N   -0.172883
   168  C    0.160103
   169  H    0.024971
   170  H    0.019441
   171  H    0.007528
   172  H    0.136855
   173  Ca   1.280701
   174  O   -0.283233
   175  H    0.186798
   176  H    0.206769
 Sum of Mulliken charges =   0.00000

 Dipole moment (field-independent basis, Debye):
    X=             33.8277    Y=              2.1506    Z=            -11.9660  Tot=             35.9461
 Quadrupole moment (field-independent basis, Debye-Ang):
   XX=           -606.8261   YY=           -442.0843   ZZ=           -512.3875
   XY=            189.0953   XZ=            -33.4303   YZ=              2.2838

 ESP charges:
               1
     1  C   -0.472394
     2  C    0.835513
     3  O   -0.667997
     4  H    0.145332
     5  H    0.103296
     6  H    0.134710
     7  N   -0.789818
     8  C    0.516125
     9  C    0.387658
    10  O   -0.484143
    11  C   -0.478195
    12  C    0.745002
    13  O   -0.693325
    14  O   -0.629160
    15  H    0.361910
    16  H    0.023978
    17  H    0.114044
    18  H    0.077788
    19  N   -0.035061
    20  C   -0.457096
    21  C    0.832271
    22  O   -0.597896
    23  C    0.310661
    24  C   -0.310884
    25  C    0.094575
    26  C    0.105692
    27  N   -0.408293
    28  H    0.014523
    29  H    0.148466
    30  H   -0.005329
    31  H    0.053022
    32  H    0.109088
    33  H    0.051841
    34  H    0.009267
    35  H    0.004202
    36  H    0.064555
    37  H    0.080725
    38  H    0.315961
    39  H    0.347567
    40  H    0.330572
    41  N   -0.831182
    42  C    0.464583
    43  C    0.231231
    44  O   -0.537320
    45  C   -0.428708
    46  C    0.917178
    47  O   -0.721301
    48  O   -0.954411
    49  H    0.521289
    50  H    0.010674
    51  H    0.079904
    52  H    0.104493
    53  N    0.352408
    54  C   -0.306254
    55  C    0.566694
    56  O   -0.576644
    57  H   -0.285131
    58  H    0.112315
    59  H    0.159257
    60  N   -0.225402
    61  C   -0.364753
    62  C    0.455044
    63  O   -0.547721
    64  C    0.095439
    65  C    0.427893
    66  N   -0.757181
    67  O   -0.502905
    68  H    0.211164
    69  H    0.209019
    70  H    0.086434
    71  H    0.030294
    72  H    0.380946
    73  H    0.348391
    74  N    0.085014
    75  C   -0.611315
    76  C    0.802272
    77  O   -0.593762
    78  H    0.177984
    79  H    0.221268
    80  H    0.194655
    81  N   -0.786029
    82  C    0.615470
    83  C    0.363370
    84  O   -0.496989
    85  C   -0.165527
    86  C   -0.071506
    87  C   -0.025951
    88  C   -0.001919
    89  C   -0.393200
    90  C   -0.503528
    91  C    0.568574
    92  O   -0.584986
    93  H    0.338902
    94  H   -0.050728
    95  H    0.014157
    96  H   -0.010002
    97  H    0.099043
    98  H    0.165918
    99  H    0.180455
   100  H    0.177551
   101  H    0.408694
   102  N   -0.528372
   103  C   -0.134335
   104  C    0.587263
   105  O   -0.561578
   106  C    0.288921
   107  C    0.267176
   108  C   -0.309574
   109  C   -0.357547
   110  H    0.316422
   111  H    0.128039
   112  H   -0.037748
   113  H   -0.043030
   114  H   -0.066439
   115  H    0.044575
   116  H    0.067541
   117  H    0.085347
   118  H    0.063308
   119  H    0.082827
   120  H    0.073680
   121  N   -0.238310
   122  C   -0.169462
   123  C    0.612114
   124  O   -0.491409
   125  C    0.382541
   126  O   -0.645514
   127  H    0.295102
   128  H    0.062044
   129  H   -0.075412
   130  H   -0.005337
   131  H    0.419858
   132  N   -0.535509
   133  C    0.156442
   134  C    0.555446
   135  O   -0.537843
   136  C   -0.314448
   137  H    0.304943
   138  H    0.078318
   139  H    0.080688
   140  H    0.097915
   141  H    0.110188
   142  N   -0.463419
   143  C    0.148818
   144  C    0.333099
   145  O   -0.531624
   146  C   -0.356607
   147  H    0.276885
   148  H    0.103583
   149  H    0.110526
   150  H    0.114071
   151  H    0.084846
   152  N    0.059627
   153  C   -0.413911
   154  C    0.601935
   155  O   -0.570259
   156  C    0.193806
   157  C   -0.010350
   158  C    0.886449
   159  O   -0.792915
   160  O   -0.886153
   161  H    0.108726
   162  H    0.148280
   163  H    0.070131
   164  H   -0.167753
   165  H   -0.035741
   166  H   -0.055152
   167  N   -0.190138
   168  C   -0.186756
   169  H    0.097013
   170  H    0.080222
   171  H    0.084728
   172  H    0.185157
   173  Ca   1.712049
   174  O   -0.846019
   175  H    0.422611
   176  H    0.443024
 Sum of ESP charges =   0.00000

 Normal termination of Gaussian 09 at Mon Sep 16 13:43:09 2019.
