 Gaussian 16, Revision A.03,
 Gaussian 16:  ES64L-G16RevA.03 25-Dec-2016

 ----------------------------------------------------------------------
 #b3lyp/svp scf=(tight,noincore) Test #IOP(5/87=12) Density=Current Pop
 =(MK,readradii) iop(6/33=2) iop(6/42=6)
 ----------------------------------------------------------------------

 -----------------
 CaMKII_loop3_53.0
 -----------------
 Symbolic Z-matrix:
 Charge =  0 Multiplicity = 1

                         Standard orientation:
 ---------------------------------------------------------------------
 Center     Atomic      Atomic             Coordinates (Angstroms)
 Number     Number       Type             X           Y           Z
 ---------------------------------------------------------------------
      1          6           0        2.380985    2.452445    4.988863
      2          6           0        1.610741    2.265896    3.693246
      3          8           0        2.212453    2.424187    2.633677
      4          1           0        3.265808    1.815925    4.979579
      5          1           0        2.684991    3.494432    5.084554
      6          1           0        1.746208    2.178947    5.832248
      7          7           0        0.334535    1.892780    3.771892
      8          6           0       -0.567378    1.898239    2.637818
      9          6           0       -0.772921    3.307692    2.088186
     10          8           0       -1.602219    4.002453    2.667644
     11          6           0       -1.781637    1.059481    3.005324
     12          6           0       -2.853285    1.025472    1.921574
     13          8           0       -2.529545    1.027862    0.714268
     14          8           0       -4.075120    1.048425    2.229944
     15          1           0       -0.046708    1.610223    4.664873
     16          1           0        0.000894    1.382899    1.855201
     17          1           0       -2.182024    1.440537    3.948821
     18          1           0       -1.455562    0.040623    3.190802
     19          7           0       -0.025375    3.781773    1.096509
     20          6           0        0.160725    5.190479    0.790219
     21          6           0       -1.040006    5.763336    0.033198
     22          8           0       -1.509493    6.882918    0.261709
     23          6           0        1.544232    5.428109    0.186284
     24          6           0        1.725737    6.693293   -0.641524
     25          6           0        3.216670    6.795760   -0.971250
     26          6           0        3.709376    5.649761   -1.839654
     27          7           0        5.178575    5.615293   -1.912911
     28          1           0        0.652481    3.151118    0.694409
     29          1           0        0.117737    5.744886    1.729839
     30          1           0        1.740977    4.629779   -0.529371
     31          1           0        2.381436    5.252302    0.867152
     32          1           0        1.392409    7.496004    0.008359
     33          1           0        1.170300    6.599310   -1.571232
     34          1           0        3.817939    6.761170   -0.069264
     35          1           0        3.353771    7.805356   -1.354419
     36          1           0        3.289957    5.719103   -2.840244
     37          1           0        3.320218    4.650240   -1.595287
     38          1           0        5.398428    6.454730   -2.430608
     39          1           0        5.510634    5.620003   -0.960118
     40          1           0        5.497372    4.811251   -2.439964
     41          7           0       -1.561106    4.967484   -0.895981
     42          6           0       -2.690990    5.338296   -1.731481
     43          6           0       -4.039613    5.097300   -1.054254
     44          8           0       -5.012451    5.809939   -1.274781
     45          6           0       -2.604300    4.623162   -3.069041
     46          6           0       -2.158866    3.160772   -3.071269
     47          8           0       -2.131650    2.441089   -2.047592
     48          8           0       -1.871063    2.635896   -4.161532
     49          1           0       -1.046565    4.111317   -1.056064
     50          1           0       -2.701137    6.393626   -2.011081
     51          1           0       -1.878929    5.186082   -3.654496
     52          1           0       -3.512317    4.743281   -3.662822
     53          7           0       -4.081581    4.064070   -0.205798
     54          6           0       -5.133142    3.725669    0.725332
     55          6           0       -5.980720    2.524553    0.302683
     56          8           0       -7.178194    2.408462    0.560325
     57          1           0       -3.174471    3.621980   -0.086184
     58          1           0       -5.854098    4.535046    0.786403
     59          1           0       -4.690778    3.550860    1.704697
     60          7           0       -5.418503    1.631045   -0.510800
     61          6           0       -6.142214    0.527756   -1.106615
     62          6           0       -6.649307   -0.552659   -0.159008
     63          8           0       -7.622308   -1.255306   -0.456760
     64          6           0       -5.406989   -0.045843   -2.309748
     65          6           0       -4.533609   -1.217978   -1.882890
     66          7           0       -4.812013   -2.424782   -2.373416
     67          8           0       -3.732824   -1.004440   -0.975782
     68          1           0       -4.470218    1.760270   -0.815688
     69          1           0       -7.015418    1.019707   -1.545705
     70          1           0       -4.881833    0.753950   -2.842235
     71          1           0       -6.082260   -0.442050   -3.063956
     72          1           0       -5.557896   -2.480172   -3.064711
     73          1           0       -4.484509   -3.254431   -1.901585
     74          7           0       -6.025565   -0.782578    0.993461
     75          6           0       -6.285628   -1.895975    1.882007
     76          6           0       -5.133113   -2.874240    2.094859
     77          8           0       -5.187859   -3.863166    2.817720
     78          1           0       -5.159449   -0.287847    1.176993
     79          1           0       -7.180730   -2.382876    1.491597
     80          1           0       -6.647356   -1.463458    2.809467
     81          7           0       -3.992958   -2.676919    1.423435
     82          6           0       -2.846216   -3.543835    1.543185
     83          6           0       -1.591457   -2.677873    1.560153
     84          8           0       -1.512962   -1.683082    0.838538
     85          6           0       -2.824297   -4.790391    0.651379
     86          6           0       -3.832353   -4.939424   -0.461102
     87          6           0       -5.125066   -5.358010   -0.094255
     88          6           0       -3.468054   -4.934446   -1.811754
     89          6           0       -6.036590   -5.927306   -0.988194
     90          6           0       -4.408166   -5.416539   -2.731741
     91          6           0       -5.670722   -5.910145   -2.345856
     92          8           0       -6.512349   -6.370365   -3.319900
     93          1           0       -3.892596   -1.920230    0.763701
     94          1           0       -2.916021   -3.968226    2.544744
     95          1           0       -2.922116   -5.670647    1.282395
     96          1           0       -1.895910   -4.847135    0.075900
     97          1           0       -5.363390   -5.350634    0.963690
     98          1           0       -2.541312   -4.440493   -2.058250
     99          1           0       -6.972308   -6.392179   -0.707437
    100          1           0       -4.196290   -5.351972   -3.784708
    101          1           0       -6.012251   -6.363470   -4.137491
    102          7           0       -0.560262   -3.221640    2.201367
    103          6           0        0.816015   -2.779361    2.136937
    104          6           0        1.480894   -3.704474    1.120324
    105          8           0        1.518388   -4.920242    1.312680
    106          6           0        1.569128   -2.716162    3.456871
    107          6           0        0.659383   -1.925899    4.398279
    108          6           0        2.939349   -2.078680    3.231012
    109          6           0        1.066900   -1.944605    5.869394
    110          1           0       -0.912300   -3.923987    2.827847
    111          1           0        0.802106   -1.826274    1.607472
    112          1           0        1.769500   -3.726068    3.829482
    113          1           0       -0.414684   -2.081442    4.415267
    114          1           0        0.755371   -0.856343    4.195705
    115          1           0        3.566968   -2.313332    4.090799
    116          1           0        3.505054   -2.645826    2.500448
    117          1           0        2.942751   -1.026536    2.948909
    118          1           0        2.100369   -1.674184    6.085762
    119          1           0        0.460683   -1.357249    6.554678
    120          1           0        0.965993   -3.014107    6.085228
    121          7           0        2.218853   -3.056405    0.214882
    122          6           0        3.076912   -3.699758   -0.753844
    123          6           0        4.543363   -3.491537   -0.391677
    124          8           0        4.893574   -2.575112    0.337855
    125          6           0        2.824743   -3.164051   -2.161903
    126          8           0        2.838967   -1.779554   -2.448895
    127          1           0        2.182133   -2.044944    0.166949
    128          1           0        2.944242   -4.776635   -0.700605
    129          1           0        1.799543   -3.446762   -2.397779
    130          1           0        3.479821   -3.690896   -2.859476
    131          1           0        2.181215   -1.327475   -1.910391
    132          7           0        5.406441   -4.252250   -1.063921
    133          6           0        6.848575   -4.210132   -0.981608
    134          6           0        7.571978   -2.895194   -1.216397
    135          8           0        8.491582   -2.454162   -0.515028
    136          6           0        7.353769   -5.456846   -1.694126
    137          1           0        5.116967   -5.063970   -1.597882
    138          1           0        6.948619   -4.431828    0.082132
    139          1           0        6.753873   -6.355171   -1.520812
    140          1           0        7.296153   -5.269126   -2.764612
    141          1           0        8.391876   -5.675996   -1.428780
    142          7           0        7.260245   -2.261180   -2.352817
    143          6           0        7.631119   -0.897022   -2.680881
    144          6           0        7.180069    0.173884   -1.691126
    145          8           0        7.837943    1.196815   -1.549302
    146          6           0        7.161522   -0.668751   -4.115548
    147          1           0        6.655010   -2.783082   -2.967397
    148          1           0        8.715724   -0.898643   -2.640521
    149          1           0        7.466742    0.345332   -4.353404
    150          1           0        7.762747   -1.208800   -4.848130
    151          1           0        6.099408   -0.769610   -4.343237
    152          7           0        6.018885    0.068263   -1.050505
    153          6           0        5.489790    1.017929   -0.089208
    154          6           0        6.155801    0.895955    1.274593
    155          8           0        6.254200    1.856070    2.023657
    156          6           0        4.003871    0.715581    0.122525
    157          6           0        3.126867    1.280499   -0.989515
    158          6           0        1.709034    0.796008   -0.736694
    159          8           0        1.461366   -0.430735   -0.755671
    160          8           0        0.835203    1.667962   -0.544043
    161          1           0        5.366086   -0.523273   -1.554231
    162          1           0        5.595236    2.043111   -0.423848
    163          1           0        3.824164    1.263717    1.049160
    164          1           0        3.793254   -0.354417    0.184529
    165          1           0        3.496154    0.852480   -1.921731
    166          1           0        3.153283    2.367604   -0.991711
    167          7           0        6.680918   -0.292585    1.594944
    168          6           0        7.313075   -0.629301    2.849017
    169          1           0        8.197503   -1.237524    2.657708
    170          1           0        7.605679    0.284104    3.366376
    171          1           0        6.614539   -1.190796    3.470065
    172          1           0        6.432519   -1.046799    0.970396
    173         20           0       -1.215959    0.112692   -1.238283
    174          8           0       -2.488813   -0.124207   -3.632740
    175          1           0       -2.365478    0.784910   -3.922558
    176          1           0       -2.462843   -0.638737   -4.435538
 ---------------------------------------------------------------------

 SCF Done:  E(RB3LYP) =  -5333.55567768     A.U. after   17 cycles

 The electronic state is 1-A.
 Alpha  occ. eigenvalues -- -145.40442 -19.17246 -19.15619 -19.14622 -19.14350
 Alpha  occ. eigenvalues --  -19.13984 -19.12657 -19.12194 -19.12184 -19.11641
 Alpha  occ. eigenvalues --  -19.11022 -19.10049 -19.09015 -19.08550 -19.07187
 Alpha  occ. eigenvalues --  -19.06994 -19.06660 -19.06335 -19.04856 -19.04209
 Alpha  occ. eigenvalues --  -19.04122 -19.03204 -19.02800 -19.01131 -15.46150
 Alpha  occ. eigenvalues --  -14.58444 -14.40133 -14.38605 -14.37414 -14.37213
 Alpha  occ. eigenvalues --  -14.37031 -14.35109 -14.35106 -14.33959 -14.32969
 Alpha  occ. eigenvalues --  -14.32879 -14.32473 -14.29580 -14.29551 -14.28787
 Alpha  occ. eigenvalues --  -12.59751 -12.59740 -12.59721 -10.34704 -10.32203
 Alpha  occ. eigenvalues --  -10.31625 -10.31605 -10.30348 -10.30178 -10.29324
 Alpha  occ. eigenvalues --  -10.28737 -10.27835 -10.27710 -10.27378 -10.27152
 Alpha  occ. eigenvalues --  -10.26949 -10.26743 -10.26252 -10.26181 -10.26050
 Alpha  occ. eigenvalues --  -10.25877 -10.25457 -10.25088 -10.24649 -10.24210
 Alpha  occ. eigenvalues --  -10.23782 -10.23601 -10.23350 -10.23021 -10.22865
 Alpha  occ. eigenvalues --  -10.22840 -10.22772 -10.22234 -10.21931 -10.21650
 Alpha  occ. eigenvalues --  -10.21321 -10.21225 -10.21049 -10.20851 -10.20778
 Alpha  occ. eigenvalues --  -10.20364 -10.20271 -10.20105 -10.20043 -10.19899
 Alpha  occ. eigenvalues --  -10.19757 -10.19635 -10.19314 -10.18871 -10.18732
 Alpha  occ. eigenvalues --  -10.18680 -10.18285 -10.18157 -10.17933 -10.16956
 Alpha  occ. eigenvalues --  -10.16370 -10.15855  -1.82845  -1.13769  -1.10400
 Alpha  occ. eigenvalues --   -1.10159  -1.10094  -1.07797  -1.07586  -1.06108
 Alpha  occ. eigenvalues --   -1.05637  -1.05033  -1.04763  -1.03703  -1.03052
 Alpha  occ. eigenvalues --   -1.02953  -1.02109  -1.01906  -1.01832  -1.00827
 Alpha  occ. eigenvalues --   -1.00643  -1.00399  -0.99483  -0.97963  -0.97534
 Alpha  occ. eigenvalues --   -0.97486  -0.97036  -0.96818  -0.95895  -0.95356
 Alpha  occ. eigenvalues --   -0.94646  -0.94041  -0.94014  -0.91699  -0.90895
 Alpha  occ. eigenvalues --   -0.90606  -0.90237  -0.90075  -0.89854  -0.89235
 Alpha  occ. eigenvalues --   -0.88727  -0.86833  -0.86380  -0.86132  -0.85926
 Alpha  occ. eigenvalues --   -0.85341  -0.83600  -0.82848  -0.81943  -0.81307
 Alpha  occ. eigenvalues --   -0.80254  -0.78841  -0.78493  -0.77062  -0.76009
 Alpha  occ. eigenvalues --   -0.75912  -0.75516  -0.75403  -0.75144  -0.75093
 Alpha  occ. eigenvalues --   -0.73753  -0.73616  -0.72857  -0.71402  -0.71355
 Alpha  occ. eigenvalues --   -0.70974  -0.69813  -0.69581  -0.68867  -0.68727
 Alpha  occ. eigenvalues --   -0.68172  -0.67601  -0.65996  -0.65500  -0.64548
 Alpha  occ. eigenvalues --   -0.63852  -0.63788  -0.63452  -0.63440  -0.63379
 Alpha  occ. eigenvalues --   -0.62324  -0.62188  -0.61745  -0.61309  -0.60652
 Alpha  occ. eigenvalues --   -0.59996  -0.59605  -0.59443  -0.58799  -0.58259
 Alpha  occ. eigenvalues --   -0.57873  -0.57410  -0.56979  -0.56772  -0.56619
 Alpha  occ. eigenvalues --   -0.56546  -0.56276  -0.55335  -0.55155  -0.54987
 Alpha  occ. eigenvalues --   -0.54861  -0.54561  -0.54182  -0.53956  -0.53678
 Alpha  occ. eigenvalues --   -0.53184  -0.52864  -0.52616  -0.52364  -0.52251
 Alpha  occ. eigenvalues --   -0.51863  -0.51537  -0.51315  -0.50965  -0.50797
 Alpha  occ. eigenvalues --   -0.50684  -0.50378  -0.49869  -0.49691  -0.49430
 Alpha  occ. eigenvalues --   -0.49259  -0.49170  -0.48961  -0.48596  -0.48388
 Alpha  occ. eigenvalues --   -0.48222  -0.48007  -0.47916  -0.47693  -0.47504
 Alpha  occ. eigenvalues --   -0.47241  -0.47237  -0.46919  -0.46560  -0.46530
 Alpha  occ. eigenvalues --   -0.46312  -0.46019  -0.45956  -0.45669  -0.45456
 Alpha  occ. eigenvalues --   -0.45234  -0.45005  -0.44878  -0.44804  -0.44678
 Alpha  occ. eigenvalues --   -0.44421  -0.44222  -0.44008  -0.43944  -0.43870
 Alpha  occ. eigenvalues --   -0.43813  -0.43786  -0.43506  -0.43380  -0.43230
 Alpha  occ. eigenvalues --   -0.43015  -0.42987  -0.42805  -0.42710  -0.42524
 Alpha  occ. eigenvalues --   -0.42370  -0.42104  -0.41758  -0.41577  -0.41385
 Alpha  occ. eigenvalues --   -0.41250  -0.41204  -0.41129  -0.41007  -0.40735
 Alpha  occ. eigenvalues --   -0.40701  -0.40358  -0.40321  -0.40191  -0.40152
 Alpha  occ. eigenvalues --   -0.39915  -0.39835  -0.39727  -0.39572  -0.39336
 Alpha  occ. eigenvalues --   -0.39206  -0.39123  -0.38853  -0.38708  -0.38608
 Alpha  occ. eigenvalues --   -0.38542  -0.38175  -0.38160  -0.38018  -0.37984
 Alpha  occ. eigenvalues --   -0.37826  -0.37614  -0.37601  -0.37207  -0.37009
 Alpha  occ. eigenvalues --   -0.36929  -0.36722  -0.36637  -0.36570  -0.36404
 Alpha  occ. eigenvalues --   -0.36261  -0.35860  -0.35606  -0.35565  -0.35478
 Alpha  occ. eigenvalues --   -0.35134  -0.34978  -0.34871  -0.34865  -0.34411
 Alpha  occ. eigenvalues --   -0.34202  -0.34116  -0.33820  -0.33725  -0.33472
 Alpha  occ. eigenvalues --   -0.32856  -0.32782  -0.32421  -0.32285  -0.31990
 Alpha  occ. eigenvalues --   -0.31702  -0.31647  -0.31350  -0.31074  -0.30797
 Alpha  occ. eigenvalues --   -0.30353  -0.30105  -0.29608  -0.29600  -0.29124
 Alpha  occ. eigenvalues --   -0.28941  -0.28710  -0.28492  -0.28161  -0.27984
 Alpha  occ. eigenvalues --   -0.27208  -0.26882  -0.26863  -0.26734  -0.25887
 Alpha  occ. eigenvalues --   -0.25503  -0.25448  -0.25276  -0.24914  -0.24633
 Alpha  occ. eigenvalues --   -0.24148  -0.24120  -0.23959  -0.23690  -0.23362
 Alpha  occ. eigenvalues --   -0.23327  -0.22338  -0.22078  -0.21922  -0.21498
 Alpha  occ. eigenvalues --   -0.20602  -0.20479  -0.20104  -0.19799  -0.19507
 Alpha  occ. eigenvalues --   -0.18743  -0.17886  -0.17029
 Alpha virt. eigenvalues --   -0.10340  -0.04734  -0.04019  -0.03744  -0.03007
 Alpha virt. eigenvalues --   -0.02738  -0.02184  -0.01655  -0.00981  -0.00953
 Alpha virt. eigenvalues --   -0.00732  -0.00336   0.00071   0.00556   0.00904

 Mulliken charges:
               1
     1  C    0.073339
     2  C    0.024206
     3  O   -0.304239
     4  H    0.040498
     5  H    0.040303
     6  H   -0.010739
     7  N   -0.124236
     8  C    0.115862
     9  C    0.058796
    10  O   -0.278605
    11  C    0.098271
    12  C    0.146830
    13  O   -0.474671
    14  O   -0.378270
    15  H    0.124936
    16  H   -0.018733
    17  H   -0.000118
    18  H   -0.007315
    19  N   -0.121793
    20  C    0.180864
    21  C    0.027881
    22  O   -0.273017
    23  C   -0.069093
    24  C    0.071473
    25  C   -0.000032
    26  C   -0.036419
    27  N    0.089143
    28  H    0.151232
    29  H    0.011221
    30  H   -0.019947
    31  H    0.012309
    32  H    0.047007
    33  H    0.028007
    34  H    0.009573
    35  H    0.032219
    36  H    0.063635
    37  H    0.085602
    38  H    0.196932
    39  H    0.210042
    40  H    0.203844
    41  N   -0.137357
    42  C    0.156056
    43  C    0.043009
    44  O   -0.272438
    45  C    0.055965
    46  C    0.115253
    47  O   -0.451305
    48  O   -0.394675
    49  H    0.129275
    50  H   -0.001522
    51  H   -0.009743
    52  H    0.033824
    53  N   -0.176906
    54  C    0.251044
    55  C    0.040066
    56  O   -0.296578
    57  H    0.148534
    58  H    0.016871
    59  H    0.050259
    60  N   -0.126823
    61  C    0.131281
    62  C    0.057895
    63  O   -0.306518
    64  C    0.105722
    65  C    0.045208
    66  N   -0.026707
    67  O   -0.351591
    68  H    0.123958
    69  H    0.015921
    70  H    0.027248
    71  H   -0.026279
    72  H    0.135014
    73  H    0.125007
    74  N   -0.174748
    75  C    0.233399
    76  C    0.050064
    77  O   -0.310769
    78  H    0.156821
    79  H    0.032846
    80  H    0.034852
    81  N   -0.162771
    82  C    0.114842
    83  C    0.091311
    84  O   -0.340703
    85  C    0.189426
    86  C   -0.130647
    87  C    0.016593
    88  C    0.000511
    89  C    0.002466
    90  C   -0.081552
    91  C    0.161273
    92  O   -0.180883
    93  H    0.171623
    94  H   -0.008989
    95  H    0.019656
    96  H   -0.014439
    97  H    0.015285
    98  H   -0.032999
    99  H   -0.007902
   100  H   -0.050400
   101  H    0.167870
   102  N   -0.104561
   103  C    0.133957
   104  C    0.068852
   105  O   -0.287699
   106  C   -0.033201
   107  C    0.007704
   108  C    0.039837
   109  C    0.016109
   110  H    0.126725
   111  H   -0.003273
   112  H   -0.006113
   113  H    0.013180
   114  H   -0.015780
   115  H    0.000257
   116  H    0.009731
   117  H    0.036680
   118  H    0.004383
   119  H    0.012921
   120  H   -0.004333
   121  N   -0.147686
   122  C    0.076822
   123  C    0.103489
   124  O   -0.265844
   125  C    0.257964
   126  O   -0.351296
   127  H    0.162330
   128  H    0.014818
   129  H   -0.009240
   130  H   -0.023796
   131  H    0.174664
   132  N   -0.122633
   133  C    0.044848
   134  C    0.088953
   135  O   -0.260498
   136  C    0.036686
   137  H    0.117885
   138  H    0.021000
   139  H    0.032682
   140  H    0.003596
   141  H    0.052810
   142  N   -0.141588
   143  C    0.119837
   144  C    0.050339
   145  O   -0.278571
   146  C    0.020089
   147  H    0.108625
   148  H    0.025323
   149  H    0.010443
   150  H    0.027426
   151  H    0.031527
   152  N   -0.130789
   153  C    0.178177
   154  C    0.039479
   155  O   -0.279826
   156  C   -0.092316
   157  C    0.124531
   158  C    0.158910
   159  O   -0.452339
   160  O   -0.377109
   161  H    0.120199
   162  H   -0.072669
   163  H    0.055066
   164  H    0.026337
   165  H   -0.009359
   166  H   -0.038056
   167  N   -0.155915
   168  C    0.128926
   169  H    0.027908
   170  H    0.034612
   171  H    0.016482
   172  H    0.139957
   173  Ca   1.323033
   174  O   -0.310660
   175  H    0.160396
   176  H    0.170841
 Sum of Mulliken charges =  -0.00000

 Dipole moment (field-independent basis, Debye):
    X=             34.7403    Y=             -3.9371    Z=            -17.2281  Tot=             38.9768
 Quadrupole moment (field-independent basis, Debye-Ang):
   XX=           -670.1594   YY=           -495.3338   ZZ=           -507.1540
   XY=            121.9752   XZ=            -33.6290   YZ=             -8.0536

 ESP charges:
               1
     1  C   -0.416803
     2  C    0.755354
     3  O   -0.625407
     4  H    0.125352
     5  H    0.127308
     6  H    0.076977
     7  N   -0.689899
     8  C    0.344866
     9  C    0.531225
    10  O   -0.524335
    11  C   -0.698679
    12  C    1.081355
    13  O   -0.996001
    14  O   -0.723370
    15  H    0.364555
    16  H    0.040766
    17  H    0.154086
    18  H    0.180725
    19  N   -0.218854
    20  C   -0.364655
    21  C    0.524109
    22  O   -0.534335
    23  C    0.173485
    24  C   -0.132465
    25  C   -0.087084
    26  C    0.096137
    27  N   -0.606698
    28  H    0.255550
    29  H    0.155205
    30  H    0.012316
    31  H    0.007594
    32  H    0.097696
    33  H    0.056822
    34  H    0.050152
    35  H    0.051013
    36  H    0.084901
    37  H    0.074890
    38  H    0.381129
    39  H    0.402171
    40  H    0.414426
    41  N   -0.305949
    42  C    0.066731
    43  C    0.442511
    44  O   -0.546262
    45  C   -0.360713
    46  C    0.765559
    47  O   -0.704778
    48  O   -0.719674
    49  H    0.225754
    50  H    0.079433
    51  H    0.091599
    52  H    0.139355
    53  N   -0.088402
    54  C   -0.251529
    55  C    0.635872
    56  O   -0.578705
    57  H    0.172411
    58  H    0.119691
    59  H    0.137436
    60  N   -0.373266
    61  C   -0.041737
    62  C    0.473237
    63  O   -0.568585
    64  C   -0.312972
    65  C    0.790394
    66  N   -0.864333
    67  O   -0.549640
    68  H    0.179152
    69  H    0.133398
    70  H    0.176888
    71  H    0.055732
    72  H    0.379541
    73  H    0.412314
    74  N   -0.134090
    75  C   -0.135081
    76  C    0.523805
    77  O   -0.583684
    78  H    0.233723
    79  H    0.109002
    80  H    0.097367
    81  N   -0.356518
    82  C    0.282813
    83  C    0.581555
    84  O   -0.572106
    85  C   -0.292974
    86  C    0.160396
    87  C   -0.193471
    88  C   -0.140235
    89  C   -0.239629
    90  C   -0.395416
    91  C    0.406591
    92  O   -0.531155
    93  H    0.102333
    94  H    0.038348
    95  H    0.106612
    96  H    0.059453
    97  H    0.178475
    98  H    0.128910
    99  H    0.178313
   100  H    0.148608
   101  H    0.394892
   102  N   -0.731203
   103  C    0.027828
   104  C    0.685354
   105  O   -0.578919
   106  C    0.180330
   107  C    0.169224
   108  C   -0.358447
   109  C   -0.283816
   110  H    0.341120
   111  H    0.048635
   112  H    0.019676
   113  H    0.006573
   114  H   -0.011004
   115  H    0.090387
   116  H    0.103192
   117  H    0.068975
   118  H    0.057515
   119  H    0.082368
   120  H    0.025788
   121  N   -0.408675
   122  C   -0.166510
   123  C    0.564258
   124  O   -0.464885
   125  C    0.181196
   126  O   -0.597421
   127  H    0.335658
   128  H    0.096286
   129  H    0.020021
   130  H    0.019303
   131  H    0.380806
   132  N   -0.396126
   133  C    0.075123
   134  C    0.501373
   135  O   -0.508364
   136  C   -0.245686
   137  H    0.268561
   138  H    0.059437
   139  H    0.097978
   140  H    0.045784
   141  H    0.107203
   142  N   -0.447424
   143  C    0.186537
   144  C    0.256529
   145  O   -0.507593
   146  C   -0.411174
   147  H    0.281776
   148  H    0.105473
   149  H    0.113885
   150  H    0.120435
   151  H    0.123632
   152  N    0.115566
   153  C   -0.539469
   154  C    0.611628
   155  O   -0.567161
   156  C    0.445898
   157  C   -0.229310
   158  C    0.742890
   159  O   -0.687238
   160  O   -0.739340
   161  H    0.147350
   162  H    0.146921
   163  H    0.005245
   164  H   -0.200347
   165  H    0.014433
   166  H    0.033011
   167  N   -0.158261
   168  C   -0.185307
   169  H    0.085884
   170  H    0.103787
   171  H    0.070971
   172  H    0.147879
   173  Ca   1.585386
   174  O   -0.902103
   175  H    0.419126
   176  H    0.432713
 Sum of ESP charges =   0.00000

 Normal termination of Gaussian 16 at Wed Sep 18 16:12:43 2019.
