 Gaussian 16, Revision A.03,
 Gaussian 16:  ES64L-G16RevA.03 25-Dec-2016

 ----------------------------------------------------------------------
 #b3lyp/svp scf=(tight,noincore) Test #IOP(5/87=12) Density=Current Pop
 =(MK,readradii) iop(6/33=2) iop(6/42=6)
 ----------------------------------------------------------------------

 -----------------
 CaMKII_loop3_76.0
 -----------------
 Symbolic Z-matrix:
 Charge =  0 Multiplicity = 1

                         Standard orientation:
 ---------------------------------------------------------------------
 Center     Atomic      Atomic             Coordinates (Angstroms)
 Number     Number       Type             X           Y           Z
 ---------------------------------------------------------------------
      1          6           0        1.684017    3.809549    4.064204
      2          6           0        0.855673    3.335607    2.869790
      3          8           0        1.265972    3.446887    1.722022
      4          1           0        2.741551    3.632283    3.865731
      5          1           0        1.519050    4.875536    4.221907
      6          1           0        1.385388    3.259360    4.956011
      7          7           0       -0.398969    2.957313    3.147219
      8          6           0       -1.324056    2.475626    2.149226
      9          6           0       -1.897746    3.567998    1.264182
     10          8           0       -2.997904    4.053088    1.513262
     11          6           0       -2.326625    1.579203    2.874540
     12          6           0       -3.379776    1.042689    1.911096
     13          8           0       -4.495053    0.658322    2.322093
     14          8           0       -2.948928    0.766583    0.760211
     15          1           0       -0.745422    2.937273    4.091766
     16          1           0       -0.738070    1.886948    1.439171
     17          1           0       -2.836770    2.087450    3.685981
     18          1           0       -1.913779    0.692442    3.356529
     19          7           0       -1.123812    3.976831    0.246153
     20          6           0       -1.403282    5.197669   -0.484841
     21          6           0       -2.688540    5.122223   -1.281723
     22          8           0       -3.464929    6.078814   -1.353517
     23          6           0       -0.183510    5.562208   -1.335938
     24          6           0        1.207401    5.600978   -0.706364
     25          6           0        1.440679    6.627686    0.404109
     26          6           0        2.835599    6.679126    0.993391
     27          7           0        3.008089    7.939437    1.736939
     28          1           0       -0.283389    3.451443    0.052874
     29          1           0       -1.544768    5.922251    0.317133
     30          1           0       -0.427201    6.531286   -1.757841
     31          1           0       -0.175377    4.811106   -2.127253
     32          1           0        1.793991    5.839722   -1.583070
     33          1           0        1.693735    4.658875   -0.465283
     34          1           0        0.626944    6.756893    1.118281
     35          1           0        1.314817    7.577260   -0.121408
     36          1           0        3.508201    6.547680    0.140380
     37          1           0        2.947697    5.789718    1.618361
     38          1           0        3.982602    8.090717    1.968325
     39          1           0        2.693052    8.698711    1.157582
     40          1           0        2.385440    8.095297    2.515731
     41          7           0       -3.036513    3.946425   -1.815121
     42          6           0       -4.221085    3.776300   -2.629275
     43          6           0       -5.433328    3.387812   -1.799851
     44          8           0       -6.562436    3.708169   -2.153950
     45          6           0       -3.973379    2.880474   -3.841850
     46          6           0       -3.570676    1.436575   -3.578250
     47          8           0       -3.226815    0.727697   -4.548741
     48          8           0       -3.560940    1.000917   -2.401344
     49          1           0       -2.290658    3.302557   -1.638104
     50          1           0       -4.553580    4.697831   -3.117156
     51          1           0       -3.259649    3.386317   -4.480452
     52          1           0       -4.865786    2.822227   -4.475110
     53          7           0       -5.198149    2.690983   -0.685122
     54          6           0       -6.309792    2.240553    0.132352
     55          6           0       -6.864628    0.889214   -0.320463
     56          8           0       -8.057091    0.614355   -0.264923
     57          1           0       -4.255253    2.532591   -0.353222
     58          1           0       -7.178307    2.875035   -0.007699
     59          1           0       -5.996143    2.200818    1.171123
     60          7           0       -5.893157    0.021897   -0.625596
     61          6           0       -6.153058   -1.356382   -0.983083
     62          6           0       -5.861228   -2.323281    0.159083
     63          8           0       -6.049696   -3.524492   -0.046272
     64          6           0       -5.499601   -1.766739   -2.300467
     65          6           0       -4.041107   -2.180283   -2.213428
     66          7           0       -3.453236   -2.583706   -3.349015
     67          8           0       -3.393506   -2.088226   -1.171969
     68          1           0       -4.948017    0.323248   -0.791723
     69          1           0       -7.215352   -1.497977   -1.200300
     70          1           0       -5.506346   -0.975524   -3.052554
     71          1           0       -5.961088   -2.697724   -2.631673
     72          1           0       -3.989694   -2.450734   -4.194492
     73          1           0       -2.468244   -2.758545   -3.422649
     74          7           0       -5.670518   -1.877363    1.402862
     75          6           0       -5.801651   -2.614542    2.647158
     76          6           0       -4.479382   -3.039487    3.253150
     77          8           0       -4.387427   -3.411557    4.416038
     78          1           0       -5.518804   -0.875161    1.460081
     79          1           0       -6.387115   -3.522543    2.492024
     80          1           0       -6.331387   -2.025766    3.395105
     81          7           0       -3.463530   -3.054780    2.386426
     82          6           0       -2.108006   -3.537730    2.560528
     83          6           0       -0.969995   -2.692785    2.003752
     84          8           0       -1.195318   -1.799287    1.182661
     85          6           0       -1.899141   -4.962027    2.061473
     86          6           0       -1.974770   -5.333266    0.604434
     87          6           0       -3.204550   -5.466178   -0.063530
     88          6           0       -0.781325   -5.306707   -0.122258
     89          6           0       -3.182449   -5.781047   -1.433556
     90          6           0       -0.764685   -5.527796   -1.505531
     91          6           0       -1.972477   -5.855594   -2.158131
     92          8           0       -1.990918   -6.136766   -3.491811
     93          1           0       -3.695876   -2.837063    1.419154
     94          1           0       -1.977019   -3.697826    3.622701
     95          1           0       -2.599493   -5.556817    2.646136
     96          1           0       -0.945795   -5.304025    2.470702
     97          1           0       -4.124338   -5.279127    0.462209
     98          1           0        0.178063   -5.222620    0.371912
     99          1           0       -4.125411   -5.986746   -1.912212
    100          1           0        0.178472   -5.578010   -2.008255
    101          1           0       -1.119830   -6.143501   -3.906131
    102          7           0        0.183556   -2.860417    2.658978
    103          6           0        1.368369   -2.082093    2.381256
    104          6           0        2.185325   -2.910629    1.402833
    105          8           0        2.481810   -4.080090    1.667703
    106          6           0        2.198238   -1.800579    3.631963
    107          6           0        1.447725   -1.057343    4.741572
    108          6           0        3.587572   -1.223771    3.375753
    109          6           0        2.204099   -0.871607    6.054127
    110          1           0        0.207157   -3.584733    3.356838
    111          1           0        1.108595   -1.122349    1.922553
    112          1           0        2.375993   -2.782899    4.077890
    113          1           0        0.522046   -1.566213    5.000742
    114          1           0        1.134849   -0.109854    4.301033
    115          1           0        4.244718   -1.942607    2.885005
    116          1           0        3.561951   -0.258437    2.867646
    117          1           0        4.154184   -1.194936    4.297446
    118          1           0        2.734238   -1.785816    6.293445
    119          1           0        2.901924   -0.040451    5.913339
    120          1           0        1.470186   -0.564453    6.802410
    121          7           0        2.671238   -2.322892    0.313129
    122          6           0        3.591642   -2.934854   -0.624132
    123          6           0        5.020590   -2.634857   -0.191570
    124          8           0        5.351392   -1.640718    0.444321
    125          6           0        3.420418   -2.576349   -2.099481
    126          8           0        3.720682   -1.214220   -2.356087
    127          1           0        2.467306   -1.347197    0.133043
    128          1           0        3.444730   -4.014651   -0.598550
    129          1           0        2.352377   -2.632440   -2.297830
    130          1           0        4.097162   -3.121398   -2.757005
    131          1           0        3.142853   -0.965894   -3.085023
    132          7           0        5.942345   -3.476968   -0.652565
    133          6           0        7.348240   -3.095852   -0.700616
    134          6           0        7.707428   -1.789757   -1.400829
    135          8           0        8.585693   -1.093620   -0.896008
    136          6           0        8.205691   -4.221006   -1.281827
    137          1           0        5.607034   -4.234115   -1.224312
    138          1           0        7.594042   -2.985182    0.351398
    139          1           0        7.959144   -5.145600   -0.765649
    140          1           0        8.045902   -4.349674   -2.353280
    141          1           0        9.274048   -4.050155   -1.131746
    142          7           0        7.079863   -1.368396   -2.499746
    143          6           0        7.247942   -0.044319   -3.069367
    144          6           0        6.701759    1.062896   -2.184857
    145          8           0        7.342881    2.102272   -2.141718
    146          6           0        6.645600   -0.111738   -4.468381
    147          1           0        6.237693   -1.849339   -2.786878
    148          1           0        8.327959    0.091123   -3.189860
    149          1           0        5.608313   -0.338369   -4.218433
    150          1           0        6.774341    0.787726   -5.076157
    151          1           0        7.134485   -0.982649   -4.909521
    152          7           0        5.509517    0.930219   -1.575797
    153          6           0        5.002499    1.823136   -0.556223
    154          6           0        5.911366    1.914183    0.664790
    155          8           0        6.260070    2.987818    1.131389
    156          6           0        3.585937    1.428177   -0.141300
    157          6           0        2.506878    1.745528   -1.171407
    158          6           0        1.121545    1.279267   -0.768352
    159          8           0        0.111547    1.891336   -1.205017
    160          8           0        0.924971    0.231258   -0.112276
    161          1           0        4.990576    0.105255   -1.827262
    162          1           0        4.991008    2.801723   -1.014083
    163          1           0        3.330273    1.910444    0.796492
    164          1           0        3.602576    0.344243   -0.031255
    165          1           0        2.751864    1.299369   -2.143581
    166          1           0        2.545668    2.813339   -1.350501
    167          7           0        6.521203    0.849857    1.189964
    168          6           0        7.517414    0.943780    2.244355
    169          1           0        8.503747    0.732480    1.831282
    170          1           0        7.507658    1.949359    2.665310
    171          1           0        7.289376    0.219846    3.026008
    172          1           0        6.323359   -0.048666    0.776062
    173         20           0       -1.480336   -0.293472   -0.963309
    174          8           0       -0.375570   -2.549622   -1.892921
    175          1           0       -0.551313   -3.423477   -1.537405
    176          1           0       -0.264509   -2.686661   -2.833339
 ---------------------------------------------------------------------

 SCF Done:  E(RB3LYP) =  -5333.59370441     A.U. after   19 cycles

 The electronic state is 1-A.
 Alpha  occ. eigenvalues -- -145.38267 -19.20735 -19.20049 -19.18292 -19.14608
 Alpha  occ. eigenvalues --  -19.12510 -19.12368 -19.11375 -19.11082 -19.10594
 Alpha  occ. eigenvalues --  -19.10012 -19.09052 -19.08967 -19.07742 -19.06873
 Alpha  occ. eigenvalues --  -19.06747 -19.05421 -19.05341 -19.04424 -19.03515
 Alpha  occ. eigenvalues --  -19.03091 -19.02873 -19.02698 -19.00922 -15.43962
 Alpha  occ. eigenvalues --  -14.58757 -14.40108 -14.37790 -14.37721 -14.37616
 Alpha  occ. eigenvalues --  -14.37115 -14.35386 -14.34827 -14.33027 -14.32941
 Alpha  occ. eigenvalues --  -14.32342 -14.31366 -14.30577 -14.28852 -14.28043
 Alpha  occ. eigenvalues --  -12.57581 -12.57545 -12.57530 -10.34127 -10.32686
 Alpha  occ. eigenvalues --  -10.30827 -10.30625 -10.30441 -10.30244 -10.29949
 Alpha  occ. eigenvalues --  -10.28941 -10.28777 -10.28054 -10.27857 -10.27174
 Alpha  occ. eigenvalues --  -10.26762 -10.26586 -10.26122 -10.25981 -10.25624
 Alpha  occ. eigenvalues --  -10.24422 -10.24421 -10.24357 -10.24201 -10.23403
 Alpha  occ. eigenvalues --  -10.23394 -10.23034 -10.22907 -10.22497 -10.22370
 Alpha  occ. eigenvalues --  -10.22183 -10.21726 -10.21687 -10.21534 -10.21415
 Alpha  occ. eigenvalues --  -10.21162 -10.20973 -10.20941 -10.20673 -10.20518
 Alpha  occ. eigenvalues --  -10.20078 -10.19981 -10.19857 -10.19793 -10.19756
 Alpha  occ. eigenvalues --  -10.19606 -10.19517 -10.19441 -10.19384 -10.19105
 Alpha  occ. eigenvalues --  -10.18973 -10.18352 -10.17940 -10.17662 -10.16371
 Alpha  occ. eigenvalues --  -10.14794 -10.13917  -1.80747  -1.13909  -1.09230
 Alpha  occ. eigenvalues --   -1.08380  -1.08326  -1.08087  -1.07818  -1.06712
 Alpha  occ. eigenvalues --   -1.05927  -1.05245  -1.05039  -1.04612  -1.04402
 Alpha  occ. eigenvalues --   -1.04037  -1.03131  -1.02373  -1.00880  -1.00830
 Alpha  occ. eigenvalues --   -0.99869  -0.98536  -0.98425  -0.97861  -0.96955
 Alpha  occ. eigenvalues --   -0.96608  -0.96291  -0.95476  -0.94837  -0.94461
 Alpha  occ. eigenvalues --   -0.94242  -0.93782  -0.93545  -0.91984  -0.90824
 Alpha  occ. eigenvalues --   -0.90449  -0.90326  -0.88235  -0.88186  -0.88183
 Alpha  occ. eigenvalues --   -0.87864  -0.87574  -0.86510  -0.86256  -0.86000
 Alpha  occ. eigenvalues --   -0.84206  -0.83498  -0.82514  -0.81041  -0.80579
 Alpha  occ. eigenvalues --   -0.79743  -0.79447  -0.78494  -0.78403  -0.76160
 Alpha  occ. eigenvalues --   -0.76071  -0.75728  -0.75233  -0.74274  -0.74026
 Alpha  occ. eigenvalues --   -0.73491  -0.73157  -0.72376  -0.71677  -0.71103
 Alpha  occ. eigenvalues --   -0.70552  -0.70054  -0.68715  -0.68552  -0.68277
 Alpha  occ. eigenvalues --   -0.67252  -0.66655  -0.65895  -0.65242  -0.65116
 Alpha  occ. eigenvalues --   -0.64186  -0.63822  -0.63393  -0.63120  -0.62619
 Alpha  occ. eigenvalues --   -0.62027  -0.61822  -0.61728  -0.61609  -0.61018
 Alpha  occ. eigenvalues --   -0.60479  -0.59975  -0.59855  -0.59409  -0.59332
 Alpha  occ. eigenvalues --   -0.58443  -0.57845  -0.57613  -0.57100  -0.56659
 Alpha  occ. eigenvalues --   -0.56172  -0.56027  -0.55673  -0.55171  -0.54703
 Alpha  occ. eigenvalues --   -0.54567  -0.54526  -0.54146  -0.53868  -0.53473
 Alpha  occ. eigenvalues --   -0.53259  -0.53088  -0.52896  -0.52445  -0.52071
 Alpha  occ. eigenvalues --   -0.51930  -0.51606  -0.51448  -0.51124  -0.50642
 Alpha  occ. eigenvalues --   -0.50413  -0.50301  -0.49792  -0.49619  -0.49380
 Alpha  occ. eigenvalues --   -0.49289  -0.49082  -0.48684  -0.48194  -0.48027
 Alpha  occ. eigenvalues --   -0.47683  -0.47576  -0.47320  -0.47256  -0.47112
 Alpha  occ. eigenvalues --   -0.46978  -0.46812  -0.46685  -0.46590  -0.46200
 Alpha  occ. eigenvalues --   -0.46090  -0.45988  -0.45858  -0.45482  -0.45418
 Alpha  occ. eigenvalues --   -0.45252  -0.44873  -0.44697  -0.44683  -0.44480
 Alpha  occ. eigenvalues --   -0.44360  -0.44061  -0.43767  -0.43633  -0.43442
 Alpha  occ. eigenvalues --   -0.43383  -0.43278  -0.43242  -0.43075  -0.42968
 Alpha  occ. eigenvalues --   -0.42809  -0.42690  -0.42605  -0.42593  -0.42198
 Alpha  occ. eigenvalues --   -0.42085  -0.41851  -0.41661  -0.41599  -0.41482
 Alpha  occ. eigenvalues --   -0.41051  -0.40966  -0.40838  -0.40638  -0.40540
 Alpha  occ. eigenvalues --   -0.40448  -0.40410  -0.40238  -0.40196  -0.39787
 Alpha  occ. eigenvalues --   -0.39776  -0.39646  -0.39572  -0.39341  -0.39072
 Alpha  occ. eigenvalues --   -0.38946  -0.38777  -0.38545  -0.38305  -0.38266
 Alpha  occ. eigenvalues --   -0.38060  -0.38031  -0.37874  -0.37699  -0.37627
 Alpha  occ. eigenvalues --   -0.37493  -0.37385  -0.37061  -0.36979  -0.36944
 Alpha  occ. eigenvalues --   -0.36842  -0.36629  -0.36346  -0.36243  -0.36013
 Alpha  occ. eigenvalues --   -0.35833  -0.35712  -0.35628  -0.35478  -0.35193
 Alpha  occ. eigenvalues --   -0.35139  -0.34943  -0.34784  -0.34612  -0.34370
 Alpha  occ. eigenvalues --   -0.34212  -0.34192  -0.34098  -0.34073  -0.33702
 Alpha  occ. eigenvalues --   -0.33378  -0.33045  -0.32753  -0.32440  -0.32198
 Alpha  occ. eigenvalues --   -0.31951  -0.31651  -0.30863  -0.30514  -0.29959
 Alpha  occ. eigenvalues --   -0.29504  -0.29361  -0.29197  -0.29174  -0.28636
 Alpha  occ. eigenvalues --   -0.28282  -0.28193  -0.28143  -0.27702  -0.27376
 Alpha  occ. eigenvalues --   -0.27200  -0.26733  -0.26604  -0.26456  -0.25979
 Alpha  occ. eigenvalues --   -0.24922  -0.24774  -0.24667  -0.24358  -0.24288
 Alpha  occ. eigenvalues --   -0.23351  -0.23161  -0.23076  -0.22996  -0.22858
 Alpha  occ. eigenvalues --   -0.22733  -0.21752  -0.21370  -0.21273  -0.21038
 Alpha  occ. eigenvalues --   -0.20832  -0.20057  -0.19931  -0.19299  -0.18932
 Alpha  occ. eigenvalues --   -0.18284  -0.17522  -0.16603
 Alpha virt. eigenvalues --   -0.10492  -0.05005  -0.04854  -0.04253  -0.03519
 Alpha virt. eigenvalues --   -0.02975  -0.01830  -0.01407  -0.01347  -0.00424
 Alpha virt. eigenvalues --   -0.00370  -0.00196   0.00040   0.00233   0.01384

 Mulliken charges:
               1
     1  C    0.033003
     2  C    0.048003
     3  O   -0.302741
     4  H    0.042879
     5  H    0.011910
     6  H    0.025123
     7  N   -0.109674
     8  C    0.099663
     9  C    0.050072
    10  O   -0.263146
    11  C    0.077935
    12  C    0.171204
    13  O   -0.356690
    14  O   -0.505050
    15  H    0.119369
    16  H    0.009039
    17  H   -0.009497
    18  H    0.014081
    19  N   -0.166387
    20  C    0.129793
    21  C    0.039866
    22  O   -0.279508
    23  C    0.047101
    24  C    0.034436
    25  C   -0.075203
    26  C    0.050998
    27  N    0.087435
    28  H    0.162774
    29  H   -0.019666
    30  H    0.006388
    31  H    0.017806
    32  H   -0.004262
    33  H    0.052387
    34  H    0.031360
    35  H   -0.011151
    36  H    0.086494
    37  H    0.098064
    38  H    0.202757
    39  H    0.170619
    40  H    0.189182
    41  N   -0.127269
    42  C    0.185911
    43  C    0.056700
    44  O   -0.282911
    45  C    0.045666
    46  C    0.089113
    47  O   -0.390345
    48  O   -0.449995
    49  H    0.119377
    50  H    0.001947
    51  H   -0.008028
    52  H    0.019775
    53  N   -0.173981
    54  C    0.234813
    55  C    0.024656
    56  O   -0.277871
    57  H    0.147261
    58  H    0.006896
    59  H    0.042176
    60  N   -0.173307
    61  C    0.161629
    62  C    0.046934
    63  O   -0.325622
    64  C    0.059646
    65  C    0.050380
    66  N   -0.009913
    67  O   -0.365065
    68  H    0.157100
    69  H    0.028903
    70  H    0.069339
    71  H    0.025443
    72  H    0.132171
    73  H    0.073132
    74  N   -0.173863
    75  C    0.232110
    76  C    0.022467
    77  O   -0.285374
    78  H    0.156226
    79  H    0.035910
    80  H    0.034443
    81  N   -0.129730
    82  C    0.130331
    83  C    0.141253
    84  O   -0.329637
    85  C    0.093882
    86  C   -0.009062
    87  C    0.021708
    88  C   -0.043205
    89  C   -0.013350
    90  C   -0.153741
    91  C    0.203980
    92  O   -0.198063
    93  H    0.164252
    94  H   -0.001859
    95  H    0.011496
    96  H   -0.020394
    97  H    0.003655
    98  H   -0.008184
    99  H   -0.005268
   100  H   -0.055353
   101  H    0.171924
   102  N   -0.122141
   103  C    0.170787
   104  C    0.064571
   105  O   -0.309206
   106  C   -0.117077
   107  C    0.010434
   108  C    0.075074
   109  C    0.043181
   110  H    0.135422
   111  H    0.030477
   112  H   -0.022572
   113  H   -0.008061
   114  H   -0.017869
   115  H    0.015066
   116  H    0.024133
   117  H   -0.008843
   118  H    0.014947
   119  H    0.010598
   120  H    0.014061
   121  N   -0.109245
   122  C    0.079064
   123  C    0.075532
   124  O   -0.263950
   125  C    0.235469
   126  O   -0.319557
   127  H    0.144536
   128  H    0.021032
   129  H   -0.006086
   130  H    0.001505
   131  H    0.200024
   132  N   -0.107248
   133  C    0.105795
   134  C    0.056752
   135  O   -0.264285
   136  C    0.032694
   137  H    0.110224
   138  H    0.025051
   139  H    0.025627
   140  H    0.008803
   141  H    0.048405
   142  N   -0.145671
   143  C    0.091178
   144  C    0.074973
   145  O   -0.258885
   146  C    0.049997
   147  H    0.093203
   148  H    0.025297
   149  H   -0.033937
   150  H    0.047377
   151  H    0.021644
   152  N   -0.167564
   153  C    0.191659
   154  C    0.035124
   155  O   -0.303256
   156  C   -0.021326
   157  C    0.116430
   158  C    0.134732
   159  O   -0.425766
   160  O   -0.409910
   161  H    0.116391
   162  H   -0.029261
   163  H    0.023134
   164  H   -0.005115
   165  H   -0.026214
   166  H   -0.028843
   167  N   -0.164617
   168  C    0.134117
   169  H    0.031088
   170  H    0.028232
   171  H    0.003002
   172  H    0.125954
   173  Ca   1.292083
   174  O   -0.279522
   175  H    0.188123
   176  H    0.175045
 Sum of Mulliken charges =  -0.00000

 Dipole moment (field-independent basis, Debye):
    X=             33.4010    Y=              7.4274    Z=              1.9915  Tot=             34.2748
 Quadrupole moment (field-independent basis, Debye-Ang):
   XX=           -768.7101   YY=           -358.6686   ZZ=           -529.6970
   XY=             74.8310   XZ=             -6.5717   YZ=            115.2815

 ESP charges:
               1
     1  C   -0.419986
     2  C    0.825334
     3  O   -0.666023
     4  H    0.122006
     5  H    0.093533
     6  H    0.108245
     7  N   -0.763610
     8  C    0.255353
     9  C    0.603083
    10  O   -0.530506
    11  C   -0.270615
    12  C    0.741080
    13  O   -0.623888
    14  O   -0.929766
    15  H    0.370574
    16  H    0.098879
    17  H    0.062460
    18  H    0.088498
    19  N   -0.444061
    20  C   -0.112705
    21  C    0.519111
    22  O   -0.550435
    23  C   -0.109346
    24  C    0.004714
    25  C   -0.099875
    26  C    0.129667
    27  N   -0.365612
    28  H    0.313976
    29  H    0.103618
    30  H    0.073003
    31  H    0.056668
    32  H    0.015551
    33  H    0.096258
    34  H    0.069095
    35  H    0.020990
    36  H    0.069753
    37  H    0.042880
    38  H    0.340203
    39  H    0.300938
    40  H    0.335849
    41  N   -0.393985
    42  C    0.158454
    43  C    0.398583
    44  O   -0.553065
    45  C   -0.305875
    46  C    0.798557
    47  O   -0.726062
    48  O   -0.841183
    49  H    0.294780
    50  H    0.069794
    51  H    0.065525
    52  H    0.102934
    53  N    0.077070
    54  C   -0.362590
    55  C    0.738150
    56  O   -0.594624
    57  H    0.045880
    58  H    0.116481
    59  H    0.144963
    60  N   -0.681821
    61  C    0.308343
    62  C    0.318070
    63  O   -0.533402
    64  C   -0.434686
    65  C    0.750433
    66  N   -0.813781
    67  O   -0.559546
    68  H    0.444522
    69  H    0.083213
    70  H    0.171854
    71  H    0.099472
    72  H    0.383214
    73  H    0.345135
    74  N   -0.174264
    75  C   -0.205087
    76  C    0.588020
    77  O   -0.571541
    78  H    0.242072
    79  H    0.117699
    80  H    0.121663
    81  N   -0.308155
    82  C   -0.023933
    83  C    0.815796
    84  O   -0.592149
    85  C   -0.069844
    86  C   -0.084376
    87  C   -0.044019
    88  C   -0.043751
    89  C   -0.246385
    90  C   -0.370842
    91  C    0.401667
    92  O   -0.560680
    93  H    0.216700
    94  H    0.072313
    95  H    0.078245
    96  H    0.025022
    97  H    0.127236
    98  H    0.131785
    99  H    0.170617
   100  H    0.120572
   101  H    0.410562
   102  N   -0.862829
   103  C    0.044061
   104  C    0.713279
   105  O   -0.607788
   106  C    0.396919
   107  C    0.256150
   108  C   -0.325445
   109  C   -0.365927
   110  H    0.394086
   111  H    0.093081
   112  H   -0.090383
   113  H   -0.050264
   114  H   -0.081946
   115  H    0.089743
   116  H   -0.001329
   117  H    0.085377
   118  H    0.077249
   119  H    0.064238
   120  H    0.095887
   121  N   -0.641949
   122  C    0.413260
   123  C    0.247242
   124  O   -0.297735
   125  C   -0.247627
   126  O   -0.231414
   127  H    0.337461
   128  H    0.026757
   129  H    0.080254
   130  H    0.087889
   131  H    0.362148
   132  N   -0.365913
   133  C    0.071297
   134  C    0.558809
   135  O   -0.541037
   136  C   -0.279482
   137  H    0.258730
   138  H    0.097967
   139  H    0.092166
   140  H    0.067150
   141  H    0.111697
   142  N   -0.444942
   143  C    0.178621
   144  C    0.300290
   145  O   -0.493040
   146  C   -0.310514
   147  H    0.258237
   148  H    0.089184
   149  H    0.018239
   150  H    0.131919
   151  H    0.090242
   152  N    0.232101
   153  C   -0.528336
   154  C    0.563610
   155  O   -0.580380
   156  C    0.275022
   157  C   -0.207997
   158  C    0.800634
   159  O   -0.766234
   160  O   -0.779251
   161  H   -0.127360
   162  H    0.153797
   163  H    0.046528
   164  H   -0.188622
   165  H    0.023153
   166  H    0.061021
   167  N   -0.051235
   168  C   -0.213639
   169  H    0.102933
   170  H    0.099989
   171  H    0.057120
   172  H    0.082097
   173  Ca   1.571590
   174  O   -0.704832
   175  H    0.323087
   176  H    0.370497
 Sum of ESP charges =   0.00000

 Normal termination of Gaussian 16 at Sun Sep 15 00:00:18 2019.
