 Gaussian 09, Revision D.01,
 Gaussian 09:  ES64L-G09RevD.01 24-Apr-2013

 ----------------------------------------------------------------------
 #maxdisk=50GB #B3LYP/SVP Density=Current scf=(tight) #IOP(5/87=12)Pop=
 (MK,readradii) iop(6/33=2) iop(6/42=6)
 ----------------------------------------------------------------------

 ------------
 SOL molecule
 ------------
 Symbolic Z-matrix:
 Charge =  0 Multiplicity = 1

                         Standard orientation:
 ---------------------------------------------------------------------
 Center     Atomic      Atomic             Coordinates (Angstroms)
 Number     Number       Type             X           Y           Z
 ---------------------------------------------------------------------
      1          6           0        2.349835    1.994762    5.929171
      2          6           0        1.807713    1.887225    4.503920
      3          8           0        2.588675    1.719905    3.569360
      4          1           0        3.359781    1.585758    5.965256
      5          1           0        2.372008    3.041649    6.232417
      6          1           0        1.707005    1.432537    6.606352
      7          7           0        0.513132    2.044276    4.233745
      8          6           0       -0.024733    2.046128    2.891658
      9          6           0        0.330042    3.372161    2.222352
     10          8           0        0.060844    4.408694    2.817106
     11          6           0       -1.519951    1.792965    3.034239
     12          6           0       -2.233595    1.551323    1.714799
     13          8           0       -1.610479    1.874777    0.676675
     14          8           0       -3.365958    1.033347    1.707348
     15          1           0       -0.122401    2.215691    5.007576
     16          1           0        0.357391    1.214017    2.289185
     17          1           0       -2.028337    2.605710    3.556819
     18          1           0       -1.610615    0.839813    3.567513
     19          7           0        0.822001    3.361833    0.984261
     20          6           0        1.375063    4.599566    0.449809
     21          6           0        0.338593    5.423220   -0.284715
     22          8           0        0.447498    6.634926   -0.466396
     23          6           0        2.597481    4.233995   -0.390876
     24          6           0        3.646421    5.334534   -0.542991
     25          6           0        4.888947    4.799107   -1.247865
     26          6           0        5.907922    5.925830   -1.404029
     27          7           0        7.056175    5.653210   -2.280209
     28          1           0        0.871202    2.473822    0.508429
     29          1           0        1.765131    5.189233    1.277540
     30          1           0        2.340202    3.891689   -1.392043
     31          1           0        3.256549    3.455572   -0.028404
     32          1           0        3.909255    5.625746    0.481808
     33          1           0        3.157194    6.141961   -1.085777
     34          1           0        4.556204    4.464941   -2.230624
     35          1           0        5.344162    4.007837   -0.645228
     36          1           0        6.324229    6.155813   -0.429197
     37          1           0        5.280990    6.742021   -1.760104
     38          1           0        6.635070    5.385711   -3.165768
     39          1           0        7.711244    6.408796   -2.340816
     40          1           0        7.638675    4.884381   -1.980549
     41          7           0       -0.726569    4.733875   -0.712305
     42          6           0       -1.880498    5.384230   -1.303054
     43          6           0       -3.193487    5.328796   -0.538865
     44          8           0       -4.103646    6.118046   -0.751218
     45          6           0       -2.073497    4.779114   -2.701334
     46          6           0       -2.199856    3.269480   -2.736526
     47          8           0       -2.941639    2.613380   -1.983472
     48          8           0       -1.419989    2.626125   -3.481376
     49          1           0       -0.622386    3.732043   -0.651646
     50          1           0       -1.732086    6.430212   -1.564579
     51          1           0       -1.365699    5.255315   -3.378353
     52          1           0       -3.041603    5.143976   -3.055941
     53          7           0       -3.273952    4.338130    0.367891
     54          6           0       -4.470433    4.096947    1.143175
     55          6           0       -5.607771    3.269086    0.551560
     56          8           0       -6.723820    3.339602    1.067856
     57          1           0       -2.580389    3.618497    0.460079
     58          1           0       -4.940096    5.028635    1.456821
     59          1           0       -4.144092    3.571134    2.045351
     60          7           0       -5.403643    2.428591   -0.467263
     61          6           0       -6.458746    1.607792   -1.029087
     62          6           0       -6.954346    0.474207   -0.147574
     63          8           0       -7.917777   -0.172336   -0.557310
     64          6           0       -6.112870    1.129953   -2.431171
     65          6           0       -5.037183    0.045747   -2.387643
     66          7           0       -5.088403   -0.893308   -3.339511
     67          8           0       -4.125168   -0.004641   -1.560003
     68          1           0       -4.486535    2.450496   -0.889322
     69          1           0       -7.343362    2.224441   -1.163619
     70          1           0       -5.796106    1.940811   -3.088263
     71          1           0       -7.031987    0.729688   -2.860488
     72          1           0       -5.771240   -0.763693   -4.066651
     73          1           0       -4.371245   -1.597893   -3.423439
     74          7           0       -6.233372    0.088636    0.914279
     75          6           0       -6.576136   -1.065916    1.714543
     76          6           0       -5.512941   -2.151259    1.843175
     77          8           0       -5.727976   -3.164606    2.512493
     78          1           0       -5.411360    0.562683    1.255126
     79          1           0       -7.423693   -1.612652    1.290248
     80          1           0       -6.852438   -0.725328    2.701993
     81          7           0       -4.390478   -2.061530    1.130205
     82          6           0       -3.381929   -3.098139    1.089312
     83          6           0       -1.984587   -2.473433    1.011355
     84          8           0       -1.828126   -1.469727    0.318034
     85          6           0       -3.492022   -4.048611   -0.093431
     86          6           0       -4.882296   -4.517193   -0.441239
     87          6           0       -5.442121   -5.640934    0.188921
     88          6           0       -5.595574   -3.922709   -1.493296
     89          6           0       -6.590042   -6.229328   -0.356395
     90          6           0       -6.773979   -4.493004   -1.992319
     91          6           0       -7.230925   -5.735312   -1.507272
     92          8           0       -8.320302   -6.363301   -2.050400
     93          1           0       -4.238291   -1.203353    0.614093
     94          1           0       -3.383744   -3.691573    2.007044
     95          1           0       -2.953746   -4.916010    0.291248
     96          1           0       -3.185919   -3.600438   -1.041293
     97          1           0       -4.906629   -6.144441    0.971691
     98          1           0       -5.099206   -3.109932   -1.985346
     99          1           0       -6.922232   -7.145857    0.126641
    100          1           0       -7.201150   -3.981617   -2.834286
    101          1           0       -8.703499   -5.808890   -2.741983
    102          7           0       -1.043480   -3.019732    1.775538
    103          6           0        0.359880   -2.652606    1.765525
    104          6           0        1.087498   -3.654456    0.867211
    105          8           0        0.802615   -4.834530    1.074011
    106          6           0        0.857485   -2.761515    3.207200
    107          6           0        0.062273   -1.983071    4.247712
    108          6           0        2.290181   -2.251118    3.313860
    109          6           0        0.366542   -2.326667    5.701350
    110          1           0       -1.370189   -3.631384    2.510209
    111          1           0        0.575131   -1.655997    1.381547
    112          1           0        0.918345   -3.833539    3.430942
    113          1           0       -1.022943   -2.065745    4.137843
    114          1           0        0.212974   -0.921486    4.070159
    115          1           0        2.428754   -1.206519    3.610190
    116          1           0        2.739857   -2.732907    4.180677
    117          1           0        2.814722   -2.466307    2.386849
    118          1           0        1.388007   -2.672833    5.880734
    119          1           0        0.164624   -1.466037    6.340055
    120          1           0       -0.357388   -3.095943    5.985498
    121          7           0        1.967448   -3.213605   -0.028244
    122          6           0        2.883408   -4.104551   -0.714125
    123          6           0        4.368811   -3.932729   -0.420946
    124          8           0        4.749132   -3.057590    0.349242
    125          6           0        2.667761   -4.004277   -2.223808
    126          8           0        2.885597   -2.628897   -2.449590
    127          1           0        2.013092   -2.226597   -0.206938
    128          1           0        2.775495   -5.140172   -0.388941
    129          1           0        1.627833   -4.168266   -2.503195
    130          1           0        3.361210   -4.652514   -2.755801
    131          1           0        2.996568   -2.588263   -3.403338
    132          7           0        5.238064   -4.778821   -0.965029
    133          6           0        6.639037   -4.843347   -0.587523
    134          6           0        7.404559   -3.587675   -0.997723
    135          8           0        8.294909   -3.131073   -0.287517
    136          6           0        7.220504   -6.072837   -1.283549
    137          1           0        4.892349   -5.550465   -1.519599
    138          1           0        6.743101   -4.861757    0.499137
    139          1           0        6.587713   -6.934328   -1.084783
    140          1           0        7.372891   -5.957322   -2.355946
    141          1           0        8.256383   -6.164167   -0.945890
    142          7           0        7.007982   -2.910537   -2.080917
    143          6           0        7.499586   -1.595455   -2.450626
    144          6           0        6.977569   -0.493283   -1.536069
    145          8           0        7.707486    0.436714   -1.220274
    146          6           0        7.140939   -1.250585   -3.888728
    147          1           0        6.254658   -3.291825   -2.626649
    148          1           0        8.584974   -1.591851   -2.359414
    149          1           0        7.659701   -1.911573   -4.593412
    150          1           0        6.059567   -1.293398   -4.065652
    151          1           0        7.490761   -0.231295   -4.035268
    152          7           0        5.727420   -0.522741   -1.068993
    153          6           0        5.208352    0.474815   -0.161276
    154          6           0        5.834553    0.240960    1.200078
    155          8           0        6.212728    1.217483    1.851452
    156          6           0        3.677870    0.483669   -0.137873
    157          6           0        3.009325    0.810322   -1.474826
    158          6           0        1.498748    0.679153   -1.318768
    159          8           0        0.829533    1.686615   -1.606818
    160          8           0        0.908539   -0.371832   -0.981154
    161          1           0        5.256648   -1.399695   -1.280240
    162          1           0        5.606555    1.425160   -0.519017
    163          1           0        3.414922    1.282025    0.549794
    164          1           0        3.425596   -0.490638    0.269169
    165          1           0        3.278055    0.096374   -2.252169
    166          1           0        3.317365    1.770581   -1.891495
    167          7           0        6.014127   -1.019724    1.597354
    168          6           0        6.637056   -1.316074    2.875140
    169          1           0        7.646313   -1.691629    2.707819
    170          1           0        6.683099   -0.408079    3.476730
    171          1           0        6.051248   -2.070397    3.399494
    172          1           0        5.586207   -1.749193    1.034807
    173         20           0       -1.572297    0.440735   -1.569448
    174          8           0       -2.033314   -0.397303   -4.169939
    175          1           0       -1.308908   -0.895639   -4.554382
    176          1           0       -2.482234   -0.004123   -4.923850
 ---------------------------------------------------------------------

 SCF Done:  E(RB3LYP) =  -5333.59172102     A.U. after   20 cycles

 The electronic state is 1-A.
 Alpha  occ. eigenvalues -- -145.36121 -19.18630 -19.18503 -19.15213 -19.15075
 Alpha  occ. eigenvalues --  -19.11950 -19.11138 -19.11018 -19.10241 -19.09721
 Alpha  occ. eigenvalues --  -19.07605 -19.06376 -19.06224 -19.06076 -19.05738
 Alpha  occ. eigenvalues --  -19.05572 -19.05236 -19.05164 -19.04119 -19.03723
 Alpha  occ. eigenvalues --  -19.03472 -19.02820 -19.02670 -19.01777 -15.41836
 Alpha  occ. eigenvalues --  -14.58013 -14.41155 -14.38543 -14.37043 -14.36603
 Alpha  occ. eigenvalues --  -14.36220 -14.35509 -14.32846 -14.31783 -14.31602
 Alpha  occ. eigenvalues --  -14.31268 -14.30816 -14.30755 -14.28383 -14.28352
 Alpha  occ. eigenvalues --  -12.55453 -12.55426 -12.55393 -10.33523 -10.33491
 Alpha  occ. eigenvalues --  -10.30878 -10.29956 -10.28968 -10.28787 -10.28393
 Alpha  occ. eigenvalues --  -10.28373 -10.27643 -10.27203 -10.25967 -10.25926
 Alpha  occ. eigenvalues --  -10.25736 -10.25639 -10.24832 -10.24474 -10.24282
 Alpha  occ. eigenvalues --  -10.24093 -10.23907 -10.23876 -10.23466 -10.22943
 Alpha  occ. eigenvalues --  -10.22860 -10.22687 -10.22182 -10.22120 -10.22115
 Alpha  occ. eigenvalues --  -10.22093 -10.21572 -10.21362 -10.20869 -10.19749
 Alpha  occ. eigenvalues --  -10.19666 -10.19226 -10.19070 -10.18877 -10.18619
 Alpha  occ. eigenvalues --  -10.18601 -10.18486 -10.18438 -10.18145 -10.18124
 Alpha  occ. eigenvalues --  -10.17697 -10.17558 -10.17522 -10.17359 -10.17353
 Alpha  occ. eigenvalues --  -10.17304 -10.17240 -10.17180 -10.16344 -10.16274
 Alpha  occ. eigenvalues --  -10.15188 -10.14066  -1.78622  -1.13202  -1.08884
 Alpha  occ. eigenvalues --   -1.07169  -1.06282  -1.06175  -1.05941  -1.05341
 Alpha  occ. eigenvalues --   -1.04331  -1.03871  -1.03682  -1.03436  -1.03404
 Alpha  occ. eigenvalues --   -1.02925  -1.02072  -1.00151  -0.99078  -0.98930
 Alpha  occ. eigenvalues --   -0.98733  -0.98347  -0.98226  -0.98102  -0.98014
 Alpha  occ. eigenvalues --   -0.97983  -0.96557  -0.95780  -0.94988  -0.93907
 Alpha  occ. eigenvalues --   -0.93033  -0.92175  -0.91408  -0.91290  -0.89435
 Alpha  occ. eigenvalues --   -0.88982  -0.88778  -0.88337  -0.88016  -0.87811
 Alpha  occ. eigenvalues --   -0.87281  -0.87219  -0.86840  -0.85740  -0.84849
 Alpha  occ. eigenvalues --   -0.83539  -0.83328  -0.81436  -0.80527  -0.80107
 Alpha  occ. eigenvalues --   -0.79063  -0.78463  -0.77605  -0.75906  -0.75502
 Alpha  occ. eigenvalues --   -0.74346  -0.74130  -0.73618  -0.72767  -0.72674
 Alpha  occ. eigenvalues --   -0.72334  -0.71971  -0.70750  -0.70696  -0.70301
 Alpha  occ. eigenvalues --   -0.69853  -0.69175  -0.68673  -0.67552  -0.67207
 Alpha  occ. eigenvalues --   -0.66798  -0.66737  -0.65467  -0.64643  -0.63634
 Alpha  occ. eigenvalues --   -0.63109  -0.62617  -0.62543  -0.62015  -0.61749
 Alpha  occ. eigenvalues --   -0.61523  -0.60920  -0.60500  -0.59595  -0.59273
 Alpha  occ. eigenvalues --   -0.59080  -0.58960  -0.58239  -0.57723  -0.57354
 Alpha  occ. eigenvalues --   -0.57190  -0.56825  -0.56649  -0.56172  -0.56042
 Alpha  occ. eigenvalues --   -0.55902  -0.55887  -0.55248  -0.54770  -0.54678
 Alpha  occ. eigenvalues --   -0.54493  -0.54141  -0.53935  -0.53623  -0.53375
 Alpha  occ. eigenvalues --   -0.52785  -0.52625  -0.52053  -0.51994  -0.51054
 Alpha  occ. eigenvalues --   -0.50875  -0.50527  -0.50441  -0.50356  -0.49819
 Alpha  occ. eigenvalues --   -0.49168  -0.48854  -0.48841  -0.48473  -0.48335
 Alpha  occ. eigenvalues --   -0.48078  -0.47754  -0.47542  -0.47466  -0.47257
 Alpha  occ. eigenvalues --   -0.46994  -0.46841  -0.46652  -0.46577  -0.45948
 Alpha  occ. eigenvalues --   -0.45770  -0.45715  -0.45680  -0.45488  -0.45116
 Alpha  occ. eigenvalues --   -0.45099  -0.44786  -0.44602  -0.44541  -0.44341
 Alpha  occ. eigenvalues --   -0.43820  -0.43756  -0.43672  -0.43242  -0.43175
 Alpha  occ. eigenvalues --   -0.43050  -0.42944  -0.42911  -0.42857  -0.42660
 Alpha  occ. eigenvalues --   -0.42606  -0.42537  -0.42087  -0.42042  -0.41964
 Alpha  occ. eigenvalues --   -0.41758  -0.41521  -0.41344  -0.41289  -0.41056
 Alpha  occ. eigenvalues --   -0.40831  -0.40762  -0.40684  -0.40323  -0.40285
 Alpha  occ. eigenvalues --   -0.40098  -0.40000  -0.39859  -0.39683  -0.39637
 Alpha  occ. eigenvalues --   -0.39481  -0.39407  -0.39203  -0.39131  -0.38951
 Alpha  occ. eigenvalues --   -0.38856  -0.38663  -0.38524  -0.38234  -0.38153
 Alpha  occ. eigenvalues --   -0.38116  -0.38057  -0.37966  -0.37751  -0.37598
 Alpha  occ. eigenvalues --   -0.37420  -0.37368  -0.37094  -0.37027  -0.36927
 Alpha  occ. eigenvalues --   -0.36718  -0.36514  -0.36228  -0.35983  -0.35919
 Alpha  occ. eigenvalues --   -0.35757  -0.35562  -0.35478  -0.35348  -0.35252
 Alpha  occ. eigenvalues --   -0.34989  -0.34843  -0.34777  -0.34498  -0.34101
 Alpha  occ. eigenvalues --   -0.33993  -0.33971  -0.33723  -0.33670  -0.33458
 Alpha  occ. eigenvalues --   -0.33359  -0.33016  -0.32883  -0.32594  -0.32532
 Alpha  occ. eigenvalues --   -0.32412  -0.32002  -0.31776  -0.31708  -0.31531
 Alpha  occ. eigenvalues --   -0.31363  -0.31065  -0.30922  -0.30616  -0.30021
 Alpha  occ. eigenvalues --   -0.29919  -0.29586  -0.28929  -0.27929  -0.27478
 Alpha  occ. eigenvalues --   -0.27294  -0.27186  -0.27101  -0.26605  -0.25720
 Alpha  occ. eigenvalues --   -0.25516  -0.25238  -0.24821  -0.24434  -0.24169
 Alpha  occ. eigenvalues --   -0.23588  -0.23227  -0.23075  -0.22573  -0.22507
 Alpha  occ. eigenvalues --   -0.22479  -0.22313  -0.22301  -0.22067  -0.21891
 Alpha  occ. eigenvalues --   -0.21627  -0.21475  -0.21145  -0.20898  -0.20564
 Alpha  occ. eigenvalues --   -0.20518  -0.20313  -0.20091  -0.19200  -0.18898
 Alpha  occ. eigenvalues --   -0.18557  -0.17864  -0.17210
 Alpha virt. eigenvalues --   -0.09881  -0.03828  -0.03409  -0.03201  -0.02824
 Alpha virt. eigenvalues --   -0.02035  -0.01258   0.00076   0.00114   0.00389
 Alpha virt. eigenvalues --    0.00557   0.00854   0.00974   0.01278   0.02068

 Mulliken charges:
               1
     1  C    0.062769
     2  C    0.022701
     3  O   -0.300498
     4  H    0.029511
     5  H    0.041749
     6  H    0.006549
     7  N   -0.113838
     8  C    0.109314
     9  C    0.090875
    10  O   -0.291551
    11  C    0.058090
    12  C    0.128742
    13  O   -0.473760
    14  O   -0.359460
    15  H    0.114805
    16  H   -0.010215
    17  H    0.019261
    18  H    0.006249
    19  N   -0.153722
    20  C    0.179433
    21  C    0.070473
    22  O   -0.292678
    23  C    0.018882
    24  C   -0.032302
    25  C   -0.059548
    26  C    0.014920
    27  N    0.091568
    28  H    0.157363
    29  H    0.008024
    30  H    0.022205
    31  H    0.002704
    32  H    0.018350
    33  H    0.027358
    34  H    0.019706
    35  H    0.071560
    36  H    0.069481
    37  H    0.078020
    38  H    0.194484
    39  H    0.188631
    40  H    0.195616
    41  N   -0.136314
    42  C    0.112305
    43  C    0.087181
    44  O   -0.274785
    45  C    0.119775
    46  C    0.064480
    47  O   -0.424721
    48  O   -0.405168
    49  H    0.173216
    50  H    0.006928
    51  H   -0.018672
    52  H   -0.004354
    53  N   -0.169117
    54  C    0.223111
    55  C    0.014370
    56  O   -0.315394
    57  H    0.140109
    58  H    0.015837
    59  H    0.022015
    60  N   -0.142223
    61  C    0.163336
    62  C    0.071869
    63  O   -0.304467
    64  C    0.059401
    65  C    0.079443
    66  N   -0.036362
    67  O   -0.348329
    68  H    0.146706
    69  H    0.014125
    70  H    0.053105
    71  H    0.015627
    72  H    0.118281
    73  H    0.121525
    74  N   -0.174177
    75  C    0.228131
    76  C    0.016839
    77  O   -0.312371
    78  H    0.159014
    79  H    0.049549
    80  H    0.026179
    81  N   -0.131496
    82  C    0.106876
    83  C    0.118071
    84  O   -0.347910
    85  C    0.191024
    86  C   -0.041610
    87  C    0.036615
    88  C    0.025830
    89  C   -0.044074
    90  C   -0.036929
    91  C    0.200330
    92  O   -0.201831
    93  H    0.151313
    94  H   -0.011827
    95  H   -0.007076
    96  H   -0.032904
    97  H   -0.038090
    98  H   -0.100810
    99  H   -0.024985
   100  H   -0.057510
   101  H    0.176110
   102  N   -0.094673
   103  C    0.151324
   104  C    0.052353
   105  O   -0.291610
   106  C   -0.102348
   107  C    0.006443
   108  C    0.032843
   109  C    0.035499
   110  H    0.138691
   111  H    0.020883
   112  H   -0.007691
   113  H   -0.011874
   114  H    0.011806
   115  H    0.029920
   116  H   -0.006828
   117  H    0.006307
   118  H    0.008697
   119  H    0.007252
   120  H    0.007882
   121  N   -0.109984
   122  C    0.106234
   123  C    0.092657
   124  O   -0.271100
   125  C    0.213150
   126  O   -0.283394
   127  H    0.162536
   128  H    0.031597
   129  H    0.018866
   130  H   -0.020322
   131  H    0.161304
   132  N   -0.141133
   133  C    0.087984
   134  C    0.048114
   135  O   -0.245767
   136  C    0.036430
   137  H    0.122261
   138  H    0.039048
   139  H    0.035710
   140  H    0.011089
   141  H    0.046277
   142  N   -0.134757
   143  C    0.117341
   144  C    0.036909
   145  O   -0.288644
   146  C    0.043755
   147  H    0.092764
   148  H    0.019503
   149  H    0.026811
   150  H   -0.000078
   151  H    0.020860
   152  N   -0.162217
   153  C    0.152548
   154  C    0.064259
   155  O   -0.295397
   156  C    0.008756
   157  C    0.147532
   158  C    0.098070
   159  O   -0.390843
   160  O   -0.422716
   161  H    0.107530
   162  H   -0.040944
   163  H    0.044082
   164  H   -0.007319
   165  H   -0.035810
   166  H   -0.039811
   167  N   -0.169007
   168  C    0.135264
   169  H    0.020148
   170  H    0.037853
   171  H    0.006271
   172  H    0.127650
   173  Ca   1.261356
   174  O   -0.275146
   175  H    0.173219
   176  H    0.186833
 Sum of Mulliken charges =   0.00000

 Dipole moment (field-independent basis, Debye):
    X=             35.0319    Y=             -6.1265    Z=            -22.8468  Tot=             42.2698
 Quadrupole moment (field-independent basis, Debye-Ang):
   XX=           -542.1982   YY=           -523.0614   ZZ=           -468.1722
   XY=            129.3452   XZ=            -53.2559   YZ=             -9.0496

 ESP charges:
               1
     1  C   -0.423593
     2  C    0.873738
     3  O   -0.644946
     4  H    0.122891
     5  H    0.118792
     6  H    0.080205
     7  N   -0.844643
     8  C    0.152473
     9  C    0.835032
    10  O   -0.591520
    11  C   -0.427362
    12  C    1.190052
    13  O   -0.952422
    14  O   -0.855858
    15  H    0.398680
    16  H    0.042235
    17  H    0.119771
    18  H    0.066536
    19  N   -0.502444
    20  C   -0.619409
    21  C    0.770636
    22  O   -0.596415
    23  C    0.450984
    24  C   -0.366739
    25  C    0.129441
    26  C    0.050354
    27  N   -0.444688
    28  H    0.328121
    29  H    0.234080
    30  H   -0.021940
    31  H    0.042632
    32  H    0.075837
    33  H    0.092278
    34  H    0.012551
    35  H    0.018219
    36  H    0.083521
    37  H    0.070408
    38  H    0.334187
    39  H    0.354242
    40  H    0.357304
    41  N   -0.486905
    42  C    0.134605
    43  C    0.437032
    44  O   -0.538785
    45  C   -0.325325
    46  C    0.768882
    47  O   -0.701726
    48  O   -0.758409
    49  H    0.348598
    50  H    0.085189
    51  H    0.093416
    52  H    0.082830
    53  N   -0.173422
    54  C   -0.226411
    55  C    0.625817
    56  O   -0.614843
    57  H    0.110918
    58  H    0.126690
    59  H    0.088141
    60  N   -0.405001
    61  C    0.160784
    62  C    0.371473
    63  O   -0.545095
    64  C   -0.342681
    65  C    0.725519
    66  N   -0.636978
    67  O   -0.727007
    68  H    0.259944
    69  H    0.083207
    70  H    0.129761
    71  H    0.098425
    72  H    0.309902
    73  H    0.307913
    74  N   -0.082786
    75  C   -0.254239
    76  C    0.745567
    77  O   -0.613001
    78  H    0.252668
    79  H    0.152198
    80  H    0.076838
    81  N   -0.890805
    82  C    0.786412
    83  C    0.440749
    84  O   -0.645379
    85  C   -0.381499
    86  C    0.102594
    87  C   -0.160523
    88  C   -0.168214
    89  C   -0.155132
    90  C   -0.229954
    91  C    0.263037
    92  O   -0.524542
    93  H    0.474683
    94  H   -0.058747
    95  H    0.075285
    96  H    0.076670
    97  H    0.131978
    98  H    0.122392
    99  H    0.129505
   100  H    0.110351
   101  H    0.409825
   102  N   -0.734697
   103  C    0.438768
   104  C    0.618619
   105  O   -0.585386
   106  C   -0.286286
   107  C    0.413078
   108  C   -0.000985
   109  C   -0.426309
   110  H    0.331897
   111  H    0.031256
   112  H    0.060575
   113  H   -0.053959
   114  H   -0.031882
   115  H    0.013334
   116  H    0.035815
   117  H   -0.090598
   118  H    0.101742
   119  H    0.097405
   120  H    0.081443
   121  N   -0.405688
   122  C    0.058703
   123  C    0.560882
   124  O   -0.418668
   125  C   -0.047365
   126  O   -0.460045
   127  H    0.302297
   128  H    0.055446
   129  H    0.090205
   130  H    0.027879
   131  H    0.383094
   132  N   -0.464491
   133  C    0.130887
   134  C    0.551013
   135  O   -0.527716
   136  C   -0.358911
   137  H    0.300151
   138  H    0.072459
   139  H    0.112163
   140  H    0.094773
   141  H    0.124966
   142  N   -0.478721
   143  C    0.253288
   144  C    0.353153
   145  O   -0.542455
   146  C   -0.336243
   147  H    0.244656
   148  H    0.069058
   149  H    0.094321
   150  H    0.078889
   151  H    0.097303
   152  N   -0.173651
   153  C    0.064879
   154  C    0.583559
   155  O   -0.570520
   156  C   -0.271511
   157  C    0.101741
   158  C    0.692310
   159  O   -0.723589
   160  O   -0.793137
   161  H    0.087085
   162  H   -0.005953
   163  H    0.072921
   164  H    0.054728
   165  H   -0.048755
   166  H   -0.037447
   167  N   -0.202609
   168  C   -0.163675
   169  H    0.073228
   170  H    0.094020
   171  H    0.060345
   172  H    0.177666
   173  Ca   1.733046
   174  O   -0.835509
   175  H    0.410611
   176  H    0.425497
 Sum of ESP charges =   0.00000

 Normal termination of Gaussian 09 at Mon Sep 16 13:35:34 2019.
