 Gaussian 16, Revision A.03,
 Gaussian 16:  ES64L-G16RevA.03 25-Dec-2016

 ----------------------------------------------------------------------
 #b3lyp/svp scf=(tight,noincore) Test #IOP(5/87=12) Density=Current Pop
 =(MK,readradii) iop(6/33=2) iop(6/42=6)
 ----------------------------------------------------------------------

 ------------------
 CaMKII_loop3_104.0
 ------------------
 Symbolic Z-matrix:
 Charge =  0 Multiplicity = 1

                         Standard orientation:
 ---------------------------------------------------------------------
 Center     Atomic      Atomic             Coordinates (Angstroms)
 Number     Number       Type             X           Y           Z
 ---------------------------------------------------------------------
      1          6           0        2.024300    2.443070    5.457674
      2          6           0        1.301323    2.243715    4.133416
      3          8           0        1.940021    2.132759    3.085249
      4          1           0        2.954159    1.873581    5.452558
      5          1           0        2.247277    3.501025    5.594607
      6          1           0        1.391035    2.095927    6.274426
      7          7           0       -0.032534    2.205892    4.094744
      8          6           0       -0.861611    2.159691    2.905712
      9          6           0       -0.939628    3.588904    2.396434
     10          8           0       -1.755440    4.372910    2.880567
     11          6           0       -2.184927    1.485479    3.281043
     12          6           0       -3.098841    1.190881    2.090844
     13          8           0       -2.589495    1.269461    0.951330
     14          8           0       -4.292710    0.925496    2.351704
     15          1           0       -0.477033    2.210948    4.997404
     16          1           0       -0.402772    1.573543    2.110415
     17          1           0       -2.670352    2.060213    4.068408
     18          1           0       -1.969953    0.482312    3.663721
     19          7           0       -0.323121    3.823800    1.240128
     20          6           0       -0.241036    5.118480    0.589540
     21          6           0       -1.450512    5.478739   -0.249794
     22          8           0       -1.971658    6.586087   -0.121782
     23          6           0        1.050899    5.160461   -0.208045
     24          6           0        1.486097    6.556126   -0.636791
     25          6           0        2.981325    6.692442   -0.902518
     26          6           0        3.451610    5.853424   -2.090913
     27          7           0        4.891834    6.066148   -2.282233
     28          1           0        0.218296    3.053705    0.861418
     29          1           0       -0.247514    5.901343    1.350582
     30          1           0        0.992409    4.463785   -1.051858
     31          1           0        1.844296    4.815528    0.453122
     32          1           0        1.320238    7.344786    0.107995
     33          1           0        1.010607    6.903216   -1.559741
     34          1           0        3.542667    6.383855   -0.020152
     35          1           0        3.202470    7.744558   -1.077580
     36          1           0        2.848881    6.145032   -2.948808
     37          1           0        3.375630    4.807111   -1.792996
     38          1           0        5.416330    6.057268   -1.417695
     39          1           0        5.277730    5.361980   -2.902742
     40          1           0        5.151925    6.827191   -2.887596
     41          7           0       -1.782357    4.535836   -1.134222
     42          6           0       -2.878734    4.632960   -2.087439
     43          6           0       -4.178094    4.528349   -1.300914
     44          8           0       -5.174373    5.147818   -1.689740
     45          6           0       -2.843091    3.583298   -3.192671
     46          6           0       -2.433906    2.179881   -2.771495
     47          8           0       -3.236729    1.395846   -2.205047
     48          8           0       -1.243649    1.784612   -2.851185
     49          1           0       -1.346074    3.630002   -1.053452
     50          1           0       -2.817262    5.551851   -2.657666
     51          1           0       -2.183098    3.925203   -3.980523
     52          1           0       -3.812464    3.683108   -3.667701
     53          7           0       -4.212591    3.599618   -0.340461
     54          6           0       -5.467363    3.306011    0.329048
     55          6           0       -6.346324    2.267654   -0.361852
     56          8           0       -7.466994    2.522510   -0.817644
     57          1           0       -3.385329    3.149126    0.018695
     58          1           0       -6.060779    4.226395    0.262326
     59          1           0       -5.376518    2.926836    1.339282
     60          7           0       -5.865196    1.036589   -0.467666
     61          6           0       -6.558117   -0.106185   -1.026708
     62          6           0       -6.690591   -1.297290   -0.078911
     63          8           0       -7.192552   -2.354367   -0.455771
     64          6           0       -5.768903   -0.468467   -2.280738
     65          6           0       -4.400593   -1.057494   -1.997585
     66          7           0       -3.806749   -1.527692   -3.097068
     67          8           0       -3.776093   -1.003605   -0.940799
     68          1           0       -4.979842    0.799040   -0.042322
     69          1           0       -7.585707    0.211386   -1.203928
     70          1           0       -5.655284    0.398343   -2.925587
     71          1           0       -6.343735   -1.215140   -2.847438
     72          1           0       -4.420991   -1.672520   -3.880860
     73          1           0       -3.000331   -2.088496   -2.849701
     74          7           0       -6.194722   -1.141901    1.149490
     75          6           0       -6.216897   -2.167313    2.169950
     76          6           0       -4.959545   -3.008651    2.356007
     77          8           0       -4.965417   -3.881466    3.215692
     78          1           0       -5.692173   -0.287843    1.337450
     79          1           0       -7.038977   -2.821252    1.895087
     80          1           0       -6.455600   -1.656949    3.092906
     81          7           0       -3.866840   -2.775743    1.623648
     82          6           0       -2.651754   -3.570064    1.644167
     83          6           0       -1.358212   -2.816156    1.380022
     84          8           0       -1.412277   -1.942182    0.517847
     85          6           0       -2.720158   -4.895906    0.906900
     86          6           0       -3.483131   -4.869552   -0.393783
     87          6           0       -4.872552   -5.077862   -0.379098
     88          6           0       -2.725170   -4.770260   -1.564312
     89          6           0       -5.596484   -5.062491   -1.580508
     90          6           0       -3.487313   -4.927598   -2.729509
     91          6           0       -4.888226   -5.043433   -2.796776
     92          8           0       -5.624186   -5.012541   -3.942380
     93          1           0       -3.905493   -2.108769    0.856412
     94          1           0       -2.613593   -3.794626    2.709350
     95          1           0       -3.081707   -5.747054    1.502911
     96          1           0       -1.686424   -5.130219    0.653736
     97          1           0       -5.321558   -5.154931    0.593813
     98          1           0       -1.653972   -4.652886   -1.591837
     99          1           0       -6.660830   -5.249264   -1.589545
    100          1           0       -2.967025   -4.903583   -3.675883
    101          1           0       -5.065967   -5.208491   -4.699344
    102          7           0       -0.286830   -3.222743    2.068083
    103          6           0        1.012781   -2.593818    2.001276
    104          6           0        1.920527   -3.440380    1.122510
    105          8           0        2.203572   -4.575430    1.492032
    106          6           0        1.656587   -2.411541    3.375936
    107          6           0        0.770408   -1.942373    4.523790
    108          6           0        2.818102   -1.429276    3.263519
    109          6           0        1.343412   -2.393561    5.862258
    110          1           0       -0.462037   -3.795178    2.886569
    111          1           0        0.972514   -1.578552    1.595550
    112          1           0        2.004209   -3.391340    3.709032
    113          1           0       -0.224865   -2.356061    4.433272
    114          1           0        0.695592   -0.857923    4.499928
    115          1           0        2.415403   -0.442522    3.054593
    116          1           0        3.377500   -1.363485    4.206199
    117          1           0        3.568016   -1.783128    2.557745
    118          1           0        1.072393   -3.435088    6.037959
    119          1           0        2.428129   -2.388782    5.938845
    120          1           0        1.102522   -1.707632    6.678575
    121          7           0        2.240095   -2.948877   -0.075989
    122          6           0        3.239357   -3.525617   -0.943772
    123          6           0        4.692549   -3.346881   -0.499264
    124          8           0        4.992570   -2.474102    0.315380
    125          6           0        3.065018   -2.912877   -2.325457
    126          8           0        3.375993   -1.532282   -2.341358
    127          1           0        1.757285   -2.099523   -0.348189
    128          1           0        3.137844   -4.599377   -1.088116
    129          1           0        2.036233   -2.979061   -2.652446
    130          1           0        3.789104   -3.351802   -3.011347
    131          1           0        2.612524   -1.120910   -1.925079
    132          7           0        5.623143   -4.053009   -1.139794
    133          6           0        7.010169   -3.772173   -0.822163
    134          6           0        7.483212   -2.371577   -1.195742
    135          8           0        8.171140   -1.847341   -0.322398
    136          6           0        7.880290   -4.774280   -1.590520
    137          1           0        5.333135   -4.636384   -1.900168
    138          1           0        7.170964   -3.863103    0.244831
    139          1           0        7.489067   -5.746706   -1.300468
    140          1           0        7.759088   -4.732243   -2.669428
    141          1           0        8.907267   -4.659103   -1.277547
    142          7           0        7.108068   -1.784395   -2.334067
    143          6           0        7.469199   -0.421383   -2.681894
    144          6           0        6.926069    0.677794   -1.787625
    145          8           0        7.620054    1.689673   -1.636339
    146          6           0        6.978899   -0.405360   -4.125206
    147          1           0        6.633424   -2.315016   -3.043190
    148          1           0        8.551291   -0.298784   -2.728236
    149          1           0        6.906722    0.585194   -4.577526
    150          1           0        7.790545   -0.873984   -4.683616
    151          1           0        6.008514   -0.854295   -4.349283
    152          7           0        5.855603    0.398217   -1.050036
    153          6           0        5.315942    1.260503   -0.028211
    154          6           0        6.085254    1.037553    1.269384
    155          8           0        6.398952    2.001263    1.957756
    156          6           0        3.861906    0.882565    0.258047
    157          6           0        2.956707    1.453230   -0.819708
    158          6           0        1.579585    0.798814   -0.746393
    159          8           0        1.352105   -0.317587   -1.251866
    160          8           0        0.720054    1.423015   -0.087470
    161          1           0        5.384525   -0.488875   -1.207691
    162          1           0        5.351584    2.314505   -0.315457
    163          1           0        3.410138    1.248701    1.182358
    164          1           0        3.775987   -0.204214    0.294499
    165          1           0        3.316297    1.309809   -1.831205
    166          1           0        2.879142    2.507050   -0.550732
    167          7           0        6.389573   -0.214246    1.634748
    168          6           0        7.262860   -0.409954    2.771572
    169          1           0        8.107615   -1.032272    2.477175
    170          1           0        7.628425    0.556036    3.120174
    171          1           0        6.711863   -0.901308    3.573055
    172          1           0        5.986358   -1.017986    1.167501
    173         20           0       -1.351332    0.041290   -0.990074
    174          8           0       -0.934798   -2.036727   -2.585518
    175          1           0       -0.884638   -2.992436   -2.550812
    176          1           0       -0.591062   -1.810710   -3.445147
 ---------------------------------------------------------------------

 SCF Done:  E(RB3LYP) =  -5333.62497114     A.U. after   19 cycles

 The electronic state is 1-A.
 Alpha  occ. eigenvalues -- -145.35981 -19.21089 -19.17083 -19.14023 -19.13970
 Alpha  occ. eigenvalues --  -19.13899 -19.12451 -19.11353 -19.11017 -19.10560
 Alpha  occ. eigenvalues --  -19.10538 -19.10154 -19.07859 -19.07780 -19.06955
 Alpha  occ. eigenvalues --  -19.06862 -19.06541 -19.06287 -19.06024 -19.05430
 Alpha  occ. eigenvalues --  -19.04914 -19.04302 -19.03724 -19.03191 -15.41747
 Alpha  occ. eigenvalues --  -14.58216 -14.39927 -14.38886 -14.38463 -14.37325
 Alpha  occ. eigenvalues --  -14.35993 -14.34344 -14.34255 -14.33621 -14.33115
 Alpha  occ. eigenvalues --  -14.32690 -14.32358 -14.31007 -14.30271 -14.29126
 Alpha  occ. eigenvalues --  -12.55358 -12.55319 -12.55314 -10.34552 -10.32191
 Alpha  occ. eigenvalues --  -10.31890 -10.30069 -10.29958 -10.29411 -10.28980
 Alpha  occ. eigenvalues --  -10.28502 -10.27200 -10.27182 -10.27014 -10.26443
 Alpha  occ. eigenvalues --  -10.26122 -10.26091 -10.26000 -10.25719 -10.25503
 Alpha  occ. eigenvalues --  -10.25363 -10.25221 -10.25040 -10.24486 -10.24356
 Alpha  occ. eigenvalues --  -10.24017 -10.23391 -10.23273 -10.23176 -10.23160
 Alpha  occ. eigenvalues --  -10.22231 -10.22042 -10.22032 -10.21876 -10.21590
 Alpha  occ. eigenvalues --  -10.20807 -10.20481 -10.20386 -10.19938 -10.19613
 Alpha  occ. eigenvalues --  -10.19505 -10.19472 -10.19437 -10.19309 -10.19264
 Alpha  occ. eigenvalues --  -10.19158 -10.19134 -10.18904 -10.18734 -10.18670
 Alpha  occ. eigenvalues --  -10.18529 -10.17898 -10.17386 -10.17065 -10.17026
 Alpha  occ. eigenvalues --  -10.16417 -10.15751  -1.78790  -1.13678  -1.07676
 Alpha  occ. eigenvalues --   -1.07423  -1.07280  -1.07001  -1.06046  -1.05801
 Alpha  occ. eigenvalues --   -1.05661  -1.05521  -1.04616  -1.04061  -1.03207
 Alpha  occ. eigenvalues --   -1.03035  -1.02771  -1.01260  -1.00867  -1.00460
 Alpha  occ. eigenvalues --   -1.00430  -1.00177  -0.99320  -0.98916  -0.98667
 Alpha  occ. eigenvalues --   -0.97121  -0.96697  -0.96318  -0.96092  -0.95751
 Alpha  occ. eigenvalues --   -0.95392  -0.94044  -0.92929  -0.91212  -0.90549
 Alpha  occ. eigenvalues --   -0.90357  -0.90150  -0.89769  -0.89493  -0.89434
 Alpha  occ. eigenvalues --   -0.88848  -0.88519  -0.88401  -0.86492  -0.85941
 Alpha  occ. eigenvalues --   -0.85299  -0.82920  -0.82213  -0.81472  -0.80692
 Alpha  occ. eigenvalues --   -0.79453  -0.78816  -0.78188  -0.77345  -0.75978
 Alpha  occ. eigenvalues --   -0.75567  -0.75183  -0.75005  -0.74818  -0.73994
 Alpha  occ. eigenvalues --   -0.73413  -0.73235  -0.71455  -0.70731  -0.70456
 Alpha  occ. eigenvalues --   -0.69867  -0.69339  -0.68246  -0.68233  -0.67606
 Alpha  occ. eigenvalues --   -0.67310  -0.66708  -0.65741  -0.65058  -0.64686
 Alpha  occ. eigenvalues --   -0.63746  -0.63416  -0.63171  -0.62992  -0.62849
 Alpha  occ. eigenvalues --   -0.62361  -0.61989  -0.61703  -0.61637  -0.61113
 Alpha  occ. eigenvalues --   -0.60440  -0.59996  -0.59303  -0.58687  -0.58383
 Alpha  occ. eigenvalues --   -0.57727  -0.57524  -0.57150  -0.56818  -0.56608
 Alpha  occ. eigenvalues --   -0.56090  -0.56005  -0.55556  -0.55436  -0.55406
 Alpha  occ. eigenvalues --   -0.55374  -0.55256  -0.54649  -0.54301  -0.53855
 Alpha  occ. eigenvalues --   -0.53640  -0.53377  -0.53080  -0.52841  -0.52473
 Alpha  occ. eigenvalues --   -0.51846  -0.51424  -0.50937  -0.50819  -0.50785
 Alpha  occ. eigenvalues --   -0.50445  -0.50193  -0.50006  -0.49496  -0.49220
 Alpha  occ. eigenvalues --   -0.49031  -0.48594  -0.48349  -0.47991  -0.47878
 Alpha  occ. eigenvalues --   -0.47768  -0.47662  -0.47393  -0.47212  -0.47078
 Alpha  occ. eigenvalues --   -0.46974  -0.46895  -0.46592  -0.46464  -0.46141
 Alpha  occ. eigenvalues --   -0.45937  -0.45500  -0.45404  -0.45351  -0.45185
 Alpha  occ. eigenvalues --   -0.45133  -0.44898  -0.44645  -0.44502  -0.44400
 Alpha  occ. eigenvalues --   -0.43972  -0.43910  -0.43621  -0.43470  -0.43285
 Alpha  occ. eigenvalues --   -0.43083  -0.43000  -0.42906  -0.42782  -0.42708
 Alpha  occ. eigenvalues --   -0.42578  -0.42496  -0.42367  -0.42180  -0.42116
 Alpha  occ. eigenvalues --   -0.42002  -0.41886  -0.41726  -0.41424  -0.41379
 Alpha  occ. eigenvalues --   -0.41189  -0.41143  -0.41015  -0.40850  -0.40743
 Alpha  occ. eigenvalues --   -0.40655  -0.40273  -0.40054  -0.39878  -0.39734
 Alpha  occ. eigenvalues --   -0.39640  -0.39569  -0.39516  -0.39199  -0.39090
 Alpha  occ. eigenvalues --   -0.38922  -0.38899  -0.38832  -0.38681  -0.38609
 Alpha  occ. eigenvalues --   -0.38269  -0.38150  -0.38004  -0.37913  -0.37708
 Alpha  occ. eigenvalues --   -0.37530  -0.37345  -0.37315  -0.37240  -0.36925
 Alpha  occ. eigenvalues --   -0.36796  -0.36789  -0.36540  -0.36460  -0.36364
 Alpha  occ. eigenvalues --   -0.36305  -0.35797  -0.35692  -0.35467  -0.35258
 Alpha  occ. eigenvalues --   -0.35089  -0.34869  -0.34782  -0.34620  -0.34553
 Alpha  occ. eigenvalues --   -0.34166  -0.33976  -0.33865  -0.33812  -0.33565
 Alpha  occ. eigenvalues --   -0.33339  -0.32996  -0.32840  -0.32650  -0.32604
 Alpha  occ. eigenvalues --   -0.32399  -0.31653  -0.31538  -0.30979  -0.30719
 Alpha  occ. eigenvalues --   -0.30381  -0.29829  -0.29531  -0.29372  -0.29029
 Alpha  occ. eigenvalues --   -0.28752  -0.28128  -0.27807  -0.27694  -0.27075
 Alpha  occ. eigenvalues --   -0.26418  -0.26381  -0.26304  -0.26211  -0.26128
 Alpha  occ. eigenvalues --   -0.25731  -0.25582  -0.25108  -0.24805  -0.24681
 Alpha  occ. eigenvalues --   -0.24089  -0.23905  -0.23589  -0.23081  -0.22991
 Alpha  occ. eigenvalues --   -0.22670  -0.22574  -0.22325  -0.22158  -0.21996
 Alpha  occ. eigenvalues --   -0.21633  -0.21319  -0.21295  -0.20662  -0.20040
 Alpha  occ. eigenvalues --   -0.19692  -0.19248  -0.18009
 Alpha virt. eigenvalues --   -0.10276  -0.04738  -0.03688  -0.03412  -0.02411
 Alpha virt. eigenvalues --   -0.02116  -0.01468  -0.01295  -0.00814  -0.00243
 Alpha virt. eigenvalues --   -0.00106   0.00188   0.00244   0.01100   0.01513

 Mulliken charges:
               1
     1  C    0.074307
     2  C    0.010026
     3  O   -0.303229
     4  H    0.036181
     5  H    0.045040
     6  H   -0.000748
     7  N   -0.124494
     8  C    0.111770
     9  C    0.067134
    10  O   -0.275764
    11  C    0.069982
    12  C    0.169591
    13  O   -0.472811
    14  O   -0.374392
    15  H    0.112919
    16  H    0.004814
    17  H    0.016013
    18  H    0.002708
    19  N   -0.144211
    20  C    0.117656
    21  C    0.087416
    22  O   -0.252264
    23  C   -0.010724
    24  C    0.065083
    25  C   -0.079820
    26  C    0.028021
    27  N    0.087964
    28  H    0.149374
    29  H    0.003125
    30  H    0.020279
    31  H    0.024778
    32  H    0.034147
    33  H    0.017066
    34  H    0.027914
    35  H    0.018859
    36  H    0.080127
    37  H    0.086138
    38  H    0.204864
    39  H    0.185373
    40  H    0.177551
    41  N   -0.170115
    42  C    0.094319
    43  C    0.090673
    44  O   -0.279777
    45  C    0.175521
    46  C    0.066110
    47  O   -0.393679
    48  O   -0.455988
    49  H    0.130558
    50  H   -0.007901
    51  H   -0.022961
    52  H    0.012510
    53  N   -0.156311
    54  C    0.239275
    55  C    0.005423
    56  O   -0.294519
    57  H    0.129696
    58  H    0.015190
    59  H    0.037968
    60  N   -0.164638
    61  C    0.124483
    62  C    0.036165
    63  O   -0.295629
    64  C    0.088304
    65  C    0.092926
    66  N   -0.046904
    67  O   -0.363859
    68  H    0.149108
    69  H    0.029054
    70  H    0.052592
    71  H    0.017653
    72  H    0.117808
    73  H    0.104357
    74  N   -0.168420
    75  C    0.243430
    76  C    0.028392
    77  O   -0.305665
    78  H    0.129454
    79  H    0.029108
    80  H    0.035884
    81  N   -0.154187
    82  C    0.142794
    83  C    0.122849
    84  O   -0.366396
    85  C    0.151230
    86  C   -0.084551
    87  C    0.040335
    88  C   -0.011071
    89  C    0.024987
    90  C   -0.058893
    91  C    0.151007
    92  O   -0.190978
    93  H    0.169777
    94  H   -0.012863
    95  H    0.022660
    96  H   -0.026479
    97  H    0.001581
    98  H   -0.046691
    99  H   -0.003332
   100  H   -0.076640
   101  H    0.170702
   102  N   -0.096032
   103  C    0.130676
   104  C    0.081590
   105  O   -0.275634
   106  C   -0.140990
   107  C    0.043019
   108  C    0.028861
   109  C    0.021628
   110  H    0.149046
   111  H    0.006795
   112  H   -0.003843
   113  H   -0.022476
   114  H    0.000002
   115  H    0.044354
   116  H   -0.001867
   117  H    0.024785
   118  H    0.011107
   119  H   -0.000439
   120  H    0.008169
   121  N   -0.125952
   122  C    0.098399
   123  C    0.108876
   124  O   -0.279815
   125  C    0.258394
   126  O   -0.355686
   127  H    0.136692
   128  H    0.003421
   129  H   -0.021511
   130  H   -0.028874
   131  H    0.171499
   132  N   -0.119141
   133  C    0.102654
   134  C    0.044915
   135  O   -0.254841
   136  C    0.041546
   137  H    0.113668
   138  H    0.025423
   139  H    0.020784
   140  H    0.003519
   141  H    0.044658
   142  N   -0.129619
   143  C    0.115213
   144  C    0.074675
   145  O   -0.297802
   146  C   -0.001269
   147  H    0.109715
   148  H    0.025019
   149  H    0.003555
   150  H    0.022681
   151  H    0.025848
   152  N   -0.127642
   153  C    0.163959
   154  C    0.085023
   155  O   -0.283193
   156  C   -0.075792
   157  C    0.091464
   158  C    0.179475
   159  O   -0.446091
   160  O   -0.395812
   161  H    0.143147
   162  H   -0.058405
   163  H    0.066674
   164  H    0.001852
   165  H   -0.011902
   166  H   -0.012072
   167  N   -0.178400
   168  C    0.127385
   169  H    0.021066
   170  H    0.037446
   171  H    0.004212
   172  H    0.137079
   173  Ca   1.250663
   174  O   -0.252115
   175  H    0.178906
   176  H    0.194480
 Sum of Mulliken charges =  -0.00000

 Dipole moment (field-independent basis, Debye):
    X=             31.5598    Y=             -0.5203    Z=            -17.9781  Tot=             36.3250
 Quadrupole moment (field-independent basis, Debye-Ang):
   XX=           -678.0185   YY=           -478.4268   ZZ=           -490.3904
   XY=            115.2860   XZ=            -64.0529   YZ=            -11.6177

 ESP charges:
               1
     1  C   -0.410242
     2  C    0.840458
     3  O   -0.656858
     4  H    0.120332
     5  H    0.117878
     6  H    0.086196
     7  N   -0.813163
     8  C    0.403014
     9  C    0.489614
    10  O   -0.533134
    11  C   -0.287377
    12  C    0.697228
    13  O   -0.657700
    14  O   -0.609041
    15  H    0.360207
    16  H   -0.016496
    17  H    0.081475
    18  H    0.046224
    19  N   -0.293901
    20  C   -0.159929
    21  C    0.465554
    22  O   -0.509360
    23  C    0.121057
    24  C   -0.164605
    25  C    0.067292
    26  C    0.129418
    27  N   -0.468123
    28  H    0.201430
    29  H    0.117034
    30  H   -0.049408
    31  H    0.046133
    32  H    0.081124
    33  H    0.064649
    34  H    0.013873
    35  H   -0.000615
    36  H    0.078777
    37  H    0.016302
    38  H    0.354085
    39  H    0.350788
    40  H    0.344862
    41  N   -0.318537
    42  C    0.008577
    43  C    0.348897
    44  O   -0.515821
    45  C   -0.297910
    46  C    0.757370
    47  O   -0.738144
    48  O   -0.779494
    49  H    0.261406
    50  H    0.104651
    51  H    0.073459
    52  H    0.128188
    53  N    0.182164
    54  C   -0.463964
    55  C    0.744904
    56  O   -0.594457
    57  H    0.072094
    58  H    0.133193
    59  H    0.168389
    60  N   -0.404832
    61  C    0.052340
    62  C    0.386743
    63  O   -0.516677
    64  C   -0.204163
    65  C    0.755908
    66  N   -0.756837
    67  O   -0.502360
    68  H    0.049701
    69  H    0.107678
    70  H    0.123640
    71  H    0.041653
    72  H    0.339549
    73  H    0.313717
    74  N   -0.155118
    75  C   -0.326573
    76  C    0.663827
    77  O   -0.579913
    78  H    0.206309
    79  H    0.143967
    80  H    0.150919
    81  N   -0.408022
    82  C   -0.083470
    83  C    0.757823
    84  O   -0.675996
    85  C   -0.266971
    86  C    0.247753
    87  C   -0.299131
    88  C   -0.264877
    89  C   -0.113430
    90  C   -0.249181
    91  C    0.268331
    92  O   -0.515891
    93  H    0.282237
    94  H    0.094824
    95  H    0.124430
    96  H    0.055890
    97  H    0.200992
    98  H    0.166273
    99  H    0.156747
   100  H    0.090831
   101  H    0.399678
   102  N   -0.498739
   103  C   -0.345199
   104  C    0.668217
   105  O   -0.557112
   106  C    0.551762
   107  C    0.093781
   108  C   -0.657242
   109  C   -0.285401
   110  H    0.328912
   111  H    0.142303
   112  H   -0.066993
   113  H   -0.039975
   114  H   -0.003231
   115  H    0.157145
   116  H    0.148703
   117  H    0.131187
   118  H    0.063202
   119  H    0.063386
   120  H    0.069036
   121  N   -0.252568
   122  C   -0.234894
   123  C    0.601922
   124  O   -0.470199
   125  C    0.120674
   126  O   -0.532476
   127  H    0.226566
   128  H    0.099526
   129  H    0.022930
   130  H    0.039525
   131  H    0.357494
   132  N   -0.561609
   133  C    0.317412
   134  C    0.484396
   135  O   -0.535319
   136  C   -0.377156
   137  H    0.328676
   138  H    0.047929
   139  H    0.094490
   140  H    0.087903
   141  H    0.122579
   142  N   -0.519849
   143  C    0.316242
   144  C    0.228766
   145  O   -0.526083
   146  C   -0.476562
   147  H    0.309197
   148  H    0.077348
   149  H    0.122853
   150  H    0.111359
   151  H    0.136105
   152  N    0.199396
   153  C   -0.473301
   154  C    0.604559
   155  O   -0.576705
   156  C    0.172835
   157  C   -0.229866
   158  C    0.744883
   159  O   -0.673977
   160  O   -0.656907
   161  H   -0.000587
   162  H    0.164533
   163  H    0.046658
   164  H   -0.046620
   165  H    0.004228
   166  H    0.107736
   167  N   -0.162774
   168  C   -0.204745
   169  H    0.079383
   170  H    0.114942
   171  H    0.057869
   172  H    0.223019
   173  Ca   1.498764
   174  O   -0.686299
   175  H    0.362094
   176  H    0.401623
 Sum of ESP charges =   0.00000

 Normal termination of Gaussian 16 at Sat Sep 14 23:36:39 2019.
