 Gaussian 09, Revision D.01,
 Gaussian 09:  ES64L-G09RevD.01 24-Apr-2013

 ----------------------------------------------------------------------
 #maxdisk=50GB #B3LYP/SVP Density=Current scf=(tight) #IOP(5/87=12)Pop=
 (MK,readradii) iop(6/33=2) iop(6/42=6)
 ----------------------------------------------------------------------

 ------------
 SOL molecule
 ------------
 Symbolic Z-matrix:
 Charge =  0 Multiplicity = 1

                         Standard orientation:
 ---------------------------------------------------------------------
 Center     Atomic      Atomic             Coordinates (Angstroms)
 Number     Number       Type             X           Y           Z
 ---------------------------------------------------------------------
      1          6           0        2.523083    0.627929    5.555525
      2          6           0        1.895424    0.781914    4.176237
      3          8           0        2.570646    0.466385    3.199142
      4          1           0        2.980929    1.571595    5.852613
      5          1           0        1.753088    0.354754    6.277672
      6          1           0        3.284513   -0.150761    5.524048
      7          7           0        0.631892    1.207261    4.102985
      8          6           0       -0.055111    1.589077    2.883295
      9          6           0        0.356167    3.006832    2.528018
     10          8           0       -0.279846    4.001519    2.865341
     11          6           0       -1.543025    1.353006    3.093730
     12          6           0       -2.452209    1.606182    1.896113
     13          8           0       -3.682533    1.589645    2.118892
     14          8           0       -1.992665    1.790704    0.747170
     15          1           0        0.090381    1.361768    4.934846
     16          1           0        0.202447    0.881958    2.088722
     17          1           0       -1.865340    2.035712    3.891555
     18          1           0       -1.681069    0.289137    3.305451
     19          7           0        1.411447    3.048074    1.711143
     20          6           0        2.111021    4.256656    1.344367
     21          6           0        1.274042    5.141902    0.425452
     22          8           0        1.360723    6.355096    0.557917
     23          6           0        3.400765    3.855089    0.642154
     24          6           0        4.244084    5.003531    0.103271
     25          6           0        5.583851    4.436512   -0.352926
     26          6           0        6.250014    5.444519   -1.291676
     27          7           0        7.715495    5.243389   -1.294860
     28          1           0        1.840049    2.149090    1.529132
     29          1           0        2.357300    4.775548    2.271674
     30          1           0        3.240375    3.082223   -0.112467
     31          1           0        4.016629    3.424614    1.433041
     32          1           0        4.473274    5.699128    0.909817
     33          1           0        3.720533    5.568379   -0.669672
     34          1           0        5.559804    3.430005   -0.761539
     35          1           0        6.245600    4.352658    0.509718
     36          1           0        6.006281    6.397014   -0.839739
     37          1           0        5.846943    5.219027   -2.277570
     38          1           0        8.104738    4.951123   -0.412097
     39          1           0        7.868742    4.647502   -2.101541
     40          1           0        8.169435    6.097440   -1.588351
     41          7           0        0.496914    4.573028   -0.500698
     42          6           0       -0.392676    5.383409   -1.307242
     43          6           0       -1.843993    5.476670   -0.847807
     44          8           0       -2.606242    6.184989   -1.483858
     45          6           0       -0.208602    4.963261   -2.763742
     46          6           0       -0.363392    3.463624   -2.958746
     47          8           0        0.480483    2.971848   -3.745595
     48          8           0       -1.391266    2.906571   -2.516288
     49          1           0        0.511255    3.561175   -0.554068
     50          1           0        0.005555    6.401479   -1.232773
     51          1           0        0.776972    5.251428   -3.115032
     52          1           0       -0.922189    5.437736   -3.448261
     53          7           0       -2.343537    4.684095    0.106017
     54          6           0       -3.557305    4.860543    0.877142
     55          6           0       -4.764077    4.400277    0.082939
     56          8           0       -5.468504    5.223860   -0.504423
     57          1           0       -1.742670    3.910254    0.357670
     58          1           0       -3.819591    5.887971    1.153179
     59          1           0       -3.495240    4.294788    1.801841
     60          7           0       -5.031671    3.094868    0.083768
     61          6           0       -6.132798    2.526346   -0.649445
     62          6           0       -6.714996    1.227865   -0.096279
     63          8           0       -7.308554    0.471624   -0.864645
     64          6           0       -5.723572    2.327775   -2.109207
     65          6           0       -5.039867    1.010771   -2.440488
     66          7           0       -5.274573    0.504259   -3.659364
     67          8           0       -4.143065    0.561725   -1.729782
     68          1           0       -4.387031    2.502508    0.601407
     69          1           0       -6.980518    3.217502   -0.533366
     70          1           0       -5.159694    3.200421   -2.410920
     71          1           0       -6.659783    2.360530   -2.670754
     72          1           0       -5.930346    0.966702   -4.266989
     73          1           0       -5.227126   -0.508150   -3.672687
     74          7           0       -6.347716    0.876897    1.138438
     75          6           0       -6.861909   -0.168520    1.993487
     76          6           0       -6.167685   -1.498641    1.773190
     77          8           0       -6.656782   -2.531524    2.238094
     78          1           0       -5.784450    1.562417    1.633709
     79          1           0       -7.944574   -0.287441    1.927970
     80          1           0       -6.739291    0.119780    3.032308
     81          7           0       -5.002812   -1.415185    1.118510
     82          6           0       -4.042843   -2.457853    0.844827
     83          6           0       -2.566554   -2.092615    0.880523
     84          8           0       -2.211420   -0.969006    0.520132
     85          6           0       -4.297382   -3.033953   -0.553393
     86          6           0       -5.510361   -3.890837   -0.758652
     87          6           0       -5.413153   -5.266291   -0.538475
     88          6           0       -6.700160   -3.321601   -1.235463
     89          6           0       -6.473079   -6.069672   -0.984384
     90          6           0       -7.771376   -4.146731   -1.577451
     91          6           0       -7.710658   -5.545757   -1.399852
     92          8           0       -8.779925   -6.383115   -1.548846
     93          1           0       -4.593855   -0.501709    0.990383
     94          1           0       -4.113712   -3.289275    1.556103
     95          1           0       -3.463809   -3.679119   -0.851914
     96          1           0       -4.410922   -2.163077   -1.196576
     97          1           0       -4.493445   -5.791814   -0.314726
     98          1           0       -6.765432   -2.247021   -1.356367
     99          1           0       -6.339371   -7.136021   -0.914946
    100          1           0       -8.663268   -3.744272   -2.048146
    101          1           0       -9.581426   -5.926873   -1.783878
    102          7           0       -1.727465   -3.085103    1.159443
    103          6           0       -0.304826   -2.996251    1.372996
    104          6           0        0.342248   -3.929976    0.360646
    105          8           0       -0.241813   -4.962735    0.042555
    106          6           0        0.072800   -3.348527    2.803905
    107          6           0       -0.648763   -2.611347    3.932538
    108          6           0        1.568056   -3.127032    2.999221
    109          6           0       -0.578125   -3.063846    5.386104
    110          1           0       -2.113020   -3.947613    1.521139
    111          1           0        0.034370   -1.966685    1.219249
    112          1           0       -0.038251   -4.428780    2.938148
    113          1           0       -1.703172   -2.698487    3.684287
    114          1           0       -0.280079   -1.580404    3.884283
    115          1           0        2.206978   -3.856295    2.498368
    116          1           0        1.986008   -2.155959    2.744597
    117          1           0        1.805702   -3.340091    4.040869
    118          1           0        0.441524   -3.320706    5.680790
    119          1           0       -0.895367   -2.250361    6.036719
    120          1           0       -1.193792   -3.959800    5.465613
    121          7           0        1.509573   -3.559916   -0.184706
    122          6           0        2.343205   -4.333477   -1.076872
    123          6           0        3.815026   -4.241518   -0.721646
    124          8           0        4.236798   -3.579334    0.224885
    125          6           0        2.084652   -3.837152   -2.499339
    126          8           0        2.395125   -2.470774   -2.664619
    127          1           0        1.919899   -2.767224    0.283665
    128          1           0        2.083976   -5.390063   -1.009584
    129          1           0        1.069425   -4.101734   -2.807415
    130          1           0        2.734690   -4.374619   -3.184014
    131          1           0        1.736004   -1.883836   -2.281391
    132          7           0        4.664441   -4.971106   -1.461439
    133          6           0        6.095157   -5.054678   -1.274436
    134          6           0        6.872752   -3.746742   -1.309789
    135          8           0        7.657280   -3.479075   -0.406424
    136          6           0        6.587404   -6.199725   -2.159229
    137          1           0        4.319591   -5.562972   -2.193404
    138          1           0        6.158712   -5.295007   -0.214105
    139          1           0        7.609459   -6.489992   -1.944407
    140          1           0        6.086758   -7.135480   -1.933140
    141          1           0        6.648601   -5.827066   -3.186010
    142          7           0        6.593736   -2.856397   -2.272876
    143          6           0        7.247981   -1.564769   -2.303871
    144          6           0        6.752167   -0.717572   -1.143085
    145          8           0        7.465378    0.133039   -0.604670
    146          6           0        7.021288   -0.862571   -3.637448
    147          1           0        6.143743   -3.041176   -3.149496
    148          1           0        8.324829   -1.660223   -2.241513
    149          1           0        5.981598   -0.583823   -3.797898
    150          1           0        7.654539    0.028210   -3.651657
    151          1           0        7.360762   -1.450700   -4.490597
    152          7           0        5.540275   -0.938780   -0.613760
    153          6           0        4.909199   -0.083499    0.374287
    154          6           0        5.391915   -0.543079    1.739304
    155          8           0        5.727495    0.286092    2.592100
    156          6           0        3.403320   -0.167020    0.142223
    157          6           0        3.013687    0.303564   -1.254644
    158          6           0        1.482833    0.337246   -1.227210
    159          8           0        0.870575   -0.741544   -1.345335
    160          8           0        0.849469    1.399762   -1.065932
    161          1           0        5.062310   -1.797655   -0.834856
    162          1           0        5.246949    0.940652    0.274099
    163          1           0        3.037753    0.571156    0.864204
    164          1           0        3.072348   -1.173857    0.384376
    165          1           0        3.440271   -0.221531   -2.114005
    166          1           0        3.373194    1.319659   -1.228097
    167          7           0        5.851077   -1.793542    1.864260
    168          6           0        6.274992   -2.425921    3.098194
    169          1           0        7.341385   -2.254501    3.246065
    170          1           0        5.719437   -2.000915    3.934433
    171          1           0        6.084420   -3.497486    3.042592
    172          1           0        5.540293   -2.424786    1.146038
    173         20           0       -1.559976    0.622530   -1.497078
    174          8           0       -1.511417    0.342496   -4.108136
    175          1           0       -1.845702    0.962850   -4.754599
    176          1           0       -1.248223   -0.423973   -4.621025
 ---------------------------------------------------------------------

 SCF Done:  E(RB3LYP) =  -5333.57652894     A.U. after   20 cycles

 The electronic state is 1-A.
 Alpha  occ. eigenvalues -- -145.35009 -19.15131 -19.15048 -19.14314 -19.12193
 Alpha  occ. eigenvalues --  -19.11854 -19.11562 -19.11415 -19.10461 -19.09106
 Alpha  occ. eigenvalues --  -19.08917 -19.07879 -19.07722 -19.07463 -19.06684
 Alpha  occ. eigenvalues --  -19.06532 -19.05708 -19.05471 -19.04703 -19.04079
 Alpha  occ. eigenvalues --  -19.03337 -19.01556 -19.01157 -18.98580 -15.40818
 Alpha  occ. eigenvalues --  -14.57780 -14.39353 -14.38259 -14.37046 -14.36299
 Alpha  occ. eigenvalues --  -14.35530 -14.35146 -14.34337 -14.33030 -14.32996
 Alpha  occ. eigenvalues --  -14.32977 -14.31430 -14.30453 -14.29333 -14.27737
 Alpha  occ. eigenvalues --  -12.54421 -12.54394 -12.54371 -10.33794 -10.32495
 Alpha  occ. eigenvalues --  -10.30982 -10.30218 -10.29738 -10.29065 -10.28068
 Alpha  occ. eigenvalues --  -10.27895 -10.26363 -10.26284 -10.26075 -10.25945
 Alpha  occ. eigenvalues --  -10.25838 -10.25651 -10.25513 -10.24997 -10.24800
 Alpha  occ. eigenvalues --  -10.24624 -10.24140 -10.24096 -10.24007 -10.23561
 Alpha  occ. eigenvalues --  -10.22940 -10.22864 -10.22151 -10.21780 -10.21748
 Alpha  occ. eigenvalues --  -10.21736 -10.21499 -10.20952 -10.20808 -10.20781
 Alpha  occ. eigenvalues --  -10.20579 -10.20096 -10.20008 -10.19836 -10.18993
 Alpha  occ. eigenvalues --  -10.18522 -10.18492 -10.18280 -10.18148 -10.18000
 Alpha  occ. eigenvalues --  -10.17408 -10.17368 -10.17363 -10.17240 -10.17237
 Alpha  occ. eigenvalues --  -10.17110 -10.17101 -10.16848 -10.16844 -10.16695
 Alpha  occ. eigenvalues --  -10.16349 -10.11332  -1.77735  -1.13072  -1.07386
 Alpha  occ. eigenvalues --   -1.05559  -1.05367  -1.05313  -1.05309  -1.04469
 Alpha  occ. eigenvalues --   -1.03614  -1.03525  -1.03356  -1.02317  -1.02189
 Alpha  occ. eigenvalues --   -1.01968  -1.01007  -1.00586  -1.00302  -1.00029
 Alpha  occ. eigenvalues --   -0.99125  -0.99044  -0.98710  -0.98672  -0.96539
 Alpha  occ. eigenvalues --   -0.96524  -0.95190  -0.94951  -0.94299  -0.94024
 Alpha  occ. eigenvalues --   -0.93089  -0.91881  -0.91803  -0.91295  -0.90972
 Alpha  occ. eigenvalues --   -0.90829  -0.90634  -0.89504  -0.89036  -0.87939
 Alpha  occ. eigenvalues --   -0.87602  -0.87239  -0.86835  -0.84636  -0.84056
 Alpha  occ. eigenvalues --   -0.83331  -0.82718  -0.81950  -0.80565  -0.79597
 Alpha  occ. eigenvalues --   -0.78325  -0.78148  -0.77482  -0.76958  -0.75455
 Alpha  occ. eigenvalues --   -0.75155  -0.74890  -0.73223  -0.72922  -0.72465
 Alpha  occ. eigenvalues --   -0.71957  -0.71595  -0.71437  -0.71324  -0.70683
 Alpha  occ. eigenvalues --   -0.70156  -0.69654  -0.67868  -0.67652  -0.67121
 Alpha  occ. eigenvalues --   -0.66881  -0.66192  -0.64934  -0.64791  -0.64236
 Alpha  occ. eigenvalues --   -0.63577  -0.63371  -0.63008  -0.62603  -0.60867
 Alpha  occ. eigenvalues --   -0.60619  -0.60495  -0.60317  -0.59788  -0.59107
 Alpha  occ. eigenvalues --   -0.58938  -0.58813  -0.58718  -0.58222  -0.57668
 Alpha  occ. eigenvalues --   -0.57488  -0.56720  -0.56440  -0.55818  -0.55400
 Alpha  occ. eigenvalues --   -0.55156  -0.55066  -0.54793  -0.54360  -0.54290
 Alpha  occ. eigenvalues --   -0.54142  -0.53503  -0.53381  -0.53198  -0.52730
 Alpha  occ. eigenvalues --   -0.52593  -0.52243  -0.52063  -0.51622  -0.51136
 Alpha  occ. eigenvalues --   -0.51061  -0.50666  -0.50387  -0.49391  -0.49175
 Alpha  occ. eigenvalues --   -0.49081  -0.48902  -0.48577  -0.48546  -0.48435
 Alpha  occ. eigenvalues --   -0.48278  -0.48193  -0.47776  -0.47561  -0.47509
 Alpha  occ. eigenvalues --   -0.46962  -0.46899  -0.46838  -0.46697  -0.46616
 Alpha  occ. eigenvalues --   -0.45976  -0.45563  -0.45517  -0.45202  -0.44799
 Alpha  occ. eigenvalues --   -0.44514  -0.44395  -0.44214  -0.44134  -0.44024
 Alpha  occ. eigenvalues --   -0.43887  -0.43791  -0.43710  -0.43640  -0.43343
 Alpha  occ. eigenvalues --   -0.43095  -0.42926  -0.42882  -0.42826  -0.42754
 Alpha  occ. eigenvalues --   -0.42488  -0.42319  -0.42037  -0.41998  -0.41922
 Alpha  occ. eigenvalues --   -0.41778  -0.41726  -0.41567  -0.41259  -0.40927
 Alpha  occ. eigenvalues --   -0.40916  -0.40833  -0.40792  -0.40684  -0.40545
 Alpha  occ. eigenvalues --   -0.40481  -0.40137  -0.39915  -0.39779  -0.39682
 Alpha  occ. eigenvalues --   -0.39496  -0.39435  -0.39410  -0.39261  -0.39202
 Alpha  occ. eigenvalues --   -0.38971  -0.38853  -0.38826  -0.38702  -0.38536
 Alpha  occ. eigenvalues --   -0.38186  -0.38139  -0.37943  -0.37811  -0.37676
 Alpha  occ. eigenvalues --   -0.37454  -0.37405  -0.37228  -0.36747  -0.36729
 Alpha  occ. eigenvalues --   -0.36581  -0.36281  -0.36256  -0.36163  -0.35902
 Alpha  occ. eigenvalues --   -0.35769  -0.35648  -0.35489  -0.35201  -0.35155
 Alpha  occ. eigenvalues --   -0.34854  -0.34585  -0.34458  -0.34217  -0.33836
 Alpha  occ. eigenvalues --   -0.33792  -0.33690  -0.33338  -0.33165  -0.33102
 Alpha  occ. eigenvalues --   -0.32928  -0.32732  -0.32631  -0.32448  -0.32337
 Alpha  occ. eigenvalues --   -0.32244  -0.32158  -0.31742  -0.31639  -0.31532
 Alpha  occ. eigenvalues --   -0.31234  -0.30696  -0.30197  -0.29663  -0.28869
 Alpha  occ. eigenvalues --   -0.28789  -0.28602  -0.28417  -0.28014  -0.27695
 Alpha  occ. eigenvalues --   -0.27518  -0.27011  -0.26898  -0.26591  -0.26506
 Alpha  occ. eigenvalues --   -0.26276  -0.25659  -0.25382  -0.25173  -0.24785
 Alpha  occ. eigenvalues --   -0.24598  -0.24302  -0.23994  -0.23950  -0.23717
 Alpha  occ. eigenvalues --   -0.23035  -0.22766  -0.22505  -0.22315  -0.22185
 Alpha  occ. eigenvalues --   -0.21986  -0.21701  -0.21122  -0.21029  -0.20735
 Alpha  occ. eigenvalues --   -0.20456  -0.20289  -0.19843  -0.18151  -0.17764
 Alpha  occ. eigenvalues --   -0.17506  -0.16435  -0.14607
 Alpha virt. eigenvalues --   -0.09979  -0.04673  -0.03628  -0.02437  -0.01131
 Alpha virt. eigenvalues --   -0.00720  -0.00098   0.00063   0.00141   0.00411
 Alpha virt. eigenvalues --    0.01020   0.01117   0.01322   0.02073   0.02143

 Mulliken charges:
               1
     1  C    0.061721
     2  C    0.033586
     3  O   -0.284606
     4  H    0.043125
     5  H   -0.000514
     6  H    0.038952
     7  N   -0.123136
     8  C    0.044576
     9  C    0.094543
    10  O   -0.264586
    11  C    0.078390
    12  C    0.192571
    13  O   -0.422152
    14  O   -0.462754
    15  H    0.117723
    16  H    0.018270
    17  H    0.014476
    18  H    0.008369
    19  N   -0.138348
    20  C    0.193187
    21  C    0.050239
    22  O   -0.292446
    23  C   -0.066230
    24  C    0.031080
    25  C   -0.062379
    26  C    0.010650
    27  N    0.087156
    28  H    0.148633
    29  H   -0.005976
    30  H    0.035868
    31  H    0.025007
    32  H    0.010330
    33  H    0.050421
    34  H    0.049540
    35  H    0.012989
    36  H    0.078249
    37  H    0.096673
    38  H    0.199238
    39  H    0.199784
    40  H    0.182301
    41  N   -0.169888
    42  C    0.105512
    43  C    0.073269
    44  O   -0.277294
    45  C    0.141232
    46  C    0.084294
    47  O   -0.389008
    48  O   -0.487416
    49  H    0.165474
    50  H    0.012442
    51  H   -0.054628
    52  H    0.009222
    53  N   -0.148468
    54  C    0.249498
    55  C    0.023275
    56  O   -0.292787
    57  H    0.138413
    58  H    0.008098
    59  H    0.005863
    60  N   -0.168385
    61  C    0.107394
    62  C    0.048723
    63  O   -0.295988
    64  C    0.116367
    65  C    0.091864
    66  N   -0.046120
    67  O   -0.363388
    68  H    0.140047
    69  H    0.030318
    70  H    0.072025
    71  H   -0.010573
    72  H    0.126805
    73  H    0.135014
    74  N   -0.145507
    75  C    0.201838
    76  C    0.048537
    77  O   -0.287216
    78  H    0.145456
    79  H    0.025510
    80  H    0.031960
    81  N   -0.127989
    82  C    0.125357
    83  C    0.114993
    84  O   -0.346679
    85  C    0.114340
    86  C   -0.037228
    87  C    0.015965
    88  C    0.028188
    89  C   -0.050453
    90  C   -0.049540
    91  C    0.170029
    92  O   -0.194594
    93  H    0.150828
    94  H   -0.016521
    95  H   -0.001694
    96  H   -0.016115
    97  H   -0.027316
    98  H   -0.016673
    99  H   -0.034019
   100  H   -0.043877
   101  H    0.169777
   102  N   -0.097205
   103  C    0.116777
   104  C    0.080193
   105  O   -0.288811
   106  C   -0.076802
   107  C   -0.002657
   108  C    0.012365
   109  C    0.046471
   110  H    0.133420
   111  H    0.025524
   112  H   -0.022522
   113  H   -0.006053
   114  H    0.016771
   115  H    0.001085
   116  H    0.032166
   117  H   -0.008152
   118  H    0.002059
   119  H    0.018143
   120  H    0.012516
   121  N   -0.119514
   122  C    0.086863
   123  C    0.106055
   124  O   -0.291659
   125  C    0.277714
   126  O   -0.361256
   127  H    0.156970
   128  H    0.022452
   129  H    0.009395
   130  H   -0.043961
   131  H    0.181988
   132  N   -0.122197
   133  C    0.094079
   134  C    0.063727
   135  O   -0.240218
   136  C    0.040017
   137  H    0.113923
   138  H    0.016333
   139  H    0.028423
   140  H    0.038487
   141  H    0.019980
   142  N   -0.139276
   143  C    0.103480
   144  C    0.063571
   145  O   -0.299807
   146  C    0.023703
   147  H    0.113186
   148  H    0.008693
   149  H    0.034142
   150  H    0.013843
   151  H    0.018586
   152  N   -0.168937
   153  C    0.120757
   154  C    0.095347
   155  O   -0.303585
   156  C   -0.041417
   157  C    0.137179
   158  C    0.160999
   159  O   -0.462227
   160  O   -0.387478
   161  H    0.135257
   162  H   -0.024299
   163  H    0.039950
   164  H   -0.008549
   165  H    0.012787
   166  H   -0.047733
   167  N   -0.156256
   168  C    0.143768
   169  H    0.020873
   170  H    0.018758
   171  H    0.005129
   172  H    0.121328
   173  Ca   1.284713
   174  O   -0.280287
   175  H    0.188419
   176  H    0.169405
 Sum of Mulliken charges =   0.00000

 Dipole moment (field-independent basis, Debye):
    X=             30.5393    Y=             -5.4780    Z=             -9.4039  Tot=             32.4206
 Quadrupole moment (field-independent basis, Debye-Ang):
   XX=           -415.8301   YY=           -552.1927   ZZ=           -508.1401
   XY=            141.4628   XZ=            -51.8839   YZ=             16.9864

 ESP charges:
               1
     1  C   -0.461919
     2  C    0.772665
     3  O   -0.595997
     4  H    0.133828
     5  H    0.093159
     6  H    0.144743
     7  N   -0.742087
     8  C    0.449198
     9  C    0.346930
    10  O   -0.488633
    11  C   -0.392093
    12  C    0.998132
    13  O   -0.744222
    14  O   -0.840784
    15  H    0.362084
    16  H   -0.016026
    17  H    0.079878
    18  H    0.039548
    19  N   -0.045923
    20  C   -0.335432
    21  C    0.608601
    22  O   -0.582661
    23  C    0.279553
    24  C   -0.407049
    25  C    0.303030
    26  C   -0.064493
    27  N   -0.492280
    28  H    0.108183
    29  H    0.140802
    30  H   -0.011586
    31  H   -0.006280
    32  H    0.115793
    33  H    0.100464
    34  H   -0.013668
    35  H   -0.022410
    36  H    0.106336
    37  H    0.105863
    38  H    0.377313
    39  H    0.365874
    40  H    0.357997
    41  N   -0.253268
    42  C    0.032946
    43  C    0.335078
    44  O   -0.518891
    45  C   -0.282700
    46  C    0.838564
    47  O   -0.718253
    48  O   -0.741107
    49  H    0.131801
    50  H    0.101033
    51  H    0.039833
    52  H    0.094589
    53  N    0.192588
    54  C   -0.339150
    55  C    0.751374
    56  O   -0.572520
    57  H   -0.119734
    58  H    0.107124
    59  H    0.124895
    60  N   -0.746811
    61  C    0.163206
    62  C    0.442797
    63  O   -0.536344
    64  C   -0.292473
    65  C    0.679774
    66  N   -0.793612
    67  O   -0.548454
    68  H    0.379157
    69  H    0.088441
    70  H    0.181073
    71  H    0.048908
    72  H    0.382966
    73  H    0.348046
    74  N   -0.239452
    75  C   -0.252466
    76  C    0.534058
    77  O   -0.529809
    78  H    0.264421
    79  H    0.136496
    80  H    0.131572
    81  N   -0.262200
    82  C   -0.002074
    83  C    0.569394
    84  O   -0.630605
    85  C   -0.013981
    86  C   -0.121879
    87  C    0.046429
    88  C    0.034243
    89  C   -0.425818
    90  C   -0.423041
    91  C    0.511184
    92  O   -0.578004
    93  H    0.223170
    94  H    0.033651
    95  H    0.019406
    96  H   -0.010532
    97  H    0.087197
    98  H    0.140188
    99  H    0.178593
   100  H    0.137528
   101  H    0.419266
   102  N   -0.338498
   103  C   -0.195563
   104  C    0.539263
   105  O   -0.545884
   106  C    0.161374
   107  C    0.206804
   108  C   -0.140505
   109  C   -0.375638
   110  H    0.277307
   111  H    0.151619
   112  H   -0.014932
   113  H   -0.040694
   114  H    0.004226
   115  H    0.014766
   116  H    0.020740
   117  H    0.035678
   118  H    0.078218
   119  H    0.101120
   120  H    0.087579
   121  N   -0.128924
   122  C   -0.244712
   123  C    0.562883
   124  O   -0.444435
   125  C    0.197800
   126  O   -0.634291
   127  H    0.162121
   128  H    0.109202
   129  H    0.041632
   130  H    0.016468
   131  H    0.433439
   132  N   -0.396733
   133  C    0.121183
   134  C    0.495759
   135  O   -0.516499
   136  C   -0.376141
   137  H    0.260886
   138  H    0.071652
   139  H    0.127492
   140  H    0.133338
   141  H    0.090655
   142  N   -0.390580
   143  C    0.070632
   144  C    0.374692
   145  O   -0.561944
   146  C   -0.285208
   147  H    0.298281
   148  H    0.102272
   149  H    0.085052
   150  H    0.094639
   151  H    0.081978
   152  N   -0.025909
   153  C   -0.009428
   154  C    0.464804
   155  O   -0.548639
   156  C    0.045288
   157  C   -0.311764
   158  C    0.818607
   159  O   -0.762169
   160  O   -0.722550
   161  H    0.037673
   162  H    0.008777
   163  H    0.068288
   164  H   -0.019729
   165  H    0.082796
   166  H    0.074385
   167  N   -0.088974
   168  C   -0.239719
   169  H    0.097264
   170  H    0.091209
   171  H    0.092201
   172  H    0.142097
   173  Ca   1.637868
   174  O   -0.883051
   175  H    0.442985
   176  H    0.423881
 Sum of ESP charges =   0.00000

 Normal termination of Gaussian 09 at Mon Sep 16 17:31:43 2019.
