 Gaussian 16, Revision A.03,
 Gaussian 16:  ES64L-G16RevA.03 25-Dec-2016

 ----------------------------------------------------------------------
 #b3lyp/svp scf=(tight,noincore) Test #IOP(5/87=12) Density=Current Pop
 =(MK,readradii) iop(6/33=2) iop(6/42=6)
 ----------------------------------------------------------------------

 -----------------
 CaMKII_loop3_87.0
 -----------------
 Symbolic Z-matrix:
 Charge =  0 Multiplicity = 1

                         Standard orientation:
 ---------------------------------------------------------------------
 Center     Atomic      Atomic             Coordinates (Angstroms)
 Number     Number       Type             X           Y           Z
 ---------------------------------------------------------------------
      1          6           0        2.212759    0.682436    5.690447
      2          6           0        1.579932    0.700230    4.305523
      3          8           0        2.416736    0.695196    3.403783
      4          1           0        3.271554    0.439824    5.602001
      5          1           0        2.102181    1.662977    6.153999
      6          1           0        1.719032   -0.068957    6.306866
      7          7           0        0.287161    0.942505    4.096133
      8          6           0       -0.363730    1.277341    2.834735
      9          6           0       -0.163528    2.742010    2.515417
     10          8           0       -0.534759    3.707830    3.178348
     11          6           0       -1.849612    0.923142    2.835170
     12          6           0       -2.639403    1.249202    1.579218
     13          8           0       -2.087654    1.660028    0.540712
     14          8           0       -3.872316    1.113468    1.718146
     15          1           0       -0.308950    1.084224    4.893546
     16          1           0        0.146156    0.644237    2.112865
     17          1           0       -2.358993    1.481075    3.614041
     18          1           0       -1.962631   -0.154217    2.990811
     19          7           0        0.617836    2.999576    1.467500
     20          6           0        1.103758    4.337673    1.180484
     21          6           0        0.023959    5.258661    0.629200
     22          8           0        0.062827    6.400789    1.073648
     23          6           0        2.303802    4.193606    0.248315
     24          6           0        2.960497    5.530917   -0.109667
     25          6           0        4.177780    5.260672   -0.989092
     26          6           0        4.989885    6.532605   -1.197832
     27          7           0        6.071764    6.323221   -2.164216
     28          1           0        0.940594    2.181113    0.962481
     29          1           0        1.474850    4.760334    2.108250
     30          1           0        2.004277    3.746540   -0.692969
     31          1           0        3.064592    3.495422    0.587488
     32          1           0        3.313487    6.044993    0.779166
     33          1           0        2.215715    6.108615   -0.656991
     34          1           0        3.827238    4.862448   -1.940952
     35          1           0        4.828227    4.491887   -0.566614
     36          1           0        5.447460    6.850816   -0.252440
     37          1           0        4.496567    7.380734   -1.671449
     38          1           0        6.554302    7.180950   -2.393470
     39          1           0        6.785539    5.668344   -1.871021
     40          1           0        5.641562    6.000959   -3.023968
     41          7           0       -0.859039    4.780521   -0.260180
     42          6           0       -1.872542    5.584208   -0.907094
     43          6           0       -3.251580    5.473978   -0.285883
     44          8           0       -4.128452    6.309460   -0.518405
     45          6           0       -1.932657    5.325786   -2.415738
     46          6           0       -2.137646    3.895482   -2.879105
     47          8           0       -1.419445    2.928498   -2.516849
     48          8           0       -3.148420    3.750595   -3.589276
     49          1           0       -0.702679    3.818503   -0.521470
     50          1           0       -1.720146    6.664066   -0.844004
     51          1           0       -0.997293    5.674107   -2.841844
     52          1           0       -2.568917    6.043397   -2.944423
     53          7           0       -3.481763    4.522314    0.627764
     54          6           0       -4.776639    4.353767    1.245006
     55          6           0       -5.809248    3.513296    0.491396
     56          8           0       -6.972716    3.891025    0.529661
     57          1           0       -2.714161    3.969187    0.970454
     58          1           0       -5.268728    5.317706    1.338122
     59          1           0       -4.695226    4.092857    2.294910
     60          7           0       -5.427053    2.403545   -0.142148
     61          6           0       -6.245606    1.576591   -1.014913
     62          6           0       -6.876341    0.368208   -0.338021
     63          8           0       -7.847627   -0.184910   -0.864105
     64          6           0       -5.448848    1.256618   -2.270219
     65          6           0       -4.762821   -0.100009   -2.181171
     66          7           0       -5.079464   -1.005171   -3.103624
     67          8           0       -3.776040   -0.216963   -1.458202
     68          1           0       -4.485690    2.092787    0.046708
     69          1           0       -7.086048    2.154040   -1.395057
     70          1           0       -4.696778    1.969389   -2.615831
     71          1           0       -6.084393    1.227988   -3.156708
     72          1           0       -5.769897   -0.794289   -3.810611
     73          1           0       -4.376106   -1.707013   -3.298575
     74          7           0       -6.262231   -0.038379    0.769434
     75          6           0       -6.607210   -1.147709    1.641086
     76          6           0       -5.524366   -2.213161    1.633424
     77          8           0       -5.691439   -3.293912    2.204357
     78          1           0       -5.501095    0.513024    1.147754
     79          1           0       -7.452460   -1.710213    1.229574
     80          1           0       -6.846875   -0.694211    2.593872
     81          7           0       -4.387397   -2.025667    0.967130
     82          6           0       -3.340663   -2.971933    0.634520
     83          6           0       -1.920308   -2.425179    0.723688
     84          8           0       -1.550633   -1.360549    0.226191
     85          6           0       -3.488731   -3.692918   -0.704418
     86          6           0       -4.798728   -4.440963   -0.837212
     87          6           0       -4.684807   -5.833732   -0.708306
     88          6           0       -6.042095   -3.883180   -1.132709
     89          6           0       -5.774877   -6.689372   -0.895465
     90          6           0       -7.168175   -4.712165   -1.240539
     91          6           0       -7.035840   -6.115344   -1.172892
     92          8           0       -8.172249   -6.811933   -1.404273
     93          1           0       -4.334434   -1.160382    0.462178
     94          1           0       -3.379305   -3.778451    1.360699
     95          1           0       -2.612101   -4.325959   -0.831226
     96          1           0       -3.468822   -2.881799   -1.441907
     97          1           0       -3.716113   -6.275819   -0.529727
     98          1           0       -6.080298   -2.803803   -1.249262
     99          1           0       -5.568268   -7.752331   -0.900853
    100          1           0       -8.142961   -4.270461   -1.391501
    101          1           0       -8.895931   -6.232885   -1.650013
    102          7           0       -1.032792   -3.288898    1.218869
    103          6           0        0.392259   -3.002176    1.247529
    104          6           0        1.104753   -3.871251    0.226715
    105          8           0        1.004152   -5.098241    0.274393
    106          6           0        0.926343   -3.246037    2.650984
    107          6           0        0.059791   -2.901551    3.855026
    108          6           0        2.361660   -2.750399    2.800676
    109          6           0        0.477691   -3.760191    5.050517
    110          1           0       -1.328549   -4.123243    1.714143
    111          1           0        0.652273   -1.967600    1.007852
    112          1           0        1.056342   -4.331191    2.657355
    113          1           0       -1.027270   -3.016516    3.707780
    114          1           0        0.112482   -1.845337    4.091320
    115          1           0        2.769109   -2.892368    3.801041
    116          1           0        3.031360   -3.315552    2.151211
    117          1           0        2.369742   -1.685458    2.592748
    118          1           0       -0.135291   -4.666668    5.069277
    119          1           0        1.540987   -3.982269    4.985074
    120          1           0        0.299718   -3.204453    5.960396
    121          7           0        1.857592   -3.227882   -0.670062
    122          6           0        2.863379   -3.806523   -1.528005
    123          6           0        4.297758   -3.553898   -1.077740
    124          8           0        4.611946   -2.689392   -0.265019
    125          6           0        2.635413   -3.381344   -2.984526
    126          8           0        3.172172   -2.086305   -3.072641
    127          1           0        1.731460   -2.235050   -0.799971
    128          1           0        2.709211   -4.886490   -1.526312
    129          1           0        1.597717   -3.308080   -3.313797
    130          1           0        3.225916   -4.072982   -3.580800
    131          1           0        2.611810   -1.398559   -2.687024
    132          7           0        5.263414   -4.337529   -1.563569
    133          6           0        6.599600   -4.357213   -1.008394
    134          6           0        7.299675   -2.999783   -0.943749
    135          8           0        7.851956   -2.652444    0.095357
    136          6           0        7.384857   -5.458859   -1.704991
    137          1           0        5.045746   -5.045521   -2.251442
    138          1           0        6.404216   -4.710817   -0.006351
    139          1           0        6.855082   -6.417929   -1.668606
    140          1           0        7.523416   -5.276614   -2.779881
    141          1           0        8.243693   -5.554975   -1.053406
    142          7           0        7.311852   -2.247023   -2.045839
    143          6           0        7.874617   -0.915628   -2.091504
    144          6           0        7.214770    0.014622   -1.079953
    145          8           0        7.854672    0.969106   -0.628638
    146          6           0        7.600811   -0.308221   -3.468706
    147          1           0        6.827093   -2.619008   -2.853141
    148          1           0        8.947265   -0.795787   -1.918402
    149          1           0        8.101515   -0.970829   -4.178528
    150          1           0        6.559114   -0.229423   -3.762574
    151          1           0        7.912706    0.735431   -3.472320
    152          7           0        5.984640   -0.248190   -0.652505
    153          6           0        5.326439    0.520185    0.378887
    154          6           0        5.843113    0.211589    1.784844
    155          8           0        5.882086    1.162836    2.567027
    156          6           0        3.809170    0.447464    0.289404
    157          6           0        3.195151    0.790408   -1.065132
    158          6           0        1.726684    0.402596   -1.133740
    159          8           0        1.352626   -0.610308   -1.766200
    160          8           0        0.862013    1.134760   -0.597382
    161          1           0        5.439067   -0.936392   -1.151733
    162          1           0        5.662520    1.548001    0.213829
    163          1           0        3.391938    1.207903    0.953821
    164          1           0        3.465269   -0.551914    0.576241
    165          1           0        3.731586    0.222615   -1.830931
    166          1           0        3.286847    1.866426   -1.124111
    167          7           0        6.336492   -1.001006    2.021680
    168          6           0        6.939780   -1.350418    3.294101
    169          1           0        8.007646   -1.519568    3.155087
    170          1           0        6.790645   -0.536593    4.003915
    171          1           0        6.476484   -2.258410    3.679703
    172          1           0        6.302236   -1.714766    1.301769
    173         20           0       -1.253584    0.480388   -1.753863
    174          8           0        0.058101    0.493713   -3.991698
    175          1           0        0.804814    0.112772   -4.455058
    176          1           0       -0.410150    0.990529   -4.667431
 ---------------------------------------------------------------------

 SCF Done:  E(RB3LYP) =  -5333.58136039     A.U. after   20 cycles

 The electronic state is 1-A.
 Alpha  occ. eigenvalues -- -145.39354 -19.19590 -19.15057 -19.13325 -19.13126
 Alpha  occ. eigenvalues --  -19.13101 -19.12050 -19.11997 -19.11934 -19.10347
 Alpha  occ. eigenvalues --  -19.10225 -19.09500 -19.07065 -19.06409 -19.06194
 Alpha  occ. eigenvalues --  -19.06159 -19.05898 -19.05863 -19.04901 -19.04866
 Alpha  occ. eigenvalues --  -19.03756 -19.03501 -19.03196 -19.01630 -15.45116
 Alpha  occ. eigenvalues --  -14.58628 -14.39138 -14.38700 -14.38195 -14.37015
 Alpha  occ. eigenvalues --  -14.35745 -14.34965 -14.34020 -14.32767 -14.32473
 Alpha  occ. eigenvalues --  -14.32114 -14.31531 -14.30599 -14.29641 -14.29168
 Alpha  occ. eigenvalues --  -12.58722 -12.58698 -12.58673 -10.35101 -10.31713
 Alpha  occ. eigenvalues --  -10.31129 -10.31000 -10.30108 -10.29888 -10.28688
 Alpha  occ. eigenvalues --  -10.28257 -10.27147 -10.26461 -10.26313 -10.26307
 Alpha  occ. eigenvalues --  -10.25677 -10.25617 -10.25202 -10.25135 -10.25097
 Alpha  occ. eigenvalues --  -10.24908 -10.24259 -10.24178 -10.23961 -10.23083
 Alpha  occ. eigenvalues --  -10.23028 -10.22821 -10.22531 -10.22498 -10.22483
 Alpha  occ. eigenvalues --  -10.22233 -10.22081 -10.21827 -10.20825 -10.20603
 Alpha  occ. eigenvalues --  -10.20372 -10.20282 -10.19971 -10.19642 -10.19580
 Alpha  occ. eigenvalues --  -10.19573 -10.19482 -10.18517 -10.18439 -10.18435
 Alpha  occ. eigenvalues --  -10.18050 -10.17958 -10.17924 -10.17884 -10.17748
 Alpha  occ. eigenvalues --  -10.17545 -10.17368 -10.16994 -10.16488 -10.16229
 Alpha  occ. eigenvalues --  -10.15648 -10.14625  -1.81928  -1.14138  -1.09701
 Alpha  occ. eigenvalues --   -1.09327  -1.09217  -1.07080  -1.06202  -1.05798
 Alpha  occ. eigenvalues --   -1.05373  -1.05185  -1.04712  -1.04244  -1.02957
 Alpha  occ. eigenvalues --   -1.02550  -1.02092  -1.00539  -0.99697  -0.99653
 Alpha  occ. eigenvalues --   -0.99123  -0.98990  -0.98739  -0.98644  -0.97657
 Alpha  occ. eigenvalues --   -0.96888  -0.96169  -0.96128  -0.95616  -0.95061
 Alpha  occ. eigenvalues --   -0.93527  -0.93165  -0.92819  -0.91900  -0.90333
 Alpha  occ. eigenvalues --   -0.90169  -0.89549  -0.89311  -0.88711  -0.88693
 Alpha  occ. eigenvalues --   -0.88546  -0.87807  -0.87602  -0.86672  -0.85354
 Alpha  occ. eigenvalues --   -0.83753  -0.82343  -0.81486  -0.81183  -0.80122
 Alpha  occ. eigenvalues --   -0.79118  -0.78334  -0.77584  -0.76532  -0.76345
 Alpha  occ. eigenvalues --   -0.74879  -0.74367  -0.73945  -0.73419  -0.73175
 Alpha  occ. eigenvalues --   -0.72907  -0.72545  -0.71963  -0.70906  -0.70517
 Alpha  occ. eigenvalues --   -0.69759  -0.69272  -0.68109  -0.67970  -0.67518
 Alpha  occ. eigenvalues --   -0.67201  -0.66366  -0.65360  -0.64706  -0.64037
 Alpha  occ. eigenvalues --   -0.63561  -0.63126  -0.62485  -0.62242  -0.61691
 Alpha  occ. eigenvalues --   -0.61162  -0.61141  -0.60901  -0.60554  -0.59983
 Alpha  occ. eigenvalues --   -0.59846  -0.59447  -0.58634  -0.58389  -0.58004
 Alpha  occ. eigenvalues --   -0.57605  -0.57212  -0.56787  -0.56261  -0.56181
 Alpha  occ. eigenvalues --   -0.55991  -0.55773  -0.55676  -0.55482  -0.54969
 Alpha  occ. eigenvalues --   -0.54491  -0.54305  -0.54124  -0.53819  -0.53325
 Alpha  occ. eigenvalues --   -0.53204  -0.52889  -0.52222  -0.52080  -0.51439
 Alpha  occ. eigenvalues --   -0.51198  -0.51117  -0.50708  -0.49939  -0.49839
 Alpha  occ. eigenvalues --   -0.49715  -0.49543  -0.49327  -0.49097  -0.48689
 Alpha  occ. eigenvalues --   -0.48583  -0.48545  -0.48036  -0.47949  -0.47827
 Alpha  occ. eigenvalues --   -0.47753  -0.47497  -0.47413  -0.46971  -0.46638
 Alpha  occ. eigenvalues --   -0.46609  -0.46287  -0.45859  -0.45764  -0.45627
 Alpha  occ. eigenvalues --   -0.45451  -0.45098  -0.44854  -0.44809  -0.44748
 Alpha  occ. eigenvalues --   -0.44722  -0.44403  -0.44324  -0.44114  -0.43998
 Alpha  occ. eigenvalues --   -0.43838  -0.43766  -0.43647  -0.43441  -0.43128
 Alpha  occ. eigenvalues --   -0.42964  -0.42891  -0.42626  -0.42519  -0.42437
 Alpha  occ. eigenvalues --   -0.42332  -0.41922  -0.41825  -0.41729  -0.41626
 Alpha  occ. eigenvalues --   -0.41568  -0.41416  -0.41176  -0.41148  -0.40920
 Alpha  occ. eigenvalues --   -0.40877  -0.40522  -0.40505  -0.40165  -0.39999
 Alpha  occ. eigenvalues --   -0.39749  -0.39609  -0.39419  -0.39276  -0.39176
 Alpha  occ. eigenvalues --   -0.39119  -0.38870  -0.38671  -0.38513  -0.38439
 Alpha  occ. eigenvalues --   -0.38318  -0.38186  -0.37953  -0.37899  -0.37754
 Alpha  occ. eigenvalues --   -0.37627  -0.37560  -0.37331  -0.37158  -0.37017
 Alpha  occ. eigenvalues --   -0.36906  -0.36548  -0.36486  -0.36407  -0.36395
 Alpha  occ. eigenvalues --   -0.36239  -0.35873  -0.35852  -0.35614  -0.35406
 Alpha  occ. eigenvalues --   -0.35251  -0.35006  -0.34850  -0.34735  -0.34485
 Alpha  occ. eigenvalues --   -0.34385  -0.34277  -0.34114  -0.33994  -0.33579
 Alpha  occ. eigenvalues --   -0.33573  -0.33342  -0.33155  -0.33130  -0.32786
 Alpha  occ. eigenvalues --   -0.32591  -0.32547  -0.32238  -0.31898  -0.31323
 Alpha  occ. eigenvalues --   -0.31145  -0.30953  -0.30672  -0.30541  -0.30008
 Alpha  occ. eigenvalues --   -0.29765  -0.29662  -0.29393  -0.29108  -0.28616
 Alpha  occ. eigenvalues --   -0.28364  -0.28199  -0.27640  -0.27290  -0.27014
 Alpha  occ. eigenvalues --   -0.26443  -0.26304  -0.25535  -0.25290  -0.25174
 Alpha  occ. eigenvalues --   -0.24609  -0.24499  -0.24212  -0.23814  -0.23594
 Alpha  occ. eigenvalues --   -0.23578  -0.22729  -0.22527  -0.22490  -0.22030
 Alpha  occ. eigenvalues --   -0.21940  -0.21667  -0.21537  -0.21318  -0.21144
 Alpha  occ. eigenvalues --   -0.20887  -0.20773  -0.20666  -0.20395  -0.19259
 Alpha  occ. eigenvalues --   -0.19132  -0.18209  -0.17462
 Alpha virt. eigenvalues --   -0.10904  -0.04938  -0.04395  -0.04134  -0.01928
 Alpha virt. eigenvalues --   -0.01258  -0.01088  -0.00686  -0.00601  -0.00448
 Alpha virt. eigenvalues --    0.00100   0.00581   0.01075   0.01298   0.01812

 Mulliken charges:
               1
     1  C    0.058298
     2  C    0.030551
     3  O   -0.290852
     4  H    0.039440
     5  H    0.037965
     6  H    0.002955
     7  N   -0.117522
     8  C    0.132146
     9  C    0.067153
    10  O   -0.291120
    11  C    0.066040
    12  C    0.170296
    13  O   -0.447368
    14  O   -0.410817
    15  H    0.113904
    16  H   -0.004373
    17  H    0.015281
    18  H    0.011603
    19  N   -0.147322
    20  C    0.216717
    21  C    0.037157
    22  O   -0.281068
    23  C   -0.047915
    24  C    0.044130
    25  C   -0.058311
    26  C    0.049976
    27  N    0.071418
    28  H    0.146514
    29  H   -0.000145
    30  H    0.009870
    31  H    0.018855
    32  H    0.017261
    33  H    0.038257
    34  H    0.013240
    35  H    0.041171
    36  H    0.082737
    37  H    0.058816
    38  H    0.184847
    39  H    0.197036
    40  H    0.188041
    41  N   -0.135489
    42  C    0.142279
    43  C    0.057757
    44  O   -0.284476
    45  C    0.096583
    46  C    0.111288
    47  O   -0.484818
    48  O   -0.354104
    49  H    0.148700
    50  H    0.009419
    51  H   -0.049677
    52  H    0.003328
    53  N   -0.153002
    54  C    0.214173
    55  C    0.031159
    56  O   -0.285744
    57  H    0.143093
    58  H    0.011223
    59  H    0.020962
    60  N   -0.141680
    61  C    0.152022
    62  C    0.053364
    63  O   -0.296272
    64  C    0.114603
    65  C    0.003428
    66  N   -0.010760
    67  O   -0.362812
    68  H    0.132677
    69  H    0.024934
    70  H    0.064255
    71  H   -0.024067
    72  H    0.142798
    73  H    0.126041
    74  N   -0.203298
    75  C    0.255945
    76  C   -0.003530
    77  O   -0.301941
    78  H    0.153180
    79  H    0.038507
    80  H    0.048108
    81  N   -0.133145
    82  C    0.129237
    83  C    0.146781
    84  O   -0.351329
    85  C    0.151812
    86  C    0.000776
    87  C   -0.028302
    88  C    0.013743
    89  C   -0.032429
    90  C   -0.043084
    91  C    0.190091
    92  O   -0.186159
    93  H    0.151636
    94  H   -0.022422
    95  H   -0.008992
    96  H   -0.059152
    97  H   -0.038397
    98  H   -0.034575
    99  H   -0.031081
   100  H   -0.032524
   101  H    0.172974
   102  N   -0.121829
   103  C    0.149633
   104  C    0.071078
   105  O   -0.285479
   106  C   -0.132140
   107  C    0.022831
   108  C    0.038070
   109  C    0.033581
   110  H    0.144550
   111  H    0.011950
   112  H   -0.015771
   113  H   -0.012692
   114  H   -0.007109
   115  H   -0.003821
   116  H    0.008764
   117  H    0.048831
   118  H    0.012791
   119  H    0.009962
   120  H    0.000757
   121  N   -0.127203
   122  C    0.052264
   123  C    0.125490
   124  O   -0.285421
   125  C    0.282550
   126  O   -0.378346
   127  H    0.130518
   128  H    0.008268
   129  H    0.011305
   130  H   -0.022600
   131  H    0.173484
   132  N   -0.131123
   133  C    0.084592
   134  C    0.079562
   135  O   -0.268328
   136  C    0.037522
   137  H    0.110937
   138  H    0.009981
   139  H    0.024015
   140  H    0.016281
   141  H    0.046012
   142  N   -0.116737
   143  C    0.125518
   144  C    0.021852
   145  O   -0.295854
   146  C    0.026879
   147  H    0.115489
   148  H    0.023905
   149  H    0.021987
   150  H    0.008246
   151  H    0.015392
   152  N   -0.137795
   153  C    0.144846
   154  C    0.085733
   155  O   -0.295244
   156  C   -0.046228
   157  C    0.123346
   158  C    0.183512
   159  O   -0.449183
   160  O   -0.425797
   161  H    0.132100
   162  H   -0.030949
   163  H    0.057275
   164  H    0.025226
   165  H   -0.034816
   166  H   -0.039952
   167  N   -0.157759
   168  C    0.129835
   169  H    0.020678
   170  H    0.037180
   171  H    0.008731
   172  H    0.144177
   173  Ca   1.322666
   174  O   -0.297321
   175  H    0.183517
   176  H    0.187353
 Sum of Mulliken charges =  -0.00000

 Dipole moment (field-independent basis, Debye):
    X=             34.5849    Y=             -0.6109    Z=            -21.4057  Tot=             40.6779
 Quadrupole moment (field-independent basis, Debye-Ang):
   XX=           -568.9393   YY=           -511.5574   ZZ=           -498.1628
   XY=            165.0017   XZ=            -76.3832   YZ=            -33.6596

 ESP charges:
               1
     1  C   -0.435815
     2  C    0.913316
     3  O   -0.648363
     4  H    0.137426
     5  H    0.113792
     6  H    0.072646
     7  N   -0.794410
     8  C    0.352471
     9  C    0.405023
    10  O   -0.544326
    11  C   -0.385755
    12  C    0.829928
    13  O   -0.637311
    14  O   -0.672344
    15  H    0.349398
    16  H    0.095516
    17  H    0.097245
    18  H    0.069006
    19  N    0.105424
    20  C   -0.627287
    21  C    0.868485
    22  O   -0.594377
    23  C    0.436782
    24  C   -0.447040
    25  C    0.166868
    26  C    0.068069
    27  N   -0.407984
    28  H   -0.088565
    29  H    0.199497
    30  H    0.019512
    31  H   -0.015083
    32  H    0.113175
    33  H    0.108403
    34  H   -0.010530
    35  H    0.000670
    36  H    0.085999
    37  H    0.073688
    38  H    0.338297
    39  H    0.337337
    40  H    0.321228
    41  N   -0.670480
    42  C    0.116742
    43  C    0.448059
    44  O   -0.540409
    45  C   -0.092259
    46  C    0.714949
    47  O   -0.795381
    48  O   -0.666282
    49  H    0.289625
    50  H    0.066584
    51  H    0.011387
    52  H    0.048925
    53  N   -0.183154
    54  C   -0.138863
    55  C    0.557620
    56  O   -0.570253
    57  H    0.198797
    58  H    0.096524
    59  H    0.090783
    60  N   -0.141237
    61  C   -0.268711
    62  C    0.457062
    63  O   -0.556347
    64  C    0.311988
    65  C    0.305680
    66  N   -0.790593
    67  O   -0.425829
    68  H   -0.034544
    69  H    0.149032
    70  H   -0.003162
    71  H   -0.029250
    72  H    0.401870
    73  H    0.388511
    74  N   -0.004307
    75  C   -0.464128
    76  C    0.787568
    77  O   -0.580294
    78  H    0.153789
    79  H    0.172971
    80  H    0.172393
    81  N   -0.995531
    82  C    0.736517
    83  C    0.448167
    84  O   -0.684843
    85  C   -0.085768
    86  C    0.048266
    87  C   -0.220882
    88  C   -0.176487
    89  C   -0.189053
    90  C   -0.290700
    91  C    0.382466
    92  O   -0.554898
    93  H    0.573737
    94  H   -0.052572
    95  H    0.024688
    96  H   -0.078863
    97  H    0.134321
    98  H    0.176042
    99  H    0.138544
   100  H    0.144788
   101  H    0.408725
   102  N   -0.677227
   103  C    0.227662
   104  C    0.607258
   105  O   -0.565005
   106  C    0.057605
   107  C    0.333616
   108  C   -0.169067
   109  C   -0.401512
   110  H    0.307276
   111  H    0.078157
   112  H   -0.035868
   113  H   -0.039587
   114  H   -0.077369
   115  H    0.073368
   116  H    0.049805
   117  H   -0.061610
   118  H    0.084959
   119  H    0.085138
   120  H    0.090099
   121  N   -0.376461
   122  C   -0.080644
   123  C    0.736722
   124  O   -0.550911
   125  C    0.213952
   126  O   -0.682887
   127  H    0.180420
   128  H    0.039944
   129  H    0.030780
   130  H    0.015023
   131  H    0.450418
   132  N   -0.620774
   133  C    0.246439
   134  C    0.515899
   135  O   -0.522501
   136  C   -0.399755
   137  H    0.332615
   138  H    0.065113
   139  H    0.121366
   140  H    0.103062
   141  H    0.122559
   142  N   -0.581196
   143  C    0.367509
   144  C    0.243898
   145  O   -0.524597
   146  C   -0.429325
   147  H    0.325796
   148  H    0.048205
   149  H    0.101087
   150  H    0.113715
   151  H    0.113952
   152  N    0.139405
   153  C   -0.644120
   154  C    0.668162
   155  O   -0.568886
   156  C    0.453519
   157  C   -0.076889
   158  C    0.660532
   159  O   -0.608746
   160  O   -0.660909
   161  H    0.092630
   162  H    0.173431
   163  H    0.021308
   164  H   -0.093021
   165  H   -0.060173
   166  H   -0.061665
   167  N   -0.161414
   168  C   -0.222488
   169  H    0.095060
   170  H    0.102905
   171  H    0.077182
   172  H    0.187924
   173  Ca   1.555098
   174  O   -0.842329
   175  H    0.420347
   176  H    0.423970
 Sum of ESP charges =   0.00000

 Normal termination of Gaussian 16 at Sun Sep 15 01:07:24 2019.
