 Gaussian 16, Revision A.03,
 Gaussian 16:  ES64L-G16RevA.03 25-Dec-2016

 ----------------------------------------------------------------------
 #b3lyp/svp scf=(tight,noincore) Test #IOP(5/87=12) Density=Current Pop
 =(MK,readradii) iop(6/33=2) iop(6/42=6)
 ----------------------------------------------------------------------

 -----------------
 CaMKII_loop3_74.0
 -----------------
 Symbolic Z-matrix:
 Charge =  0 Multiplicity = 1

                         Standard orientation:
 ---------------------------------------------------------------------
 Center     Atomic      Atomic             Coordinates (Angstroms)
 Number     Number       Type             X           Y           Z
 ---------------------------------------------------------------------
      1          6           0        2.358685    3.477945    4.624440
      2          6           0        1.612289    3.134342    3.347439
      3          8           0        2.253012    2.750246    2.364310
      4          1           0        3.376237    3.090649    4.565779
      5          1           0        2.388916    4.561090    4.748124
      6          1           0        1.848827    3.028061    5.475784
      7          7           0        0.276122    3.059469    3.340263
      8          6           0       -0.460283    2.490161    2.237496
      9          6           0       -0.906946    3.695691    1.422825
     10          8           0       -1.650624    4.592797    1.828095
     11          6           0       -1.736497    1.832470    2.750060
     12          6           0       -2.542921    1.180275    1.642079
     13          8           0       -3.708878    0.811715    1.908174
     14          8           0       -2.156961    1.028165    0.469007
     15          1           0       -0.226793    3.365012    4.162650
     16          1           0        0.241212    1.839497    1.722286
     17          1           0       -2.341850    2.479784    3.389147
     18          1           0       -1.401145    1.084414    3.464099
     19          7           0       -0.310637    3.830320    0.231485
     20          6           0       -0.223193    5.103914   -0.437252
     21          6           0       -1.329806    5.364815   -1.442557
     22          8           0       -1.794143    6.509693   -1.496828
     23          6           0        1.097726    5.228681   -1.191048
     24          6           0        2.382600    5.028478   -0.399142
     25          6           0        2.549797    5.978439    0.781120
     26          6           0        4.034390    6.027328    1.126075
     27          7           0        4.303046    7.165189    2.022789
     28          1           0        0.184569    3.021381   -0.118214
     29          1           0       -0.249713    5.967738    0.225851
     30          1           0        1.216237    6.142131   -1.768511
     31          1           0        1.040658    4.380142   -1.876048
     32          1           0        3.188638    5.276129   -1.101974
     33          1           0        2.505475    4.019188   -0.024529
     34          1           0        2.019537    5.566376    1.640846
     35          1           0        2.224550    7.002581    0.586575
     36          1           0        4.651242    6.138554    0.241868
     37          1           0        4.286637    5.048605    1.521389
     38          1           0        5.294278    7.323345    2.135245
     39          1           0        3.886343    8.030531    1.687466
     40          1           0        3.838118    6.998162    2.904630
     41          7           0       -1.800262    4.332886   -2.157185
     42          6           0       -3.080221    4.289025   -2.836803
     43          6           0       -4.205829    4.036767   -1.835218
     44          8           0       -5.356984    4.306678   -2.193812
     45          6           0       -3.081595    3.373009   -4.060083
     46          6           0       -2.631065    1.958808   -3.739215
     47          8           0       -2.156689    1.262595   -4.661416
     48          8           0       -2.866137    1.483854   -2.602526
     49          1           0       -1.298513    3.462974   -2.085767
     50          1           0       -3.170903    5.277578   -3.275710
     51          1           0       -2.486613    3.789190   -4.876287
     52          1           0       -4.064412    3.262980   -4.513586
     53          7           0       -3.885888    3.569945   -0.628563
     54          6           0       -4.888299    3.477255    0.420570
     55          6           0       -5.888679    2.348582    0.209054
     56          8           0       -7.001891    2.437571    0.721051
     57          1           0       -2.917552    3.641474   -0.365869
     58          1           0       -5.463487    4.399168    0.451146
     59          1           0       -4.399115    3.231497    1.363810
     60          7           0       -5.627865    1.253845   -0.504897
     61          6           0       -6.535597    0.226763   -0.967203
     62          6           0       -6.847434   -0.809766    0.116201
     63          8           0       -7.830661   -1.534791    0.066160
     64          6           0       -6.095233   -0.400050   -2.286553
     65          6           0       -4.941301   -1.390208   -2.176427
     66          7           0       -5.186122   -2.604341   -2.660207
     67          8           0       -3.883647   -1.067175   -1.645279
     68          1           0       -4.697037    1.177706   -0.900828
     69          1           0       -7.499312    0.711708   -1.123988
     70          1           0       -5.801575    0.410138   -2.960764
     71          1           0       -7.009874   -0.813018   -2.713976
     72          1           0       -6.050218   -2.833931   -3.152576
     73          1           0       -4.662499   -3.404923   -2.354451
     74          7           0       -6.020067   -0.906283    1.165081
     75          6           0       -6.282487   -1.582232    2.412009
     76          6           0       -5.067113   -2.283442    2.991638
     77          8           0       -5.085332   -2.734746    4.139067
     78          1           0       -5.238256   -0.269104    1.173713
     79          1           0       -6.965819   -2.419816    2.252911
     80          1           0       -6.622289   -0.919113    3.203847
     81          7           0       -3.984170   -2.377406    2.217232
     82          6           0       -2.763738   -3.097614    2.513112
     83          6           0       -1.471442   -2.435370    2.038240
     84          8           0       -1.342082   -2.045029    0.885244
     85          6           0       -2.918625   -4.530538    2.017391
     86          6           0       -3.360049   -4.646334    0.580089
     87          6           0       -4.718869   -4.634944    0.253781
     88          6           0       -2.336505   -5.017498   -0.302632
     89          6           0       -5.111912   -4.961424   -1.054015
     90          6           0       -2.734222   -5.518756   -1.550174
     91          6           0       -4.105990   -5.505205   -1.871219
     92          8           0       -4.516289   -5.988555   -3.081066
     93          1           0       -4.049424   -1.925636    1.320267
     94          1           0       -2.643529   -3.206872    3.594645
     95          1           0       -3.692322   -5.038191    2.602524
     96          1           0       -1.995154   -5.079402    2.196417
     97          1           0       -5.494951   -4.436446    0.980138
     98          1           0       -1.288789   -4.850453   -0.111879
     99          1           0       -6.159748   -4.919047   -1.331039
    100          1           0       -1.906625   -5.921224   -2.104071
    101          1           0       -3.866079   -6.195158   -3.752737
    102          7           0       -0.437724   -2.575624    2.871699
    103          6           0        0.969555   -2.422898    2.565854
    104          6           0        1.451743   -3.454227    1.553454
    105          8           0        0.994317   -4.600694    1.544879
    106          6           0        1.813170   -2.394763    3.831525
    107          6           0        1.198946   -1.579467    4.968812
    108          6           0        3.253982   -1.990359    3.504845
    109          6           0        1.905512   -1.471127    6.320414
    110          1           0       -0.672362   -3.109439    3.691631
    111          1           0        1.023596   -1.430720    2.120474
    112          1           0        1.892958   -3.436608    4.151514
    113          1           0        0.167392   -1.906614    5.111534
    114          1           0        1.222384   -0.585578    4.504446
    115          1           0        3.742931   -2.827648    2.999399
    116          1           0        3.265780   -1.066337    2.926535
    117          1           0        3.785082   -1.711867    4.411970
    118          1           0        2.762150   -0.800625    6.290440
    119          1           0        1.247746   -1.041165    7.071798
    120          1           0        2.232685   -2.468702    6.603788
    121          7           0        2.391476   -3.031900    0.708799
    122          6           0        3.185173   -3.754071   -0.272228
    123          6           0        4.629809   -3.266691   -0.281575
    124          8           0        4.970154   -2.154501    0.118046
    125          6           0        2.431480   -3.664068   -1.593192
    126          8           0        2.472197   -2.348550   -2.109094
    127          1           0        2.641811   -2.052873    0.751677
    128          1           0        3.153160   -4.788781    0.054806
    129          1           0        1.432667   -4.085631   -1.559160
    130          1           0        3.114710   -4.234093   -2.224436
    131          1           0        1.973949   -1.725903   -1.576402
    132          7           0        5.533247   -4.067949   -0.846186
    133          6           0        6.957270   -3.804563   -0.700285
    134          6           0        7.392713   -2.585205   -1.497690
    135          8           0        8.283995   -1.900431   -0.992318
    136          6           0        7.782379   -4.983611   -1.188486
    137          1           0        5.175090   -4.798999   -1.446093
    138          1           0        7.309099   -3.671266    0.319445
    139          1           0        8.724535   -5.088165   -0.651914
    140          1           0        7.267578   -5.863998   -0.801448
    141          1           0        7.928005   -5.000150   -2.267430
    142          7           0        6.690705   -2.257066   -2.580284
    143          6           0        6.949597   -1.004847   -3.274490
    144          6           0        6.614566    0.297486   -2.543339
    145          8           0        7.106180    1.375173   -2.859419
    146          6           0        6.267437   -1.150658   -4.626673
    147          1           0        6.006973   -2.938229   -2.861581
    148          1           0        8.022130   -1.098894   -3.447489
    149          1           0        5.183594   -1.260567   -4.511762
    150          1           0        6.419701   -0.247127   -5.212032
    151          1           0        6.740376   -2.014832   -5.103468
    152          7           0        5.725910    0.194383   -1.552098
    153          6           0        5.277781    1.238950   -0.651342
    154          6           0        6.293811    1.322693    0.483634
    155          8           0        6.843264    2.397034    0.748195
    156          6           0        3.807792    1.071419   -0.303685
    157          6           0        2.887090    1.312089   -1.489344
    158          6           0        1.439278    0.862760   -1.313438
    159          8           0        0.452584    1.620337   -1.429680
    160          8           0        1.196222   -0.340348   -1.056425
    161          1           0        5.421426   -0.743706   -1.345994
    162          1           0        5.260437    2.227677   -1.118909
    163          1           0        3.559351    1.750909    0.516174
    164          1           0        3.589331    0.115698    0.178261
    165          1           0        3.166186    0.765803   -2.383479
    166          1           0        2.901784    2.391941   -1.668519
    167          7           0        6.619025    0.200993    1.117135
    168          6           0        7.514163    0.152561    2.255986
    169          1           0        8.461647   -0.293685    1.954172
    170          1           0        7.689605    1.163171    2.624156
    171          1           0        7.065358   -0.449298    3.046312
    172          1           0        6.009690   -0.582590    0.927899
    173         20           0       -1.348294   -0.342943   -1.405753
    174          8           0       -1.461000   -2.913203   -2.166777
    175          1           0       -1.938976   -3.594783   -1.694772
    176          1           0       -1.361260   -3.245426   -3.058001
 ---------------------------------------------------------------------

 SCF Done:  E(RB3LYP) =  -5333.58115116     A.U. after   20 cycles

 The electronic state is 1-A.
 Alpha  occ. eigenvalues -- -145.36198 -19.17518 -19.16524 -19.15843 -19.12664
 Alpha  occ. eigenvalues --  -19.12470 -19.12234 -19.12048 -19.11031 -19.10192
 Alpha  occ. eigenvalues --  -19.10055 -19.09297 -19.08690 -19.08596 -19.08339
 Alpha  occ. eigenvalues --  -19.06576 -19.06047 -19.05080 -19.04398 -19.03328
 Alpha  occ. eigenvalues --  -19.02248 -19.02177 -19.01580 -18.99613 -15.41978
 Alpha  occ. eigenvalues --  -14.57990 -14.40865 -14.37834 -14.37754 -14.37709
 Alpha  occ. eigenvalues --  -14.37701 -14.34709 -14.34554 -14.34287 -14.33366
 Alpha  occ. eigenvalues --  -14.33163 -14.31473 -14.30270 -14.29230 -14.28467
 Alpha  occ. eigenvalues --  -12.55597 -12.55549 -12.55533 -10.33996 -10.33002
 Alpha  occ. eigenvalues --  -10.31237 -10.30777 -10.30654 -10.29647 -10.28854
 Alpha  occ. eigenvalues --  -10.28635 -10.27848 -10.27651 -10.27037 -10.26886
 Alpha  occ. eigenvalues --  -10.26716 -10.26637 -10.26144 -10.25956 -10.25646
 Alpha  occ. eigenvalues --  -10.25518 -10.24855 -10.24242 -10.23758 -10.23726
 Alpha  occ. eigenvalues --  -10.23616 -10.23302 -10.22944 -10.22912 -10.22396
 Alpha  occ. eigenvalues --  -10.22195 -10.22032 -10.21965 -10.21814 -10.21775
 Alpha  occ. eigenvalues --  -10.21564 -10.21308 -10.20950 -10.20851 -10.20782
 Alpha  occ. eigenvalues --  -10.20703 -10.20347 -10.20290 -10.20147 -10.20074
 Alpha  occ. eigenvalues --  -10.19902 -10.19793 -10.19786 -10.19489 -10.19415
 Alpha  occ. eigenvalues --  -10.19386 -10.19186 -10.17883 -10.17581 -10.17536
 Alpha  occ. eigenvalues --  -10.16785 -10.13191  -1.78803  -1.12968  -1.08940
 Alpha  occ. eigenvalues --   -1.06874  -1.06437  -1.06193  -1.06107  -1.05581
 Alpha  occ. eigenvalues --   -1.05275  -1.04539  -1.04367  -1.04157  -1.02698
 Alpha  occ. eigenvalues --   -1.02327  -1.01949  -1.01616  -1.01233  -1.00916
 Alpha  occ. eigenvalues --   -0.99771  -0.98760  -0.98670  -0.98434  -0.97489
 Alpha  occ. eigenvalues --   -0.96325  -0.95523  -0.95166  -0.95031  -0.94703
 Alpha  occ. eigenvalues --   -0.94547  -0.94045  -0.93938  -0.91925  -0.90877
 Alpha  occ. eigenvalues --   -0.90643  -0.90249  -0.90124  -0.88404  -0.87747
 Alpha  occ. eigenvalues --   -0.87657  -0.87368  -0.86851  -0.85824  -0.85162
 Alpha  occ. eigenvalues --   -0.85007  -0.84407  -0.82781  -0.80571  -0.80191
 Alpha  occ. eigenvalues --   -0.79547  -0.79258  -0.79137  -0.78004  -0.77211
 Alpha  occ. eigenvalues --   -0.76481  -0.75728  -0.74904  -0.74776  -0.74583
 Alpha  occ. eigenvalues --   -0.73459  -0.73311  -0.72238  -0.71908  -0.71059
 Alpha  occ. eigenvalues --   -0.69928  -0.69633  -0.69518  -0.68285  -0.67917
 Alpha  occ. eigenvalues --   -0.67632  -0.66761  -0.66480  -0.65746  -0.65678
 Alpha  occ. eigenvalues --   -0.64571  -0.64048  -0.63565  -0.62686  -0.62439
 Alpha  occ. eigenvalues --   -0.61529  -0.61427  -0.61095  -0.60822  -0.60673
 Alpha  occ. eigenvalues --   -0.60636  -0.59582  -0.59361  -0.59211  -0.58829
 Alpha  occ. eigenvalues --   -0.58647  -0.58077  -0.57719  -0.57149  -0.56508
 Alpha  occ. eigenvalues --   -0.56226  -0.56087  -0.55474  -0.55217  -0.55093
 Alpha  occ. eigenvalues --   -0.54506  -0.54425  -0.54007  -0.53929  -0.53789
 Alpha  occ. eigenvalues --   -0.53701  -0.53006  -0.52653  -0.52514  -0.51984
 Alpha  occ. eigenvalues --   -0.51596  -0.51207  -0.51098  -0.50574  -0.50486
 Alpha  occ. eigenvalues --   -0.50145  -0.50107  -0.49905  -0.49585  -0.49483
 Alpha  occ. eigenvalues --   -0.49286  -0.48968  -0.48845  -0.48776  -0.48166
 Alpha  occ. eigenvalues --   -0.48052  -0.47855  -0.47559  -0.47426  -0.47259
 Alpha  occ. eigenvalues --   -0.47048  -0.46851  -0.46656  -0.46487  -0.46413
 Alpha  occ. eigenvalues --   -0.46105  -0.45985  -0.45655  -0.45498  -0.45423
 Alpha  occ. eigenvalues --   -0.44964  -0.44725  -0.44635  -0.44269  -0.44211
 Alpha  occ. eigenvalues --   -0.44153  -0.44121  -0.43933  -0.43742  -0.43564
 Alpha  occ. eigenvalues --   -0.43501  -0.43298  -0.43220  -0.43029  -0.42927
 Alpha  occ. eigenvalues --   -0.42736  -0.42634  -0.42565  -0.42382  -0.42108
 Alpha  occ. eigenvalues --   -0.41907  -0.41851  -0.41711  -0.41584  -0.41492
 Alpha  occ. eigenvalues --   -0.41393  -0.41037  -0.40978  -0.40895  -0.40751
 Alpha  occ. eigenvalues --   -0.40706  -0.40467  -0.40354  -0.40265  -0.40109
 Alpha  occ. eigenvalues --   -0.39971  -0.39557  -0.39440  -0.39312  -0.39221
 Alpha  occ. eigenvalues --   -0.39114  -0.38962  -0.38793  -0.38551  -0.38409
 Alpha  occ. eigenvalues --   -0.38269  -0.38038  -0.38001  -0.37795  -0.37457
 Alpha  occ. eigenvalues --   -0.37358  -0.37290  -0.37153  -0.36947  -0.36881
 Alpha  occ. eigenvalues --   -0.36785  -0.36557  -0.36388  -0.36348  -0.36148
 Alpha  occ. eigenvalues --   -0.35990  -0.35402  -0.35332  -0.35047  -0.35008
 Alpha  occ. eigenvalues --   -0.34963  -0.34578  -0.34480  -0.34420  -0.34391
 Alpha  occ. eigenvalues --   -0.34244  -0.33884  -0.33707  -0.33606  -0.33451
 Alpha  occ. eigenvalues --   -0.32944  -0.32862  -0.32699  -0.32561  -0.31953
 Alpha  occ. eigenvalues --   -0.31663  -0.31523  -0.30682  -0.29895  -0.29674
 Alpha  occ. eigenvalues --   -0.29485  -0.29331  -0.29116  -0.29047  -0.28759
 Alpha  occ. eigenvalues --   -0.28599  -0.28150  -0.28107  -0.27671  -0.27405
 Alpha  occ. eigenvalues --   -0.27167  -0.27063  -0.26921  -0.26169  -0.25920
 Alpha  occ. eigenvalues --   -0.25474  -0.25238  -0.24820  -0.24381  -0.24238
 Alpha  occ. eigenvalues --   -0.24154  -0.23700  -0.23598  -0.23365  -0.23123
 Alpha  occ. eigenvalues --   -0.22958  -0.21923  -0.21462  -0.21207  -0.21185
 Alpha  occ. eigenvalues --   -0.20636  -0.19103  -0.18779  -0.18541  -0.18284
 Alpha  occ. eigenvalues --   -0.17907  -0.17781  -0.15517
 Alpha virt. eigenvalues --   -0.10106  -0.04743  -0.04549  -0.04296  -0.03816
 Alpha virt. eigenvalues --   -0.02482  -0.01348  -0.01196  -0.00975  -0.00381
 Alpha virt. eigenvalues --   -0.00082   0.00274   0.00662   0.01595   0.01653

 Mulliken charges:
               1
     1  C    0.058513
     2  C    0.021539
     3  O   -0.307501
     4  H    0.038696
     5  H    0.002369
     6  H    0.035507
     7  N   -0.124691
     8  C    0.107590
     9  C    0.072489
    10  O   -0.290193
    11  C    0.072774
    12  C    0.133555
    13  O   -0.373806
    14  O   -0.452084
    15  H    0.121596
    16  H    0.011127
    17  H    0.019100
    18  H   -0.011764
    19  N   -0.137548
    20  C    0.132883
    21  C    0.052710
    22  O   -0.278228
    23  C    0.019003
    24  C    0.012818
    25  C   -0.053930
    26  C    0.009715
    27  N    0.082848
    28  H    0.146722
    29  H   -0.013532
    30  H    0.007054
    31  H    0.013478
    32  H    0.007727
    33  H    0.044198
    34  H    0.050499
    35  H    0.008426
    36  H    0.064494
    37  H    0.098401
    38  H    0.196190
    39  H    0.186989
    40  H    0.189357
    41  N   -0.175118
    42  C    0.153981
    43  C    0.070116
    44  O   -0.297791
    45  C    0.096085
    46  C    0.049163
    47  O   -0.373757
    48  O   -0.445959
    49  H    0.142313
    50  H    0.004216
    51  H   -0.013152
    52  H    0.019717
    53  N   -0.145418
    54  C    0.258537
    55  C    0.014729
    56  O   -0.307807
    57  H    0.133392
    58  H    0.016675
    59  H    0.031555
    60  N   -0.149559
    61  C    0.121026
    62  C    0.039063
    63  O   -0.288159
    64  C    0.067893
    65  C    0.097188
    66  N   -0.050231
    67  O   -0.323757
    68  H    0.162115
    69  H    0.024682
    70  H    0.064650
    71  H   -0.000519
    72  H    0.133674
    73  H    0.116151
    74  N   -0.202961
    75  C    0.283311
    76  C   -0.034520
    77  O   -0.302507
    78  H    0.156082
    79  H    0.031198
    80  H    0.041115
    81  N   -0.118492
    82  C    0.104000
    83  C    0.138853
    84  O   -0.327648
    85  C    0.142159
    86  C   -0.024306
    87  C    0.015057
    88  C   -0.032605
    89  C   -0.052580
    90  C   -0.124489
    91  C    0.192756
    92  O   -0.224748
    93  H    0.134272
    94  H   -0.010022
    95  H    0.021875
    96  H   -0.005217
    97  H    0.004658
    98  H    0.008284
    99  H    0.006898
   100  H   -0.030647
   101  H    0.175612
   102  N   -0.110575
   103  C    0.118033
   104  C    0.093761
   105  O   -0.290789
   106  C   -0.100303
   107  C    0.013127
   108  C    0.048687
   109  C    0.049501
   110  H    0.133603
   111  H    0.009861
   112  H   -0.016386
   113  H   -0.000562
   114  H   -0.006007
   115  H    0.023094
   116  H    0.009957
   117  H    0.001320
   118  H    0.007046
   119  H    0.016930
   120  H    0.012244
   121  N   -0.143189
   122  C    0.045039
   123  C    0.120759
   124  O   -0.293823
   125  C    0.329341
   126  O   -0.357606
   127  H    0.155396
   128  H    0.011216
   129  H    0.014688
   130  H   -0.054784
   131  H    0.169944
   132  N   -0.131682
   133  C    0.081777
   134  C    0.048035
   135  O   -0.263615
   136  C    0.047034
   137  H    0.130853
   138  H    0.022671
   139  H    0.039884
   140  H    0.008874
   141  H    0.025266
   142  N   -0.156808
   143  C    0.099226
   144  C    0.095842
   145  O   -0.267820
   146  C    0.025880
   147  H    0.105342
   148  H    0.025738
   149  H    0.026269
   150  H    0.036421
   151  H    0.017298
   152  N   -0.153637
   153  C    0.139731
   154  C    0.057266
   155  O   -0.301374
   156  C    0.006977
   157  C    0.102662
   158  C    0.150762
   159  O   -0.393397
   160  O   -0.474200
   161  H    0.131638
   162  H   -0.012611
   163  H    0.015749
   164  H   -0.021485
   165  H    0.023951
   166  H   -0.008160
   167  N   -0.146171
   168  C    0.132822
   169  H    0.035729
   170  H    0.023429
   171  H    0.003608
   172  H    0.119886
   173  Ca   1.304318
   174  O   -0.290930
   175  H    0.164192
   176  H    0.177067
 Sum of Mulliken charges =  -0.00000

 Dipole moment (field-independent basis, Debye):
    X=             31.4936    Y=             -1.4648    Z=             10.0499  Tot=             33.0907
 Quadrupole moment (field-independent basis, Debye-Ang):
   XX=           -684.6644   YY=           -387.4126   ZZ=           -537.3866
   XY=            113.9784   XZ=             62.2832   YZ=            121.2100

 ESP charges:
               1
     1  C   -0.451665
     2  C    0.894956
     3  O   -0.681140
     4  H    0.129133
     5  H    0.090794
     6  H    0.116351
     7  N   -0.785094
     8  C    0.411177
     9  C    0.122582
    10  O   -0.509213
    11  C   -0.239285
    12  C    0.732353
    13  O   -0.713538
    14  O   -0.796394
    15  H    0.360764
    16  H    0.031250
    17  H    0.111832
    18  H    0.025193
    19  N    0.489911
    20  C   -0.137592
    21  C    0.474161
    22  O   -0.541122
    23  C   -0.024151
    24  C   -0.128386
    25  C   -0.061673
    26  C    0.216102
    27  N   -0.449640
    28  H   -0.074464
    29  H    0.050793
    30  H    0.060756
    31  H   -0.010275
    32  H    0.045804
    33  H    0.136820
    34  H   -0.013884
    35  H    0.040869
    36  H    0.040482
    37  H    0.028284
    38  H    0.353193
    39  H    0.334551
    40  H    0.334260
    41  N   -0.362437
    42  C    0.004399
    43  C    0.327047
    44  O   -0.535813
    45  C   -0.254076
    46  C    0.783349
    47  O   -0.724635
    48  O   -0.751745
    49  H    0.226404
    50  H    0.117501
    51  H    0.062746
    52  H    0.108009
    53  N    0.277300
    54  C   -0.402045
    55  C    0.617934
    56  O   -0.584047
    57  H   -0.060521
    58  H    0.134042
    59  H    0.164086
    60  N   -0.332474
    61  C   -0.080289
    62  C    0.484353
    63  O   -0.561368
    64  C   -0.296205
    65  C    0.710488
    66  N   -0.793149
    67  O   -0.590168
    68  H    0.256058
    69  H    0.145896
    70  H    0.154609
    71  H    0.085202
    72  H    0.373314
    73  H    0.314739
    74  N   -0.155417
    75  C   -0.190780
    76  C    0.619496
    77  O   -0.582850
    78  H    0.264854
    79  H    0.092566
    80  H    0.114345
    81  N   -0.454309
    82  C    0.023006
    83  C    0.882296
    84  O   -0.624514
    85  C   -0.298357
    86  C    0.234295
    87  C   -0.297413
    88  C   -0.160941
    89  C   -0.150404
    90  C   -0.316797
    91  C    0.364777
    92  O   -0.588409
    93  H    0.236614
    94  H    0.081695
    95  H    0.128812
    96  H    0.079640
    97  H    0.199037
    98  H    0.177869
    99  H    0.161409
   100  H    0.140942
   101  H    0.426137
   102  N   -0.893649
   103  C    0.156343
   104  C    0.517319
   105  O   -0.547998
   106  C    0.252633
   107  C    0.099578
   108  C   -0.192301
   109  C   -0.304373
   110  H    0.380171
   111  H    0.073545
   112  H   -0.046895
   113  H   -0.001075
   114  H   -0.022082
   115  H    0.024461
   116  H    0.036868
   117  H    0.045688
   118  H    0.080044
   119  H    0.092647
   120  H    0.059541
   121  N   -0.220753
   122  C   -0.120248
   123  C    0.640264
   124  O   -0.446260
   125  C    0.171669
   126  O   -0.598359
   127  H    0.119089
   128  H    0.074644
   129  H    0.030583
   130  H    0.011120
   131  H    0.412963
   132  N   -0.617125
   133  C    0.278124
   134  C    0.437164
   135  O   -0.552944
   136  C   -0.297972
   137  H    0.319394
   138  H    0.061743
   139  H    0.112150
   140  H    0.074995
   141  H    0.070375
   142  N   -0.312373
   143  C   -0.003346
   144  C    0.330132
   145  O   -0.504965
   146  C   -0.334225
   147  H    0.279392
   148  H    0.131355
   149  H    0.095606
   150  H    0.132994
   151  H    0.088112
   152  N    0.255968
   153  C   -0.382409
   154  C    0.563675
   155  O   -0.567115
   156  C   -0.006016
   157  C   -0.148386
   158  C    0.858496
   159  O   -0.728515
   160  O   -0.779730
   161  H   -0.037422
   162  H    0.117265
   163  H    0.055812
   164  H    0.040577
   165  H    0.032985
   166  H    0.036272
   167  N   -0.158935
   168  C   -0.166058
   169  H    0.092201
   170  H    0.082918
   171  H    0.063516
   172  H    0.140586
   173  Ca   1.520854
   174  O   -0.670274
   175  H    0.299763
   176  H    0.369248
 Sum of ESP charges =   0.00000

 Normal termination of Gaussian 16 at Sun Sep 15 00:00:38 2019.
