 Gaussian 16, Revision A.03,
 Gaussian 16:  ES64L-G16RevA.03 25-Dec-2016

 ----------------------------------------------------------------------
 #b3lyp/svp scf=(tight,noincore) Test #IOP(5/87=12) Density=Current Pop
 =(MK,readradii) iop(6/33=2) iop(6/42=6)
 ----------------------------------------------------------------------

 -----------------
 CaMKII_loop3_61.0
 -----------------
 Symbolic Z-matrix:
 Charge =  0 Multiplicity = 1

                         Standard orientation:
 ---------------------------------------------------------------------
 Center     Atomic      Atomic             Coordinates (Angstroms)
 Number     Number       Type             X           Y           Z
 ---------------------------------------------------------------------
      1          6           0        2.091306    2.098409    5.507015
      2          6           0        1.457307    1.961397    4.132288
      3          8           0        2.160082    1.973858    3.118803
      4          1           0        3.094240    1.671865    5.487697
      5          1           0        2.150298    3.153238    5.777254
      6          1           0        1.485480    1.567665    6.241576
      7          7           0        0.124200    1.891497    4.084981
      8          6           0       -0.641221    1.895371    2.855096
      9          6           0       -0.572144    3.274178    2.211108
     10          8           0       -1.200334    4.197874    2.713764
     11          6           0       -2.063564    1.429120    3.155844
     12          6           0       -2.904178    1.319825    1.895319
     13          8           0       -4.109820    1.035839    2.051775
     14          8           0       -2.505682    1.582094    0.741795
     15          1           0       -0.265089    1.885559    5.023074
     16          1           0       -0.148602    1.182881    2.189000
     17          1           0       -2.506742    2.242628    3.712619
     18          1           0       -1.997743    0.473524    3.681110
     19          7           0        0.131145    3.395947    1.076579
     20          6           0        0.546873    4.687960    0.587833
     21          6           0       -0.563158    5.484928   -0.101640
     22          8           0       -0.270440    6.606860   -0.495828
     23          6           0        1.745650    4.445260   -0.321854
     24          6           0        2.675488    5.618587   -0.609093
     25          6           0        3.791450    5.109945   -1.514748
     26          6           0        4.565271    6.317732   -2.039203
     27          7           0        5.925284    5.964503   -2.463106
     28          1           0        0.584932    2.583078    0.680698
     29          1           0        0.885833    5.260481    1.463176
     30          1           0        1.477113    3.982713   -1.276860
     31          1           0        2.366446    3.660562    0.106471
     32          1           0        3.110269    5.985323    0.317929
     33          1           0        2.106010    6.417370   -1.088093
     34          1           0        3.431455    4.546364   -2.381281
     35          1           0        4.518903    4.595988   -0.879484
     36          1           0        4.510865    7.173583   -1.369011
     37          1           0        3.990381    6.646070   -2.905053
     38          1           0        6.646586    6.261691   -1.825686
     39          1           0        6.024879    4.966752   -2.586285
     40          1           0        6.204645    6.394506   -3.333482
     41          7           0       -1.752929    4.920348   -0.269551
     42          6           0       -2.781374    5.371867   -1.185538
     43          6           0       -4.224913    5.133159   -0.746318
     44          8           0       -5.132676    5.901755   -1.037565
     45          6           0       -2.524260    4.746231   -2.547474
     46          6           0       -2.415372    3.226251   -2.549859
     47          8           0       -1.292678    2.691060   -2.538482
     48          8           0       -3.429141    2.511839   -2.338464
     49          1           0       -1.837834    4.122890    0.348310
     50          1           0       -2.674374    6.454084   -1.267746
     51          1           0       -1.524969    5.133365   -2.767802
     52          1           0       -3.192055    5.093385   -3.336418
     53          7           0       -4.379772    4.199194    0.194920
     54          6           0       -5.672117    3.940729    0.799519
     55          6           0       -6.493616    2.753724    0.326379
     56          8           0       -7.684152    2.716793    0.620080
     57          1           0       -3.597934    3.612400    0.466402
     58          1           0       -6.326494    4.808179    0.774585
     59          1           0       -5.480176    3.855764    1.866167
     60          7           0       -5.957624    1.833834   -0.479732
     61          6           0       -6.629382    0.735746   -1.139612
     62          6           0       -6.831916   -0.526466   -0.308287
     63          8           0       -7.355482   -1.533733   -0.763252
     64          6           0       -5.940485    0.441712   -2.465456
     65          6           0       -4.612013   -0.299215   -2.571247
     66          7           0       -4.342843   -0.879148   -3.746459
     67          8           0       -3.832883   -0.460000   -1.637489
     68          1           0       -4.955733    1.811551   -0.369196
     69          1           0       -7.573339    1.119210   -1.535088
     70          1           0       -5.759029    1.412109   -2.937476
     71          1           0       -6.685157   -0.051722   -3.084396
     72          1           0       -4.877268   -0.560064   -4.540358
     73          1           0       -3.412165   -1.218497   -3.938245
     74          7           0       -6.221329   -0.526249    0.888285
     75          6           0       -6.212693   -1.576483    1.883842
     76          6           0       -5.120212   -2.605783    1.620731
     77          8           0       -5.216793   -3.727956    2.108889
     78          1           0       -5.798351    0.353781    1.152743
     79          1           0       -7.112291   -2.172592    1.975364
     80          1           0       -6.086973   -1.004689    2.795624
     81          7           0       -4.048593   -2.277412    0.894917
     82          6           0       -2.910470   -3.167670    0.769953
     83          6           0       -1.604706   -2.388909    0.929365
     84          8           0       -1.444769   -1.259679    0.471807
     85          6           0       -2.920251   -4.013304   -0.495198
     86          6           0       -4.121395   -4.886621   -0.774251
     87          6           0       -4.353341   -6.064468   -0.042009
     88          6           0       -5.058969   -4.478210   -1.724648
     89          6           0       -5.466614   -6.870313   -0.315937
     90          6           0       -6.144958   -5.315365   -2.015168
     91          6           0       -6.384065   -6.518781   -1.330831
     92          8           0       -7.541034   -7.185937   -1.588755
     93          1           0       -3.907079   -1.342190    0.556191
     94          1           0       -2.970498   -3.730538    1.697248
     95          1           0       -2.041887   -4.655981   -0.538136
     96          1           0       -2.743120   -3.301457   -1.294071
     97          1           0       -3.656156   -6.218891    0.769093
     98          1           0       -4.984279   -3.577846   -2.312412
     99          1           0       -5.765671   -7.716437    0.282677
    100          1           0       -6.851215   -5.028951   -2.788904
    101          1           0       -8.084922   -6.662318   -2.181468
    102          7           0       -0.576140   -2.999580    1.519053
    103          6           0        0.813819   -2.604303    1.576236
    104          6           0        1.609693   -3.589924    0.730874
    105          8           0        1.537926   -4.811793    0.857307
    106          6           0        1.317290   -2.661025    3.017519
    107          6           0        0.599880   -1.751122    4.002202
    108          6           0        2.810370   -2.387471    2.967698
    109          6           0        0.815886   -2.221526    5.437981
    110          1           0       -0.781525   -3.886251    1.962485
    111          1           0        0.959831   -1.587581    1.199598
    112          1           0        1.165188   -3.709068    3.286538
    113          1           0       -0.474561   -1.785757    3.855656
    114          1           0        1.063956   -0.765278    3.905531
    115          1           0        3.336225   -2.506812    3.913021
    116          1           0        3.307686   -3.131602    2.344925
    117          1           0        2.998451   -1.388629    2.573441
    118          1           0        1.844031   -2.328819    5.788274
    119          1           0        0.223128   -1.550624    6.066096
    120          1           0        0.421415   -3.222683    5.557470
    121          7           0        2.474101   -3.059326   -0.138704
    122          6           0        3.413147   -3.826282   -0.932223
    123          6           0        4.802881   -3.400973   -0.486070
    124          8           0        5.016984   -2.487486    0.324055
    125          6           0        3.162699   -3.679966   -2.427839
    126          8           0        3.380097   -2.358313   -2.852659
    127          1           0        2.610514   -2.061475   -0.121830
    128          1           0        3.458199   -4.862420   -0.590482
    129          1           0        2.222483   -4.017839   -2.854259
    130          1           0        3.938360   -4.190355   -2.997798
    131          1           0        2.622257   -2.161415   -3.397646
    132          7           0        5.839734   -4.155435   -0.877124
    133          6           0        7.242862   -4.109485   -0.524819
    134          6           0        7.811857   -2.707475   -0.679784
    135          8           0        8.472859   -2.204815    0.218108
    136          6           0        8.053668   -5.176920   -1.251508
    137          1           0        5.675256   -4.957686   -1.465971
    138          1           0        7.276312   -4.423668    0.520872
    139          1           0        8.378383   -4.912129   -2.265927
    140          1           0        8.996140   -5.204993   -0.709422
    141          1           0        7.681659   -6.194685   -1.220448
    142          7           0        7.738402   -2.091920   -1.865742
    143          6           0        8.011854   -0.682360   -2.087018
    144          6           0        7.231603    0.329794   -1.253979
    145          8           0        7.774076    1.381177   -0.923498
    146          6           0        7.757620   -0.456465   -3.570270
    147          1           0        7.391408   -2.632488   -2.633779
    148          1           0        9.058170   -0.464606   -1.898325
    149          1           0        6.693393   -0.594006   -3.746914
    150          1           0        8.106375    0.535729   -3.880625
    151          1           0        8.355736   -1.144945   -4.156405
    152          7           0        6.057110   -0.019069   -0.718946
    153          6           0        5.182898    0.894293    0.001349
    154          6           0        5.614730    0.828592    1.462309
    155          8           0        5.473059    1.813846    2.178762
    156          6           0        3.706190    0.572811   -0.144879
    157          6           0        3.122006    0.917459   -1.514859
    158          6           0        1.628497    0.610987   -1.512115
    159          8           0        0.935273    0.811384   -0.498862
    160          8           0        1.135470    0.020827   -2.499047
    161          1           0        5.614815   -0.923400   -0.800548
    162          1           0        5.356980    1.910707   -0.364709
    163          1           0        3.370208    1.324356    0.560455
    164          1           0        3.470947   -0.480058    0.032684
    165          1           0        3.627690    0.416554   -2.341768
    166          1           0        3.160756    1.972486   -1.766486
    167          7           0        6.025717   -0.364323    1.906090
    168          6           0        6.629416   -0.632895    3.188711
    169          1           0        7.627396   -1.044512    3.040259
    170          1           0        6.700053    0.293579    3.758889
    171          1           0        6.017975   -1.350571    3.735193
    172          1           0        5.810939   -1.168513    1.346672
    173         20           0       -1.425447    0.504897   -1.295394
    174          8           0       -0.604018   -2.046124   -1.989543
    175          1           0       -0.421197   -2.962661   -2.189387
    176          1           0        0.221155   -1.584915   -2.189982
 ---------------------------------------------------------------------

 SCF Done:  E(RB3LYP) =  -5333.59136657     A.U. after   18 cycles

 The electronic state is 1-A.
 Alpha  occ. eigenvalues -- -145.35162 -19.17249 -19.15959 -19.14913 -19.14114
 Alpha  occ. eigenvalues --  -19.12279 -19.11791 -19.11020 -19.10754 -19.10590
 Alpha  occ. eigenvalues --  -19.09162 -19.08676 -19.07561 -19.07349 -19.07089
 Alpha  occ. eigenvalues --  -19.06920 -19.05317 -19.04988 -19.04917 -19.04582
 Alpha  occ. eigenvalues --  -19.04373 -19.03711 -19.03037 -19.02631 -15.40957
 Alpha  occ. eigenvalues --  -14.58226 -14.41086 -14.38722 -14.38116 -14.36637
 Alpha  occ. eigenvalues --  -14.35778 -14.35592 -14.33925 -14.32589 -14.32435
 Alpha  occ. eigenvalues --  -14.32167 -14.31441 -14.30417 -14.29786 -14.29721
 Alpha  occ. eigenvalues --  -12.54577 -12.54526 -12.54507 -10.34591 -10.33675
 Alpha  occ. eigenvalues --  -10.31370 -10.30280 -10.29470 -10.29460 -10.29412
 Alpha  occ. eigenvalues --  -10.28501 -10.28266 -10.28115 -10.27929 -10.26377
 Alpha  occ. eigenvalues --  -10.26336 -10.25804 -10.25792 -10.25655 -10.25472
 Alpha  occ. eigenvalues --  -10.24197 -10.24145 -10.24001 -10.23595 -10.23569
 Alpha  occ. eigenvalues --  -10.23511 -10.22997 -10.22837 -10.22762 -10.22498
 Alpha  occ. eigenvalues --  -10.22348 -10.21968 -10.21840 -10.21792 -10.20521
 Alpha  occ. eigenvalues --  -10.20351 -10.20215 -10.19841 -10.19708 -10.19509
 Alpha  occ. eigenvalues --  -10.19501 -10.19008 -10.18500 -10.18077 -10.18021
 Alpha  occ. eigenvalues --  -10.17954 -10.17909 -10.17681 -10.17500 -10.17438
 Alpha  occ. eigenvalues --  -10.16858 -10.16645 -10.16484 -10.16394 -10.16163
 Alpha  occ. eigenvalues --  -10.16017 -10.14848  -1.77972  -1.13504  -1.08974
 Alpha  occ. eigenvalues --   -1.06367  -1.06047  -1.05812  -1.05703  -1.05638
 Alpha  occ. eigenvalues --   -1.04973  -1.03854  -1.03735  -1.03605  -1.03231
 Alpha  occ. eigenvalues --   -1.02912  -1.01249  -1.01203  -1.00218  -0.99994
 Alpha  occ. eigenvalues --   -0.99692  -0.99009  -0.98879  -0.98786  -0.98046
 Alpha  occ. eigenvalues --   -0.97939  -0.97760  -0.96884  -0.95361  -0.94844
 Alpha  occ. eigenvalues --   -0.93471  -0.93419  -0.92708  -0.90758  -0.90736
 Alpha  occ. eigenvalues --   -0.90360  -0.89391  -0.89109  -0.88799  -0.88256
 Alpha  occ. eigenvalues --   -0.88189  -0.87949  -0.87750  -0.86576  -0.85828
 Alpha  occ. eigenvalues --   -0.84061  -0.82502  -0.82179  -0.80796  -0.80460
 Alpha  occ. eigenvalues --   -0.79768  -0.79154  -0.76902  -0.76790  -0.75916
 Alpha  occ. eigenvalues --   -0.75014  -0.74887  -0.74192  -0.73159  -0.72336
 Alpha  occ. eigenvalues --   -0.71962  -0.71569  -0.71391  -0.71358  -0.71027
 Alpha  occ. eigenvalues --   -0.70531  -0.69543  -0.69010  -0.68520  -0.68192
 Alpha  occ. eigenvalues --   -0.67494  -0.67229  -0.65962  -0.65084  -0.63906
 Alpha  occ. eigenvalues --   -0.63581  -0.63437  -0.63207  -0.62997  -0.62237
 Alpha  occ. eigenvalues --   -0.62061  -0.61546  -0.61141  -0.60649  -0.60230
 Alpha  occ. eigenvalues --   -0.59466  -0.58625  -0.58473  -0.57802  -0.57499
 Alpha  occ. eigenvalues --   -0.56936  -0.56913  -0.56566  -0.56444  -0.56046
 Alpha  occ. eigenvalues --   -0.55590  -0.55455  -0.55242  -0.54976  -0.54838
 Alpha  occ. eigenvalues --   -0.54816  -0.54241  -0.53700  -0.53580  -0.53263
 Alpha  occ. eigenvalues --   -0.53030  -0.52841  -0.52419  -0.52219  -0.51986
 Alpha  occ. eigenvalues --   -0.51706  -0.51537  -0.51292  -0.50943  -0.50125
 Alpha  occ. eigenvalues --   -0.49969  -0.49477  -0.49369  -0.49006  -0.48463
 Alpha  occ. eigenvalues --   -0.48394  -0.48174  -0.47887  -0.47700  -0.47618
 Alpha  occ. eigenvalues --   -0.47296  -0.47206  -0.47019  -0.46744  -0.46553
 Alpha  occ. eigenvalues --   -0.46437  -0.46292  -0.45951  -0.45745  -0.45609
 Alpha  occ. eigenvalues --   -0.45470  -0.45442  -0.45225  -0.44747  -0.44600
 Alpha  occ. eigenvalues --   -0.44533  -0.44260  -0.43997  -0.43790  -0.43710
 Alpha  occ. eigenvalues --   -0.43509  -0.43412  -0.43367  -0.43293  -0.43042
 Alpha  occ. eigenvalues --   -0.42993  -0.42876  -0.42663  -0.42356  -0.42281
 Alpha  occ. eigenvalues --   -0.42070  -0.42003  -0.41919  -0.41853  -0.41649
 Alpha  occ. eigenvalues --   -0.41429  -0.41322  -0.41253  -0.41066  -0.40982
 Alpha  occ. eigenvalues --   -0.40851  -0.40650  -0.40566  -0.40400  -0.39877
 Alpha  occ. eigenvalues --   -0.39771  -0.39683  -0.39550  -0.39529  -0.39304
 Alpha  occ. eigenvalues --   -0.39228  -0.39069  -0.38894  -0.38750  -0.38670
 Alpha  occ. eigenvalues --   -0.38627  -0.38571  -0.38433  -0.38394  -0.37997
 Alpha  occ. eigenvalues --   -0.37851  -0.37753  -0.37657  -0.37507  -0.37347
 Alpha  occ. eigenvalues --   -0.37307  -0.37110  -0.36821  -0.36604  -0.36487
 Alpha  occ. eigenvalues --   -0.36433  -0.36132  -0.36027  -0.35768  -0.35691
 Alpha  occ. eigenvalues --   -0.35624  -0.34905  -0.34831  -0.34651  -0.34587
 Alpha  occ. eigenvalues --   -0.34481  -0.34105  -0.34031  -0.33883  -0.33675
 Alpha  occ. eigenvalues --   -0.33570  -0.33260  -0.33232  -0.32915  -0.32785
 Alpha  occ. eigenvalues --   -0.32706  -0.32441  -0.32255  -0.32130  -0.31947
 Alpha  occ. eigenvalues --   -0.31618  -0.31550  -0.31348  -0.31080  -0.30727
 Alpha  occ. eigenvalues --   -0.30664  -0.29816  -0.29014  -0.28661  -0.28465
 Alpha  occ. eigenvalues --   -0.27998  -0.27686  -0.27464  -0.27317  -0.26677
 Alpha  occ. eigenvalues --   -0.26443  -0.26287  -0.26268  -0.26203  -0.25320
 Alpha  occ. eigenvalues --   -0.24560  -0.24049  -0.23863  -0.23456  -0.23308
 Alpha  occ. eigenvalues --   -0.23170  -0.23047  -0.22860  -0.22596  -0.22443
 Alpha  occ. eigenvalues --   -0.22380  -0.22167  -0.22047  -0.21668  -0.21377
 Alpha  occ. eigenvalues --   -0.21115  -0.20196  -0.20018  -0.19597  -0.19535
 Alpha  occ. eigenvalues --   -0.18794  -0.18624  -0.18464
 Alpha virt. eigenvalues --   -0.09984  -0.04823  -0.04529  -0.03865  -0.02242
 Alpha virt. eigenvalues --   -0.01699  -0.00771  -0.00497  -0.00202   0.00376
 Alpha virt. eigenvalues --    0.00948   0.01430   0.01505   0.01980   0.02300

 Mulliken charges:
               1
     1  C    0.057701
     2  C    0.010665
     3  O   -0.292590
     4  H    0.037071
     5  H    0.045062
     6  H   -0.002217
     7  N   -0.133882
     8  C    0.116047
     9  C    0.059883
    10  O   -0.283812
    11  C    0.090208
    12  C    0.143171
    13  O   -0.380939
    14  O   -0.478454
    15  H    0.113874
    16  H    0.000147
    17  H    0.023246
    18  H    0.013993
    19  N   -0.165425
    20  C    0.176386
    21  C    0.065910
    22  O   -0.305179
    23  C   -0.036702
    24  C    0.025522
    25  C   -0.077016
    26  C    0.017150
    27  N    0.096041
    28  H    0.151146
    29  H    0.011410
    30  H    0.019359
    31  H    0.023127
    32  H    0.010571
    33  H    0.033488
    34  H    0.052174
    35  H    0.043665
    36  H    0.079914
    37  H    0.068900
    38  H    0.193266
    39  H    0.193750
    40  H    0.182827
    41  N   -0.125868
    42  C    0.091454
    43  C    0.096573
    44  O   -0.275704
    45  C    0.141929
    46  C    0.081116
    47  O   -0.454042
    48  O   -0.391746
    49  H    0.156895
    50  H    0.018466
    51  H   -0.022415
    52  H    0.009037
    53  N   -0.180399
    54  C    0.213344
    55  C    0.029439
    56  O   -0.297596
    57  H    0.138825
    58  H    0.030422
    59  H    0.019161
    60  N   -0.156667
    61  C    0.160440
    62  C    0.076981
    63  O   -0.282945
    64  C    0.014152
    65  C    0.115556
    66  N   -0.046704
    67  O   -0.349262
    68  H    0.148871
    69  H    0.016371
    70  H    0.056563
    71  H    0.016433
    72  H    0.122225
    73  H    0.121107
    74  N   -0.184785
    75  C    0.261361
    76  C    0.037164
    77  O   -0.298580
    78  H    0.149705
    79  H    0.022248
    80  H    0.029787
    81  N   -0.154364
    82  C    0.115724
    83  C    0.109947
    84  O   -0.361481
    85  C    0.170380
    86  C   -0.010878
    87  C    0.056260
    88  C    0.018489
    89  C   -0.027314
    90  C   -0.057007
    91  C    0.163112
    92  O   -0.189916
    93  H    0.155554
    94  H   -0.011042
    95  H   -0.027218
    96  H   -0.027384
    97  H   -0.040355
    98  H   -0.046863
    99  H   -0.030114
   100  H   -0.053151
   101  H    0.173825
   102  N   -0.110786
   103  C    0.152846
   104  C    0.046413
   105  O   -0.282487
   106  C   -0.121326
   107  C    0.052497
   108  C    0.037336
   109  C    0.017563
   110  H    0.130343
   111  H    0.024448
   112  H   -0.019774
   113  H    0.005968
   114  H    0.029981
   115  H    0.002870
   116  H    0.005544
   117  H    0.038029
   118  H    0.006911
   119  H    0.009739
   120  H   -0.005666
   121  N   -0.132188
   122  C    0.131566
   123  C    0.087368
   124  O   -0.307675
   125  C    0.242448
   126  O   -0.314131
   127  H    0.141363
   128  H    0.041586
   129  H    0.014977
   130  H   -0.027979
   131  H    0.174108
   132  N   -0.107401
   133  C    0.081803
   134  C    0.045424
   135  O   -0.236469
   136  C    0.024619
   137  H    0.112742
   138  H    0.023053
   139  H    0.017924
   140  H    0.043434
   141  H    0.035960
   142  N   -0.127650
   143  C    0.125959
   144  C    0.071368
   145  O   -0.291211
   146  C    0.007009
   147  H    0.101497
   148  H    0.018156
   149  H    0.023842
   150  H    0.019019
   151  H    0.018052
   152  N   -0.146266
   153  C    0.076496
   154  C    0.082560
   155  O   -0.272004
   156  C    0.043689
   157  C    0.110783
   158  C    0.123413
   159  O   -0.423223
   160  O   -0.420615
   161  H    0.125267
   162  H   -0.040949
   163  H    0.064314
   164  H   -0.025063
   165  H   -0.018984
   166  H   -0.036268
   167  N   -0.164814
   168  C    0.131205
   169  H    0.024822
   170  H    0.031532
   171  H    0.007097
   172  H    0.120563
   173  Ca   1.275886
   174  O   -0.295944
   175  H    0.162189
   176  H    0.150717
 Sum of Mulliken charges =  -0.00000

 Dipole moment (field-independent basis, Debye):
    X=             38.2818    Y=              0.2340    Z=            -17.5018  Tot=             42.0936
 Quadrupole moment (field-independent basis, Debye-Ang):
   XX=           -577.7748   YY=           -505.8541   ZZ=           -487.6045
   XY=             94.0124   XZ=            -68.0770   YZ=            -24.9717

 ESP charges:
               1
     1  C   -0.408983
     2  C    0.782854
     3  O   -0.601451
     4  H    0.119161
     5  H    0.122848
     6  H    0.069772
     7  N   -0.800564
     8  C    0.380674
     9  C    0.560692
    10  O   -0.553993
    11  C   -0.493991
    12  C    0.755968
    13  O   -0.663363
    14  O   -0.552674
    15  H    0.377805
    16  H   -0.063370
    17  H    0.142983
    18  H    0.123703
    19  N   -0.143467
    20  C   -0.483937
    21  C    0.732567
    22  O   -0.588585
    23  C    0.260756
    24  C   -0.214422
    25  C    0.041541
    26  C    0.103432
    27  N   -0.394758
    28  H    0.206465
    29  H    0.170236
    30  H    0.015738
    31  H    0.029636
    32  H    0.066687
    33  H    0.074557
    34  H    0.041783
    35  H    0.033313
    36  H    0.057458
    37  H    0.057889
    38  H    0.347865
    39  H    0.319116
    40  H    0.326153
    41  N   -0.303579
    42  C   -0.041114
    43  C    0.564321
    44  O   -0.557110
    45  C   -0.182837
    46  C    0.744260
    47  O   -0.782432
    48  O   -0.731246
    49  H    0.000025
    50  H    0.100384
    51  H    0.038009
    52  H    0.072204
    53  N   -0.324652
    54  C   -0.150035
    55  C    0.567735
    56  O   -0.590802
    57  H    0.345346
    58  H    0.127347
    59  H    0.086565
    60  N   -0.140927
    61  C   -0.208691
    62  C    0.327016
    63  O   -0.477843
    64  C   -0.016326
    65  C    0.589374
    66  N   -0.742687
    67  O   -0.452920
    68  H    0.024717
    69  H    0.169491
    70  H    0.062592
    71  H    0.038315
    72  H    0.341029
    73  H    0.345897
    74  N    0.069001
    75  C   -0.517999
    76  C    0.686357
    77  O   -0.558109
    78  H    0.179298
    79  H    0.184487
    80  H    0.174281
    81  N   -0.336709
    82  C    0.547163
    83  C    0.243645
    84  O   -0.386924
    85  C   -0.031395
    86  C   -0.146367
    87  C   -0.062392
    88  C    0.020777
    89  C   -0.305433
    90  C   -0.398793
    91  C    0.454118
    92  O   -0.572283
    93  H    0.004037
    94  H   -0.085813
    95  H    0.008240
    96  H    0.017095
    97  H    0.100691
    98  H    0.099666
    99  H    0.167409
   100  H    0.134295
   101  H    0.419160
   102  N   -0.484165
   103  C   -0.032226
   104  C    0.476623
   105  O   -0.545382
   106  C    0.224454
   107  C    0.040200
   108  C   -0.285242
   109  C   -0.363068
   110  H    0.295619
   111  H    0.098168
   112  H   -0.009524
   113  H    0.060862
   114  H    0.073811
   115  H    0.085388
   116  H    0.066246
   117  H    0.014700
   118  H    0.087655
   119  H    0.083862
   120  H    0.078967
   121  N    0.001321
   122  C   -0.296617
   123  C    0.637294
   124  O   -0.463799
   125  C    0.103683
   126  O   -0.544374
   127  H    0.008926
   128  H    0.145557
   129  H    0.066271
   130  H    0.032846
   131  H    0.391418
   132  N   -0.446942
   133  C    0.164560
   134  C    0.429660
   135  O   -0.498920
   136  C   -0.235719
   137  H    0.260945
   138  H    0.057112
   139  H    0.052487
   140  H    0.098379
   141  H    0.092718
   142  N   -0.372361
   143  C    0.143019
   144  C    0.432194
   145  O   -0.558086
   146  C   -0.305318
   147  H    0.254746
   148  H    0.080766
   149  H    0.070276
   150  H    0.094240
   151  H    0.090452
   152  N   -0.307142
   153  C    0.269807
   154  C    0.395058
   155  O   -0.546359
   156  C   -0.447976
   157  C   -0.021773
   158  C    0.858158
   159  O   -0.788141
   160  O   -0.785886
   161  H    0.162676
   162  H   -0.010885
   163  H    0.136780
   164  H    0.265879
   165  H    0.009322
   166  H   -0.046347
   167  N   -0.068589
   168  C   -0.194015
   169  H    0.071105
   170  H    0.107551
   171  H    0.062798
   172  H    0.137057
   173  Ca   1.512495
   174  O   -0.892185
   175  H    0.423040
   176  H    0.436869
 Sum of ESP charges =  -0.00000

 Normal termination of Gaussian 16 at Sat Sep 14 23:50:02 2019.
