 Gaussian 16, Revision A.03,
 Gaussian 16:  ES64L-G16RevA.03 25-Dec-2016

 ----------------------------------------------------------------------
 #b3lyp/svp scf=(tight,noincore) Test #IOP(5/87=12) Density=Current Pop
 =(MK,readradii) iop(6/33=2) iop(6/42=6)
 ----------------------------------------------------------------------

 ------------------
 CaMKII_loop3_108.0
 ------------------
 Symbolic Z-matrix:
 Charge =  0 Multiplicity = 1

                         Standard orientation:
 ---------------------------------------------------------------------
 Center     Atomic      Atomic             Coordinates (Angstroms)
 Number     Number       Type             X           Y           Z
 ---------------------------------------------------------------------
      1          6           0        2.720922    1.555783    5.554095
      2          6           0        2.082515    1.367862    4.183101
      3          8           0        2.817012    1.128145    3.237612
      4          1           0        1.958041    1.457274    6.326447
      5          1           0        3.489857    0.798050    5.704643
      6          1           0        3.170025    2.546918    5.613347
      7          7           0        0.759315    1.526166    4.052022
      8          6           0        0.094476    1.606872    2.777159
      9          6           0        0.091765    3.042532    2.281708
     10          8           0       -0.236417    3.928684    3.058581
     11          6           0       -1.329950    1.052058    2.865434
     12          6           0       -2.107331    1.235370    1.570414
     13          8           0       -2.173012    0.258862    0.796258
     14          8           0       -2.634803    2.359355    1.426082
     15          1           0        0.202067    1.674920    4.884336
     16          1           0        0.701955    0.967924    2.125918
     17          1           0       -1.947748    1.550435    3.602893
     18          1           0       -1.272114   -0.006520    3.097314
     19          7           0        0.363918    3.359555    1.006706
     20          6           0        0.582712    4.685397    0.481662
     21          6           0       -0.553636    5.250446   -0.368476
     22          8           0       -0.967005    6.402884   -0.250947
     23          6           0        1.934057    4.776383   -0.230089
     24          6           0        3.083653    4.526594    0.732009
     25          6           0        4.506921    4.677807    0.193174
     26          6           0        4.812049    6.143045   -0.074548
     27          7           0        4.753930    6.955631    1.151718
     28          1           0        0.619754    2.656637    0.326225
     29          1           0        0.587386    5.393922    1.313810
     30          1           0        2.025060    5.809679   -0.558446
     31          1           0        2.003639    4.163542   -1.138596
     32          1           0        2.955933    3.507301    1.098520
     33          1           0        2.895694    5.246088    1.534629
     34          1           0        4.655687    4.079805   -0.704859
     35          1           0        5.156285    4.239653    0.955307
     36          1           0        4.037654    6.404995   -0.787495
     37          1           0        5.833926    6.217753   -0.468358
     38          1           0        4.135530    6.643920    1.876643
     39          1           0        5.688194    7.113686    1.502674
     40          1           0        4.448404    7.907550    0.995820
     41          7           0       -1.198914    4.479865   -1.243930
     42          6           0       -2.302632    4.929099   -2.062095
     43          6           0       -3.609253    4.958304   -1.285894
     44          8           0       -4.554607    5.589349   -1.735324
     45          6           0       -2.363667    3.994423   -3.274348
     46          6           0       -2.180154    2.506537   -3.002465
     47          8           0       -2.829838    1.989765   -2.075127
     48          8           0       -1.243699    1.867874   -3.544278
     49          1           0       -0.867121    3.525317   -1.158765
     50          1           0       -2.150989    5.901307   -2.514109
     51          1           0       -1.506033    4.320766   -3.871394
     52          1           0       -3.336743    4.143798   -3.738794
     53          7           0       -3.709493    4.243931   -0.155662
     54          6           0       -4.935855    4.098775    0.604513
     55          6           0       -5.968207    3.205536   -0.063748
     56          8           0       -7.148511    3.349335    0.273008
     57          1           0       -3.007773    3.569958    0.096032
     58          1           0       -5.402384    5.068075    0.801001
     59          1           0       -4.718830    3.670045    1.576156
     60          7           0       -5.538642    2.258863   -0.891205
     61          6           0       -6.322875    1.054527   -1.075466
     62          6           0       -6.432339    0.039464    0.054031
     63          8           0       -7.367316   -0.758734    0.099833
     64          6           0       -6.140679    0.446401   -2.469664
     65          6           0       -4.807434   -0.262643   -2.598555
     66          7           0       -4.384822   -0.575589   -3.822550
     67          8           0       -4.132961   -0.630547   -1.638850
     68          1           0       -4.597759    2.337349   -1.269993
     69          1           0       -7.320425    1.483180   -1.063147
     70          1           0       -6.095832    1.239715   -3.226130
     71          1           0       -6.993917   -0.164912   -2.762378
     72          1           0       -4.907199   -0.274926   -4.624313
     73          1           0       -3.561795   -1.170444   -3.855329
     74          7           0       -5.494475    0.120124    1.002981
     75          6           0       -5.498964   -0.706428    2.198386
     76          6           0       -4.731441   -2.016437    2.099469
     77          8           0       -4.980943   -2.938547    2.876619
     78          1           0       -4.870003    0.897724    0.899192
     79          1           0       -6.544693   -0.962157    2.389311
     80          1           0       -5.137705   -0.157910    3.062863
     81          7           0       -3.798606   -2.119225    1.150441
     82          6           0       -2.978790   -3.264734    0.852765
     83          6           0       -1.541909   -2.804616    0.709015
     84          8           0       -1.218396   -2.276839   -0.355405
     85          6           0       -3.552607   -3.930840   -0.395889
     86          6           0       -5.021989   -4.263875   -0.406066
     87          6           0       -5.411801   -5.459995    0.216063
     88          6           0       -5.962787   -3.391972   -0.944753
     89          6           0       -6.749529   -5.870688    0.256247
     90          6           0       -7.320176   -3.747553   -0.891298
     91          6           0       -7.684824   -4.958396   -0.276243
     92          8           0       -8.964027   -5.176911    0.137629
     93          1           0       -3.601945   -1.281556    0.615526
     94          1           0       -2.968729   -3.980769    1.686128
     95          1           0       -2.973176   -4.845889   -0.529847
     96          1           0       -3.317897   -3.273837   -1.239369
     97          1           0       -4.647901   -6.093077    0.646255
     98          1           0       -5.675582   -2.474040   -1.437718
     99          1           0       -7.125783   -6.661850    0.889568
    100          1           0       -8.043665   -3.069468   -1.327949
    101          1           0       -9.033854   -6.029206    0.574569
    102          7           0       -0.720529   -3.018240    1.742988
    103          6           0        0.688782   -2.675097    1.772895
    104          6           0        1.405668   -3.535637    0.742145
    105          8           0        1.172854   -4.734628    0.840209
    106          6           0        1.286564   -2.984115    3.143028
    107          6           0        0.692477   -2.172853    4.289071
    108          6           0        2.803289   -2.770244    3.145524
    109          6           0        0.955905   -2.846704    5.639082
    110          1           0       -1.138844   -3.298879    2.620230
    111          1           0        0.733591   -1.615597    1.508410
    112          1           0        0.912692   -3.997007    3.299138
    113          1           0       -0.386413   -2.040413    4.190297
    114          1           0        1.197414   -1.215721    4.347700
    115          1           0        3.264550   -3.287836    2.301169
    116          1           0        3.052049   -1.714451    3.062945
    117          1           0        3.221630   -3.144540    4.083870
    118          1           0        0.283217   -3.695993    5.607460
    119          1           0        2.002918   -2.999093    5.863894
    120          1           0        0.635802   -2.217677    6.470923
    121          7           0        2.375826   -3.005554    0.008248
    122          6           0        3.091744   -3.694706   -1.057506
    123          6           0        4.574321   -3.448998   -0.861050
    124          8           0        4.954058   -2.748581    0.078160
    125          6           0        2.653613   -3.265486   -2.449163
    126          8           0        3.094862   -1.925584   -2.537268
    127          1           0        2.560449   -2.012384   -0.044926
    128          1           0        2.928946   -4.776961   -1.024019
    129          1           0        1.576880   -3.339232   -2.577645
    130          1           0        3.239816   -3.895408   -3.124192
    131          1           0        2.356009   -1.309493   -2.588536
    132          7           0        5.383883   -4.312409   -1.471320
    133          6           0        6.797238   -4.261042   -1.173178
    134          6           0        7.406941   -2.896481   -1.490880
    135          8           0        8.295850   -2.407319   -0.788768
    136          6           0        7.464394   -5.440464   -1.872655
    137          1           0        5.051394   -4.769751   -2.310123
    138          1           0        6.988826   -4.391240   -0.107559
    139          1           0        8.527187   -5.470053   -1.606960
    140          1           0        6.929740   -6.299384   -1.463875
    141          1           0        7.442727   -5.279869   -2.948406
    142          7           0        6.836122   -2.153322   -2.438762
    143          6           0        7.319154   -0.876920   -2.924639
    144          6           0        6.896448    0.296906   -2.050767
    145          8           0        7.669648    1.219169   -1.841742
    146          6           0        6.862337   -0.879322   -4.375057
    147          1           0        6.100838   -2.616747   -2.944821
    148          1           0        8.408277   -0.821897   -2.911030
    149          1           0        7.056639   -1.741083   -5.014521
    150          1           0        5.783160   -0.807499   -4.433513
    151          1           0        7.258592   -0.015494   -4.918825
    152          7           0        5.767956    0.110652   -1.351684
    153          6           0        5.321518    0.931431   -0.237406
    154          6           0        6.047750    0.653873    1.071810
    155          8           0        6.178031    1.659837    1.774138
    156          6           0        3.809621    0.826740   -0.068274
    157          6           0        2.942396    1.214426   -1.260047
    158          6           0        1.497849    0.747891   -1.116078
    159          8           0        1.247132   -0.481767   -1.173382
    160          8           0        0.490174    1.458829   -0.949771
    161          1           0        5.319491   -0.790274   -1.439499
    162          1           0        5.583397    1.966870   -0.457149
    163          1           0        3.566979    1.442331    0.798486
    164          1           0        3.636029   -0.219784    0.177596
    165          1           0        3.434037    0.661883   -2.064961
    166          1           0        3.020067    2.303700   -1.328233
    167          7           0        6.368007   -0.607740    1.345064
    168          6           0        7.200893   -1.051018    2.445567
    169          1           0        6.579706   -1.220115    3.324620
    170          1           0        7.702587   -1.979271    2.171403
    171          1           0        7.945712   -0.287587    2.669323
    172          1           0        6.064327   -1.251171    0.628493
    173         20           0       -1.490590   -0.110803   -1.669965
    174          8           0       -1.881134   -2.083957   -3.292567
    175          1           0       -1.468616   -2.076537   -4.158982
    176          1           0       -2.252353   -2.962695   -3.222456
 ---------------------------------------------------------------------

 SCF Done:  E(RB3LYP) =  -5333.61135329     A.U. after   15 cycles

 The electronic state is 1-A.
 Alpha  occ. eigenvalues -- -145.36273 -19.22535 -19.14987 -19.14150 -19.13057
 Alpha  occ. eigenvalues --  -19.11450 -19.11319 -19.11086 -19.10016 -19.09450
 Alpha  occ. eigenvalues --  -19.08865 -19.08856 -19.08774 -19.07986 -19.06837
 Alpha  occ. eigenvalues --  -19.06816 -19.06476 -19.06420 -19.06121 -19.05609
 Alpha  occ. eigenvalues --  -19.05365 -19.04438 -19.04314 -19.03967 -15.42052
 Alpha  occ. eigenvalues --  -14.57316 -14.40064 -14.37609 -14.36243 -14.36154
 Alpha  occ. eigenvalues --  -14.35383 -14.35290 -14.34813 -14.33695 -14.32404
 Alpha  occ. eigenvalues --  -14.32197 -14.31566 -14.31492 -14.30418 -14.28433
 Alpha  occ. eigenvalues --  -12.55655 -12.55639 -12.55602 -10.33623 -10.32024
 Alpha  occ. eigenvalues --  -10.29946 -10.29922 -10.29169 -10.28623 -10.28607
 Alpha  occ. eigenvalues --  -10.27825 -10.27691 -10.26735 -10.26441 -10.26233
 Alpha  occ. eigenvalues --  -10.25873 -10.25458 -10.25385 -10.25269 -10.24974
 Alpha  occ. eigenvalues --  -10.24895 -10.24702 -10.24502 -10.24254 -10.23087
 Alpha  occ. eigenvalues --  -10.22994 -10.22652 -10.22605 -10.22470 -10.22360
 Alpha  occ. eigenvalues --  -10.22350 -10.22226 -10.21928 -10.21677 -10.21560
 Alpha  occ. eigenvalues --  -10.20931 -10.20856 -10.20171 -10.20116 -10.19852
 Alpha  occ. eigenvalues --  -10.19771 -10.19381 -10.19115 -10.19094 -10.18973
 Alpha  occ. eigenvalues --  -10.17722 -10.17564 -10.17322 -10.16795 -10.16766
 Alpha  occ. eigenvalues --  -10.16728 -10.16458 -10.16391 -10.16372 -10.16302
 Alpha  occ. eigenvalues --  -10.15953 -10.15736  -1.79070  -1.12754  -1.08928
 Alpha  occ. eigenvalues --   -1.07568  -1.06879  -1.06666  -1.06421  -1.04835
 Alpha  occ. eigenvalues --   -1.04364  -1.04332  -1.03835  -1.03382  -1.02912
 Alpha  occ. eigenvalues --   -1.02320  -1.02173  -1.02047  -1.01620  -1.00653
 Alpha  occ. eigenvalues --   -1.00359  -0.99913  -0.99263  -0.99082  -0.98243
 Alpha  occ. eigenvalues --   -0.97524  -0.97130  -0.96786  -0.94555  -0.93244
 Alpha  occ. eigenvalues --   -0.93045  -0.92343  -0.92120  -0.91491  -0.91341
 Alpha  occ. eigenvalues --   -0.91039  -0.90406  -0.90290  -0.90158  -0.89329
 Alpha  occ. eigenvalues --   -0.88821  -0.88547  -0.87853  -0.87293  -0.85210
 Alpha  occ. eigenvalues --   -0.82324  -0.82164  -0.81367  -0.81153  -0.80258
 Alpha  occ. eigenvalues --   -0.78600  -0.77642  -0.77115  -0.76747  -0.76448
 Alpha  occ. eigenvalues --   -0.75794  -0.74585  -0.74131  -0.73316  -0.71982
 Alpha  occ. eigenvalues --   -0.71809  -0.71785  -0.71621  -0.70192  -0.70038
 Alpha  occ. eigenvalues --   -0.69549  -0.69100  -0.68810  -0.68393  -0.68026
 Alpha  occ. eigenvalues --   -0.67628  -0.66502  -0.65239  -0.64751  -0.64602
 Alpha  occ. eigenvalues --   -0.63570  -0.63357  -0.62379  -0.62291  -0.61887
 Alpha  occ. eigenvalues --   -0.61377  -0.61298  -0.59900  -0.59679  -0.59543
 Alpha  occ. eigenvalues --   -0.59459  -0.59272  -0.59204  -0.59142  -0.57829
 Alpha  occ. eigenvalues --   -0.57489  -0.57163  -0.56672  -0.56537  -0.56404
 Alpha  occ. eigenvalues --   -0.55882  -0.55818  -0.55578  -0.55183  -0.54802
 Alpha  occ. eigenvalues --   -0.54678  -0.54412  -0.53858  -0.53506  -0.53187
 Alpha  occ. eigenvalues --   -0.53103  -0.52303  -0.52042  -0.51861  -0.51483
 Alpha  occ. eigenvalues --   -0.51255  -0.51051  -0.50720  -0.50113  -0.50025
 Alpha  occ. eigenvalues --   -0.50002  -0.49533  -0.49197  -0.49163  -0.49013
 Alpha  occ. eigenvalues --   -0.48619  -0.48504  -0.48226  -0.48056  -0.47643
 Alpha  occ. eigenvalues --   -0.47307  -0.47226  -0.47099  -0.46796  -0.46568
 Alpha  occ. eigenvalues --   -0.46530  -0.46399  -0.46194  -0.46026  -0.45778
 Alpha  occ. eigenvalues --   -0.45607  -0.45437  -0.45068  -0.44922  -0.44719
 Alpha  occ. eigenvalues --   -0.44561  -0.44474  -0.44386  -0.44244  -0.43982
 Alpha  occ. eigenvalues --   -0.43554  -0.43541  -0.43372  -0.43284  -0.43092
 Alpha  occ. eigenvalues --   -0.42785  -0.42593  -0.42406  -0.42259  -0.42130
 Alpha  occ. eigenvalues --   -0.42055  -0.41801  -0.41748  -0.41655  -0.41481
 Alpha  occ. eigenvalues --   -0.41254  -0.41164  -0.40998  -0.40870  -0.40779
 Alpha  occ. eigenvalues --   -0.40679  -0.40347  -0.40237  -0.40188  -0.40170
 Alpha  occ. eigenvalues --   -0.39990  -0.39962  -0.39813  -0.39598  -0.39473
 Alpha  occ. eigenvalues --   -0.39390  -0.39315  -0.39289  -0.39090  -0.38996
 Alpha  occ. eigenvalues --   -0.38860  -0.38622  -0.38511  -0.38322  -0.38232
 Alpha  occ. eigenvalues --   -0.38181  -0.38034  -0.37673  -0.37626  -0.37539
 Alpha  occ. eigenvalues --   -0.37405  -0.37334  -0.37227  -0.37055  -0.36967
 Alpha  occ. eigenvalues --   -0.36724  -0.36628  -0.36332  -0.36155  -0.36073
 Alpha  occ. eigenvalues --   -0.35619  -0.35453  -0.35423  -0.35324  -0.35065
 Alpha  occ. eigenvalues --   -0.34949  -0.34536  -0.34422  -0.34284  -0.34035
 Alpha  occ. eigenvalues --   -0.33918  -0.33744  -0.33596  -0.33176  -0.33075
 Alpha  occ. eigenvalues --   -0.32816  -0.32624  -0.32137  -0.31896  -0.31574
 Alpha  occ. eigenvalues --   -0.31362  -0.31205  -0.30620  -0.30228  -0.30117
 Alpha  occ. eigenvalues --   -0.29587  -0.29287  -0.28986  -0.28653  -0.27744
 Alpha  occ. eigenvalues --   -0.27642  -0.27509  -0.27222  -0.26853  -0.26542
 Alpha  occ. eigenvalues --   -0.26303  -0.25752  -0.25328  -0.25274  -0.25105
 Alpha  occ. eigenvalues --   -0.24768  -0.24622  -0.24569  -0.24316  -0.24290
 Alpha  occ. eigenvalues --   -0.23963  -0.23890  -0.23776  -0.23297  -0.23047
 Alpha  occ. eigenvalues --   -0.22962  -0.22800  -0.22626  -0.22004  -0.21854
 Alpha  occ. eigenvalues --   -0.21644  -0.21509  -0.20543  -0.20507  -0.20350
 Alpha  occ. eigenvalues --   -0.19358  -0.19195  -0.18569
 Alpha virt. eigenvalues --   -0.09319  -0.04264  -0.03926  -0.03011  -0.02964
 Alpha virt. eigenvalues --   -0.00756  -0.00422   0.00429   0.00476   0.00648
 Alpha virt. eigenvalues --    0.00933   0.00992   0.01916   0.02282   0.02380

 Mulliken charges:
               1
     1  C    0.077673
     2  C    0.024713
     3  O   -0.288354
     4  H   -0.006273
     5  H    0.033349
     6  H    0.036958
     7  N   -0.123745
     8  C    0.092201
     9  C    0.074062
    10  O   -0.283529
    11  C    0.131635
    12  C    0.130125
    13  O   -0.455029
    14  O   -0.370489
    15  H    0.121407
    16  H    0.007297
    17  H    0.003694
    18  H   -0.017196
    19  N   -0.150464
    20  C    0.136567
    21  C    0.058601
    22  O   -0.286578
    23  C   -0.004098
    24  C   -0.029770
    25  C    0.000031
    26  C    0.035964
    27  N    0.089025
    28  H    0.143857
    29  H   -0.006980
    30  H   -0.026917
    31  H    0.026963
    32  H    0.050708
    33  H   -0.040888
    34  H    0.063804
    35  H    0.052833
    36  H    0.078315
    37  H    0.076401
    38  H    0.175222
    39  H    0.189614
    40  H    0.183485
    41  N   -0.153582
    42  C    0.145787
    43  C    0.067140
    44  O   -0.286846
    45  C    0.122469
    46  C    0.085399
    47  O   -0.436891
    48  O   -0.410554
    49  H    0.147106
    50  H    0.004996
    51  H   -0.004222
    52  H    0.015839
    53  N   -0.161203
    54  C    0.242743
    55  C    0.003278
    56  O   -0.289964
    57  H    0.131671
    58  H    0.011834
    59  H    0.031507
    60  N   -0.173950
    61  C    0.156481
    62  C    0.061962
    63  O   -0.277783
    64  C    0.052543
    65  C    0.054922
    66  N   -0.025711
    67  O   -0.343365
    68  H    0.146981
    69  H    0.021036
    70  H    0.022033
    71  H    0.049869
    72  H    0.119720
    73  H    0.075872
    74  N   -0.160395
    75  C    0.219584
    76  C    0.026369
    77  O   -0.300762
    78  H    0.135239
    79  H    0.038555
    80  H    0.026734
    81  N   -0.143289
    82  C    0.116738
    83  C    0.166068
    84  O   -0.390951
    85  C    0.158093
    86  C   -0.007922
    87  C   -0.005126
    88  C    0.004917
    89  C   -0.024997
    90  C    0.014027
    91  C    0.144050
    92  O   -0.199764
    93  H    0.167701
    94  H   -0.010762
    95  H   -0.023448
    96  H   -0.052196
    97  H   -0.040193
    98  H   -0.052758
    99  H   -0.040487
   100  H   -0.024509
   101  H    0.164121
   102  N   -0.101168
   103  C    0.150642
   104  C    0.063779
   105  O   -0.292711
   106  C   -0.105268
   107  C    0.001314
   108  C    0.054013
   109  C    0.036595
   110  H    0.137923
   111  H    0.004292
   112  H   -0.013221
   113  H    0.001368
   114  H   -0.001215
   115  H    0.023797
   116  H    0.029408
   117  H   -0.001816
   118  H    0.007287
   119  H    0.009649
   120  H   -0.003832
   121  N   -0.109603
   122  C    0.048527
   123  C    0.099643
   124  O   -0.285186
   125  C    0.282188
   126  O   -0.351514
   127  H    0.163527
   128  H    0.024515
   129  H    0.021858
   130  H   -0.034159
   131  H    0.179277
   132  N   -0.132063
   133  C    0.087011
   134  C    0.043052
   135  O   -0.267652
   136  C    0.044154
   137  H    0.124091
   138  H    0.030219
   139  H    0.042597
   140  H    0.042281
   141  H    0.007940
   142  N   -0.145129
   143  C    0.111096
   144  C    0.085892
   145  O   -0.259236
   146  C    0.017329
   147  H    0.101748
   148  H    0.030165
   149  H    0.014712
   150  H    0.005811
   151  H    0.026882
   152  N   -0.177334
   153  C    0.098713
   154  C    0.085533
   155  O   -0.307385
   156  C   -0.043083
   157  C    0.154996
   158  C    0.158489
   159  O   -0.433607
   160  O   -0.410925
   161  H    0.133961
   162  H   -0.022532
   163  H    0.049783
   164  H   -0.012338
   165  H   -0.011830
   166  H   -0.038701
   167  N   -0.148513
   168  C    0.147152
   169  H    0.021048
   170  H    0.026180
   171  H    0.025851
   172  H    0.141214
   173  Ca   1.256070
   174  O   -0.256650
   175  H    0.193716
   176  H    0.203439
 Sum of Mulliken charges =  -0.00000

 Dipole moment (field-independent basis, Debye):
    X=             28.1237    Y=              1.5312    Z=             -7.7881  Tot=             29.2223
 Quadrupole moment (field-independent basis, Debye-Ang):
   XX=           -647.5685   YY=           -446.2060   ZZ=           -496.9984
   XY=            134.9812   XZ=             23.0248   YZ=             65.6974

 ESP charges:
               1
     1  C   -0.395184
     2  C    1.035905
     3  O   -0.728980
     4  H    0.069595
     5  H    0.114680
     6  H    0.100404
     7  N   -1.043347
     8  C    0.663591
     9  C    0.204848
    10  O   -0.522669
    11  C   -0.371917
    12  C    1.015149
    13  O   -0.970150
    14  O   -0.679042
    15  H    0.414765
    16  H   -0.068243
    17  H    0.083713
    18  H    0.025455
    19  N    0.248400
    20  C   -0.087033
    21  C    0.389493
    22  O   -0.546598
    23  C   -0.129952
    24  C    0.171637
    25  C   -0.004350
    26  C   -0.052447
    27  N   -0.273508
    28  H   -0.105012
    29  H    0.074591
    30  H    0.070819
    31  H    0.024674
    32  H   -0.130519
    33  H   -0.018958
    34  H    0.076013
    35  H    0.030697
    36  H    0.062065
    37  H    0.097014
    38  H    0.293081
    39  H    0.319967
    40  H    0.308185
    41  N   -0.282256
    42  C    0.137141
    43  C    0.388696
    44  O   -0.544209
    45  C   -0.441380
    46  C    0.806331
    47  O   -0.734240
    48  O   -0.754659
    49  H    0.240848
    50  H    0.098286
    51  H    0.108012
    52  H    0.129525
    53  N    0.014578
    54  C   -0.387131
    55  C    0.627108
    56  O   -0.557831
    57  H    0.060336
    58  H    0.143956
    59  H    0.167416
    60  N   -0.423971
    61  C   -0.005448
    62  C    0.197583
    63  O   -0.437396
    64  C   -0.192136
    65  C    0.629180
    66  N   -0.868551
    67  O   -0.418959
    68  H    0.301062
    69  H    0.116867
    70  H    0.087624
    71  H    0.099652
    72  H    0.387043
    73  H    0.363666
    74  N    0.246473
    75  C   -0.510346
    76  C    0.810233
    77  O   -0.605161
    78  H    0.023675
    79  H    0.170445
    80  H    0.136374
    81  N   -0.749376
    82  C    0.620041
    83  C    0.309622
    84  O   -0.579184
    85  C    0.120681
    86  C   -0.311667
    87  C    0.166469
    88  C    0.056671
    89  C   -0.522993
    90  C   -0.321326
    91  C    0.443790
    92  O   -0.523868
    93  H    0.470904
    94  H   -0.094914
    95  H   -0.045235
    96  H   -0.051403
    97  H    0.051211
    98  H    0.050657
    99  H    0.202084
   100  H    0.156417
   101  H    0.381590
   102  N   -0.639299
   103  C    0.108759
   104  C    0.927186
   105  O   -0.624021
   106  C   -0.125642
   107  C    0.416273
   108  C   -0.185650
   109  C   -0.461650
   110  H    0.371412
   111  H    0.104643
   112  H    0.041571
   113  H   -0.054325
   114  H   -0.078772
   115  H    0.025586
   116  H    0.058760
   117  H    0.055793
   118  H    0.091065
   119  H    0.125910
   120  H    0.089475
   121  N   -0.695779
   122  C    0.124905
   123  C    0.641049
   124  O   -0.442216
   125  C    0.087893
   126  O   -0.559933
   127  H    0.371305
   128  H    0.025136
   129  H    0.052153
   130  H    0.003673
   131  H    0.382857
   132  N   -0.572108
   133  C    0.201771
   134  C    0.495235
   135  O   -0.541625
   136  C   -0.403742
   137  H    0.319817
   138  H    0.082597
   139  H    0.129540
   140  H    0.130776
   141  H    0.097532
   142  N   -0.354979
   143  C    0.025734
   144  C    0.494676
   145  O   -0.532932
   146  C   -0.261922
   147  H    0.253245
   148  H    0.116615
   149  H    0.083515
   150  H    0.064179
   151  H    0.087231
   152  N   -0.257331
   153  C    0.150054
   154  C    0.414074
   155  O   -0.568034
   156  C    0.049354
   157  C   -0.364464
   158  C    0.778124
   159  O   -0.686901
   160  O   -0.615488
   161  H    0.110523
   162  H   -0.016858
   163  H    0.218207
   164  H   -0.138172
   165  H    0.050622
   166  H    0.102853
   167  N   -0.050187
   168  C   -0.161541
   169  H    0.064576
   170  H    0.080475
   171  H    0.093966
   172  H    0.085472
   173  Ca   1.522997
   174  O   -0.755321
   175  H    0.411766
   176  H    0.402518
 Sum of ESP charges =   0.00000

 Normal termination of Gaussian 16 at Sat Sep 14 23:48:01 2019.
