 Gaussian 16, Revision A.03,
 Gaussian 16:  ES64L-G16RevA.03 25-Dec-2016

 ----------------------------------------------------------------------
 #b3lyp/svp scf=(tight,noincore) Test #IOP(5/87=12) Density=Current Pop
 =(MK,readradii) iop(6/33=2) iop(6/42=6)
 ----------------------------------------------------------------------

 -----------------
 CaMKII_loop3_78.0
 -----------------
 Symbolic Z-matrix:
 Charge =  0 Multiplicity = 1

                         Standard orientation:
 ---------------------------------------------------------------------
 Center     Atomic      Atomic             Coordinates (Angstroms)
 Number     Number       Type             X           Y           Z
 ---------------------------------------------------------------------
      1          6           0        2.137214    1.263011    5.855856
      2          6           0        1.605537    1.204516    4.426416
      3          8           0        2.355779    0.890583    3.514504
      4          1           0        3.224563    1.186346    5.841603
      5          1           0        1.845664    2.208185    6.314842
      6          1           0        1.723030    0.435563    6.432342
      7          7           0        0.309743    1.411431    4.211465
      8          6           0       -0.263204    1.698506    2.916854
      9          6           0        0.121298    3.126679    2.560371
     10          8           0       -0.111881    4.021253    3.374290
     11          6           0       -1.772233    1.541030    3.069939
     12          6           0       -2.555223    1.564132    1.765335
     13          8           0       -1.943000    2.016360    0.767701
     14          8           0       -3.752684    1.215278    1.755938
     15          1           0       -0.262807    1.572109    5.036552
     16          1           0        0.033388    0.941099    2.200218
     17          1           0       -2.157154    2.380185    3.653852
     18          1           0       -1.965858    0.605640    3.599140
     19          7           0        0.766659    3.257016    1.393657
     20          6           0        1.179585    4.559986    0.935114
     21          6           0        0.043220    5.446831    0.442896
     22          8           0        0.176265    6.662666    0.393467
     23          6           0        2.239463    4.390436   -0.151952
     24          6           0        3.017999    5.597464   -0.667282
     25          6           0        4.128270    5.183054   -1.629032
     26          6           0        4.822590    6.291016   -2.420575
     27          7           0        5.642462    5.650380   -3.461006
     28          1           0        0.891487    2.456813    0.784564
     29          1           0        1.630193    5.087321    1.770739
     30          1           0        1.766603    3.991927   -1.050892
     31          1           0        2.904953    3.597545    0.210466
     32          1           0        3.532172    5.991251    0.218584
     33          1           0        2.489268    6.397047   -1.188924
     34          1           0        3.706956    4.425741   -2.289010
     35          1           0        4.868982    4.602721   -1.067465
     36          1           0        5.459167    6.935351   -1.819741
     37          1           0        3.975689    6.797247   -2.885536
     38          1           0        6.141629    6.378706   -3.951897
     39          1           0        6.402960    5.148786   -3.033635
     40          1           0        5.221820    5.024159   -4.135624
     41          7           0       -1.042671    4.862796   -0.062123
     42          6           0       -2.133192    5.510485   -0.774347
     43          6           0       -3.502450    5.265369   -0.163240
     44          8           0       -4.346722    6.134042   -0.360753
     45          6           0       -2.183425    5.124331   -2.246815
     46          6           0       -2.043712    3.611433   -2.344886
     47          8           0       -0.916349    3.206385   -2.682361
     48          8           0       -2.927301    2.795969   -1.989374
     49          1           0       -1.080755    3.856063    0.012966
     50          1           0       -1.987390    6.585253   -0.617773
     51          1           0       -1.303474    5.631885   -2.647908
     52          1           0       -2.976708    5.535928   -2.859996
     53          7           0       -3.805647    4.132676    0.465789
     54          6           0       -5.043977    3.948694    1.193174
     55          6           0       -6.079067    3.081141    0.515132
     56          8           0       -7.278254    3.123218    0.802670
     57          1           0       -3.144398    3.353745    0.488519
     58          1           0       -5.550859    4.901797    1.350541
     59          1           0       -4.784363    3.448088    2.125533
     60          7           0       -5.596784    2.191250   -0.354695
     61          6           0       -6.423518    1.267421   -1.103594
     62          6           0       -6.779263   -0.016586   -0.356485
     63          8           0       -7.495580   -0.912659   -0.797102
     64          6           0       -5.827533    1.023439   -2.482316
     65          6           0       -4.707118   -0.019098   -2.435526
     66          7           0       -4.813270   -1.000724   -3.334159
     67          8           0       -3.779836    0.004034   -1.632461
     68          1           0       -4.592717    2.125345   -0.454723
     69          1           0       -7.396800    1.706813   -1.339512
     70          1           0       -5.452810    1.946199   -2.931868
     71          1           0       -6.624739    0.586605   -3.076739
     72          1           0       -5.680253   -1.098790   -3.835481
     73          1           0       -4.062552   -1.654386   -3.517591
     74          7           0       -6.282675   -0.126201    0.877486
     75          6           0       -6.561552   -1.218245    1.782841
     76          6           0       -5.521246   -2.329359    1.792487
     77          8           0       -5.699608   -3.468878    2.229501
     78          1           0       -5.519469    0.525994    0.980724
     79          1           0       -7.557304   -1.640613    1.657215
     80          1           0       -6.614644   -0.831458    2.798556
     81          7           0       -4.355989   -2.056454    1.222751
     82          6           0       -3.339295   -2.979967    0.745827
     83          6           0       -1.908926   -2.479454    0.839800
     84          8           0       -1.573582   -1.338046    0.515715
     85          6           0       -3.465860   -3.429888   -0.700047
     86          6           0       -4.584510   -4.392494   -1.003546
     87          6           0       -4.405965   -5.782283   -0.946904
     88          6           0       -5.791181   -3.859726   -1.452326
     89          6           0       -5.448111   -6.628417   -1.371980
     90          6           0       -6.849151   -4.694697   -1.839654
     91          6           0       -6.668655   -6.096826   -1.818281
     92          8           0       -7.689962   -6.883903   -2.260031
     93          1           0       -4.234543   -1.072145    0.998504
     94          1           0       -3.483656   -3.981504    1.156294
     95          1           0       -2.540019   -3.982327   -0.863841
     96          1           0       -3.398195   -2.567607   -1.363744
     97          1           0       -3.526644   -6.274006   -0.575956
     98          1           0       -5.852442   -2.792381   -1.610824
     99          1           0       -5.271804   -7.690700   -1.333644
    100          1           0       -7.732910   -4.306492   -2.324902
    101          1           0       -8.429757   -6.326148   -2.504598
    102          7           0       -1.089384   -3.397466    1.359422
    103          6           0        0.319460   -3.119488    1.549909
    104          6           0        1.017862   -3.906172    0.446114
    105          8           0        0.668014   -4.988000   -0.008479
    106          6           0        0.837922   -3.513151    2.932669
    107          6           0        0.204530   -2.692091    4.053551
    108          6           0        2.333907   -3.252787    3.037738
    109          6           0        0.339612   -3.224962    5.483656
    110          1           0       -1.409091   -4.329131    1.588307
    111          1           0        0.551042   -2.050906    1.497908
    112          1           0        0.695760   -4.586006    3.039312
    113          1           0       -0.874153   -2.563581    4.048159
    114          1           0        0.622903   -1.693480    4.005174
    115          1           0        2.935718   -3.999250    2.501440
    116          1           0        2.599030   -2.286103    2.600780
    117          1           0        2.690933   -3.478244    4.040834
    118          1           0       -0.238997   -4.134461    5.605406
    119          1           0        1.352315   -3.542157    5.715861
    120          1           0       -0.043384   -2.462918    6.162702
    121          7           0        2.238988   -3.520682    0.081081
    122          6           0        3.093560   -4.133469   -0.913303
    123          6           0        4.529473   -3.725577   -0.630675
    124          8           0        4.776259   -2.826711    0.168597
    125          6           0        2.760724   -3.728218   -2.340885
    126          8           0        2.597856   -2.337527   -2.470694
    127          1           0        2.513194   -2.597794    0.399966
    128          1           0        3.059660   -5.221396   -0.772716
    129          1           0        1.851145   -4.275163   -2.608126
    130          1           0        3.560421   -4.085515   -2.996723
    131          1           0        2.584356   -2.073827   -3.388779
    132          7           0        5.489581   -4.425277   -1.237234
    133          6           0        6.882823   -4.307232   -0.847053
    134          6           0        7.570387   -2.958292   -0.997438
    135          8           0        8.263413   -2.540667   -0.067489
    136          6           0        7.571598   -5.367705   -1.691142
    137          1           0        5.185581   -5.196574   -1.812112
    138          1           0        6.923738   -4.641604    0.190840
    139          1           0        6.988905   -6.290270   -1.638765
    140          1           0        7.763497   -5.046064   -2.723044
    141          1           0        8.485102   -5.683700   -1.206829
    142          7           0        7.247734   -2.180979   -2.030095
    143          6           0        7.687397   -0.821123   -2.271730
    144          6           0        7.118794    0.205409   -1.295706
    145          8           0        7.826550    1.193740   -1.060795
    146          6           0        7.312329   -0.435917   -3.703141
    147          1           0        6.839565   -2.585755   -2.852381
    148          1           0        8.774125   -0.846666   -2.293412
    149          1           0        7.438666    0.648100   -3.772035
    150          1           0        7.918799   -0.896615   -4.480927
    151          1           0        6.260590   -0.650345   -3.881933
    152          7           0        5.985933   -0.117759   -0.689581
    153          6           0        5.363962    0.638432    0.383745
    154          6           0        5.805073    0.250495    1.780071
    155          8           0        6.118207    1.154886    2.549892
    156          6           0        3.854495    0.564498    0.130480
    157          6           0        3.385332    0.941825   -1.266520
    158          6           0        1.867030    0.954356   -1.326535
    159          8           0        1.281084    0.876828   -2.423420
    160          8           0        1.087131    1.069433   -0.352361
    161          1           0        5.620059   -1.047251   -0.798577
    162          1           0        5.688106    1.673614    0.269160
    163          1           0        3.470874    1.277645    0.863458
    164          1           0        3.467361   -0.417779    0.401697
    165          1           0        3.708727    0.097234   -1.874617
    166          1           0        3.771093    1.903144   -1.595692
    167          7           0        6.090158   -1.022087    2.085131
    168          6           0        6.687934   -1.401431    3.353856
    169          1           0        7.766789   -1.257360    3.304152
    170          1           0        6.275949   -0.781304    4.150132
    171          1           0        6.471227   -2.449360    3.559367
    172          1           0        5.845464   -1.686708    1.368469
    173         20           0       -1.197146    0.723772   -1.318952
    174          8           0       -1.601060    0.086778   -4.001952
    175          1           0       -2.208306    0.165306   -4.740658
    176          1           0       -1.255186   -0.814046   -4.067433
 ---------------------------------------------------------------------

 SCF Done:  E(RB3LYP) =  -5333.56273336     A.U. after   21 cycles

 The electronic state is 1-A.
 Alpha  occ. eigenvalues -- -145.36567 -19.17565 -19.17546 -19.15804 -19.15224
 Alpha  occ. eigenvalues --  -19.13174 -19.12517 -19.11785 -19.11346 -19.10106
 Alpha  occ. eigenvalues --  -19.06814 -19.06496 -19.06258 -19.06185 -19.06082
 Alpha  occ. eigenvalues --  -19.05942 -19.05820 -19.05333 -19.04901 -19.04871
 Alpha  occ. eigenvalues --  -19.03853 -19.02424 -19.02369 -19.01698 -15.42264
 Alpha  occ. eigenvalues --  -14.58105 -14.41201 -14.39041 -14.37722 -14.37125
 Alpha  occ. eigenvalues --  -14.37026 -14.35828 -14.32570 -14.32401 -14.32231
 Alpha  occ. eigenvalues --  -14.31354 -14.30735 -14.30175 -14.29910 -14.28055
 Alpha  occ. eigenvalues --  -12.55897 -12.55846 -12.55818 -10.34428 -10.33661
 Alpha  occ. eigenvalues --  -10.31710 -10.30923 -10.30206 -10.29895 -10.29119
 Alpha  occ. eigenvalues --  -10.28085 -10.27850 -10.27681 -10.25763 -10.25695
 Alpha  occ. eigenvalues --  -10.25436 -10.25264 -10.25229 -10.25180 -10.24892
 Alpha  occ. eigenvalues --  -10.24841 -10.24839 -10.24071 -10.24007 -10.23690
 Alpha  occ. eigenvalues --  -10.23643 -10.22878 -10.22727 -10.22430 -10.21912
 Alpha  occ. eigenvalues --  -10.21446 -10.21321 -10.21282 -10.20917 -10.20685
 Alpha  occ. eigenvalues --  -10.20181 -10.20100 -10.20071 -10.19189 -10.19098
 Alpha  occ. eigenvalues --  -10.19063 -10.18656 -10.18487 -10.18401 -10.18247
 Alpha  occ. eigenvalues --  -10.18061 -10.17940 -10.17905 -10.17729 -10.17727
 Alpha  occ. eigenvalues --  -10.17612 -10.17488 -10.17472 -10.16811 -10.16324
 Alpha  occ. eigenvalues --  -10.15326 -10.13531  -1.79051  -1.13498  -1.09078
 Alpha  occ. eigenvalues --   -1.06793  -1.06481  -1.06376  -1.05929  -1.05533
 Alpha  occ. eigenvalues --   -1.05457  -1.04728  -1.04262  -1.04069  -1.03293
 Alpha  occ. eigenvalues --   -1.02586  -1.01933  -1.00282  -0.99907  -0.99837
 Alpha  occ. eigenvalues --   -0.99519  -0.99024  -0.98680  -0.98366  -0.97889
 Alpha  occ. eigenvalues --   -0.97241  -0.96816  -0.95822  -0.95696  -0.94794
 Alpha  occ. eigenvalues --   -0.93767  -0.92903  -0.91972  -0.90617  -0.90076
 Alpha  occ. eigenvalues --   -0.89701  -0.89187  -0.88821  -0.88517  -0.88346
 Alpha  occ. eigenvalues --   -0.87635  -0.86981  -0.86844  -0.86545  -0.84621
 Alpha  occ. eigenvalues --   -0.84192  -0.83783  -0.82923  -0.80715  -0.80107
 Alpha  occ. eigenvalues --   -0.79383  -0.78880  -0.78474  -0.76697  -0.75675
 Alpha  occ. eigenvalues --   -0.75148  -0.74275  -0.73132  -0.73013  -0.72801
 Alpha  occ. eigenvalues --   -0.72679  -0.72077  -0.71480  -0.70897  -0.70821
 Alpha  occ. eigenvalues --   -0.70278  -0.69907  -0.69168  -0.68223  -0.67927
 Alpha  occ. eigenvalues --   -0.67030  -0.65869  -0.65447  -0.65029  -0.64333
 Alpha  occ. eigenvalues --   -0.63515  -0.63258  -0.62549  -0.62398  -0.61871
 Alpha  occ. eigenvalues --   -0.61268  -0.61041  -0.60704  -0.60606  -0.60416
 Alpha  occ. eigenvalues --   -0.59966  -0.59351  -0.59100  -0.58155  -0.58004
 Alpha  occ. eigenvalues --   -0.56987  -0.56794  -0.56712  -0.56333  -0.56229
 Alpha  occ. eigenvalues --   -0.55868  -0.55792  -0.55763  -0.55065  -0.54982
 Alpha  occ. eigenvalues --   -0.54630  -0.54515  -0.54160  -0.53745  -0.53612
 Alpha  occ. eigenvalues --   -0.53559  -0.52618  -0.52261  -0.52149  -0.52087
 Alpha  occ. eigenvalues --   -0.51532  -0.51297  -0.50870  -0.50392  -0.50212
 Alpha  occ. eigenvalues --   -0.49487  -0.49147  -0.49137  -0.48857  -0.48548
 Alpha  occ. eigenvalues --   -0.48406  -0.48307  -0.48073  -0.47824  -0.47775
 Alpha  occ. eigenvalues --   -0.47491  -0.47285  -0.47187  -0.46834  -0.46802
 Alpha  occ. eigenvalues --   -0.46278  -0.45927  -0.45798  -0.45660  -0.45591
 Alpha  occ. eigenvalues --   -0.45118  -0.44987  -0.44806  -0.44651  -0.44295
 Alpha  occ. eigenvalues --   -0.44159  -0.43974  -0.43866  -0.43819  -0.43751
 Alpha  occ. eigenvalues --   -0.43517  -0.43297  -0.43191  -0.43078  -0.42950
 Alpha  occ. eigenvalues --   -0.42899  -0.42708  -0.42574  -0.42184  -0.42069
 Alpha  occ. eigenvalues --   -0.41921  -0.41858  -0.41763  -0.41634  -0.41477
 Alpha  occ. eigenvalues --   -0.41300  -0.41262  -0.41194  -0.40898  -0.40764
 Alpha  occ. eigenvalues --   -0.40736  -0.40499  -0.40430  -0.40150  -0.39904
 Alpha  occ. eigenvalues --   -0.39724  -0.39640  -0.39542  -0.39294  -0.39004
 Alpha  occ. eigenvalues --   -0.38896  -0.38729  -0.38608  -0.38466  -0.38305
 Alpha  occ. eigenvalues --   -0.38183  -0.38047  -0.37865  -0.37827  -0.37665
 Alpha  occ. eigenvalues --   -0.37632  -0.37515  -0.37391  -0.37226  -0.37187
 Alpha  occ. eigenvalues --   -0.36976  -0.36792  -0.36651  -0.36618  -0.36259
 Alpha  occ. eigenvalues --   -0.35994  -0.35740  -0.35474  -0.35288  -0.35102
 Alpha  occ. eigenvalues --   -0.34734  -0.34621  -0.34587  -0.34430  -0.34331
 Alpha  occ. eigenvalues --   -0.34081  -0.33975  -0.33682  -0.33521  -0.33466
 Alpha  occ. eigenvalues --   -0.33275  -0.33235  -0.33109  -0.33039  -0.32860
 Alpha  occ. eigenvalues --   -0.32701  -0.32534  -0.32427  -0.32328  -0.32036
 Alpha  occ. eigenvalues --   -0.31948  -0.31372  -0.31291  -0.30790  -0.30771
 Alpha  occ. eigenvalues --   -0.30074  -0.29623  -0.29232  -0.29109  -0.28624
 Alpha  occ. eigenvalues --   -0.28199  -0.27736  -0.27621  -0.27064  -0.27021
 Alpha  occ. eigenvalues --   -0.26450  -0.25560  -0.25040  -0.24604  -0.24537
 Alpha  occ. eigenvalues --   -0.24260  -0.23691  -0.23659  -0.23501  -0.23174
 Alpha  occ. eigenvalues --   -0.22814  -0.22698  -0.22347  -0.21991  -0.21950
 Alpha  occ. eigenvalues --   -0.21676  -0.21412  -0.21133  -0.20901  -0.20868
 Alpha  occ. eigenvalues --   -0.20731  -0.20299  -0.20004  -0.19897  -0.19752
 Alpha  occ. eigenvalues --   -0.18065  -0.17973  -0.16829
 Alpha virt. eigenvalues --   -0.09994  -0.04276  -0.03746  -0.03515  -0.02802
 Alpha virt. eigenvalues --   -0.02354  -0.01553  -0.00776  -0.00365  -0.00294
 Alpha virt. eigenvalues --    0.00012   0.00267   0.00587   0.01001   0.01769

 Mulliken charges:
               1
     1  C    0.047046
     2  C    0.025142
     3  O   -0.286086
     4  H    0.033845
     5  H    0.028601
     6  H    0.016839
     7  N   -0.128600
     8  C    0.113387
     9  C    0.096582
    10  O   -0.288561
    11  C    0.060356
    12  C    0.164909
    13  O   -0.493455
    14  O   -0.368472
    15  H    0.112870
    16  H   -0.002921
    17  H    0.021448
    18  H   -0.001689
    19  N   -0.157211
    20  C    0.173964
    21  C    0.056303
    22  O   -0.299393
    23  C   -0.056468
    24  C    0.097545
    25  C   -0.148389
    26  C    0.090238
    27  N    0.080202
    28  H    0.157788
    29  H    0.000028
    30  H    0.035249
    31  H    0.026140
    32  H    0.008921
    33  H    0.025119
    34  H    0.028232
    35  H    0.032913
    36  H    0.082666
    37  H    0.078061
    38  H    0.179689
    39  H    0.186432
    40  H    0.195281
    41  N   -0.145650
    42  C    0.075215
    43  C    0.060158
    44  O   -0.301696
    45  C    0.198690
    46  C    0.027496
    47  O   -0.392503
    48  O   -0.407963
    49  H    0.155840
    50  H    0.016248
    51  H   -0.037265
    52  H   -0.004484
    53  N   -0.183108
    54  C    0.238881
    55  C    0.020070
    56  O   -0.296254
    57  H    0.159906
    58  H    0.023958
    59  H    0.027737
    60  N   -0.168253
    61  C    0.130150
    62  C    0.020848
    63  O   -0.300057
    64  C    0.105690
    65  C    0.073841
    66  N   -0.054541
    67  O   -0.328695
    68  H    0.158338
    69  H    0.031605
    70  H    0.067441
    71  H   -0.011141
    72  H    0.133639
    73  H    0.108940
    74  N   -0.160124
    75  C    0.246845
    76  C    0.007540
    77  O   -0.294265
    78  H    0.163333
    79  H    0.036772
    80  H    0.028464
    81  N   -0.122742
    82  C    0.140205
    83  C    0.148254
    84  O   -0.342281
    85  C    0.096082
    86  C    0.014757
    87  C   -0.010248
    88  C    0.007418
    89  C   -0.037804
    90  C   -0.031468
    91  C    0.171026
    92  O   -0.191127
    93  H    0.130131
    94  H   -0.008994
    95  H   -0.022909
    96  H   -0.038488
    97  H   -0.039800
    98  H   -0.032657
    99  H   -0.035797
   100  H   -0.041395
   101  H    0.170633
   102  N   -0.108722
   103  C    0.083304
   104  C    0.082363
   105  O   -0.293637
   106  C   -0.058691
   107  C    0.016713
   108  C    0.046308
   109  C    0.034203
   110  H    0.141349
   111  H    0.040830
   112  H   -0.026664
   113  H    0.002297
   114  H    0.022826
   115  H   -0.010702
   116  H    0.036544
   117  H    0.005793
   118  H    0.000865
   119  H   -0.004621
   120  H    0.020393
   121  N   -0.131790
   122  C    0.103491
   123  C    0.067860
   124  O   -0.291093
   125  C    0.237365
   126  O   -0.288162
   127  H    0.157184
   128  H    0.031558
   129  H    0.018858
   130  H   -0.034700
   131  H    0.180508
   132  N   -0.116667
   133  C    0.088963
   134  C    0.081078
   135  O   -0.243386
   136  C    0.014269
   137  H    0.124752
   138  H    0.026834
   139  H    0.015493
   140  H    0.027208
   141  H    0.037294
   142  N   -0.127215
   143  C    0.086208
   144  C    0.072933
   145  O   -0.297443
   146  C    0.018455
   147  H    0.099895
   148  H    0.021860
   149  H    0.011261
   150  H    0.026106
   151  H    0.004723
   152  N   -0.144098
   153  C    0.129254
   154  C    0.099923
   155  O   -0.285012
   156  C   -0.040689
   157  C    0.130345
   158  C    0.129472
   159  O   -0.394862
   160  O   -0.467877
   161  H    0.139659
   162  H   -0.014492
   163  H    0.049036
   164  H   -0.008752
   165  H   -0.027182
   166  H   -0.027374
   167  N   -0.169195
   168  C    0.152616
   169  H    0.024643
   170  H    0.037544
   171  H   -0.001303
   172  H    0.111555
   173  Ca   1.258634
   174  O   -0.253881
   175  H    0.177954
   176  H    0.160637
 Sum of Mulliken charges =  -0.00000

 Dipole moment (field-independent basis, Debye):
    X=             31.1349    Y=             -8.0245    Z=            -25.3215  Tot=             40.9262
 Quadrupole moment (field-independent basis, Debye-Ang):
   XX=           -574.3017   YY=           -528.8304   ZZ=           -462.6155
   XY=             95.0850   XZ=            -82.2572   YZ=            -57.0275

 ESP charges:
               1
     1  C   -0.487282
     2  C    0.930393
     3  O   -0.684355
     4  H    0.141695
     5  H    0.113841
     6  H    0.100923
     7  N   -0.803307
     8  C    0.266903
     9  C    0.491949
    10  O   -0.537784
    11  C   -0.377193
    12  C    0.873425
    13  O   -0.598210
    14  O   -0.699725
    15  H    0.363619
    16  H    0.064654
    17  H    0.110131
    18  H    0.072880
    19  N   -0.141310
    20  C   -0.616417
    21  C    0.793056
    22  O   -0.596682
    23  C    0.502780
    24  C   -0.550188
    25  C    0.296499
    26  C   -0.097773
    27  N   -0.321397
    28  H    0.186165
    29  H    0.194194
    30  H    0.004589
    31  H    0.009730
    32  H    0.107137
    33  H    0.152969
    34  H   -0.018765
    35  H   -0.034798
    36  H    0.123572
    37  H    0.108015
    38  H    0.313834
    39  H    0.312528
    40  H    0.328774
    41  N   -0.605737
    42  C    0.258303
    43  C    0.387750
    44  O   -0.561394
    45  C   -0.422345
    46  C    0.805992
    47  O   -0.737775
    48  O   -0.731594
    49  H    0.310078
    50  H    0.063414
    51  H    0.086514
    52  H    0.125277
    53  N    0.023221
    54  C   -0.333979
    55  C    0.662277
    56  O   -0.606859
    57  H   -0.061542
    58  H    0.139715
    59  H    0.128118
    60  N   -0.291272
    61  C   -0.019826
    62  C    0.384177
    63  O   -0.513363
    64  C   -0.215881
    65  C    0.706931
    66  N   -0.890031
    67  O   -0.556314
    68  H    0.144957
    69  H    0.132260
    70  H    0.126980
    71  H    0.054441
    72  H    0.399144
    73  H    0.374278
    74  N   -0.155409
    75  C   -0.179323
    76  C    0.614969
    77  O   -0.564825
    78  H    0.222737
    79  H    0.129960
    80  H    0.093670
    81  N   -0.529723
    82  C    0.060906
    83  C    0.898885
    84  O   -0.750452
    85  C    0.214188
    86  C   -0.095497
    87  C   -0.182054
    88  C   -0.009976
    89  C   -0.225228
    90  C   -0.296032
    91  C    0.370576
    92  O   -0.561198
    93  H    0.256593
    94  H    0.092696
    95  H   -0.043630
    96  H   -0.115535
    97  H    0.137868
    98  H    0.116086
    99  H    0.150475
   100  H    0.117471
   101  H    0.418490
   102  N   -0.917829
   103  C   -0.048474
   104  C    0.798069
   105  O   -0.579955
   106  C    0.174613
   107  C    0.152079
   108  C   -0.263849
   109  C   -0.366129
   110  H    0.391946
   111  H    0.190649
   112  H    0.002068
   113  H    0.026067
   114  H    0.007274
   115  H    0.048814
   116  H    0.013115
   117  H    0.096792
   118  H    0.078638
   119  H    0.069927
   120  H    0.104015
   121  N   -0.530720
   122  C    0.092145
   123  C    0.531700
   124  O   -0.395447
   125  C    0.079881
   126  O   -0.530495
   127  H    0.198752
   128  H    0.068755
   129  H    0.052926
   130  H   -0.007085
   131  H    0.408428
   132  N   -0.504105
   133  C    0.215152
   134  C    0.430182
   135  O   -0.511445
   136  C   -0.301539
   137  H    0.282488
   138  H    0.069451
   139  H    0.093850
   140  H    0.074723
   141  H    0.101558
   142  N   -0.349304
   143  C    0.130003
   144  C    0.329783
   145  O   -0.525717
   146  C   -0.342546
   147  H    0.249101
   148  H    0.095648
   149  H    0.093579
   150  H    0.106742
   151  H    0.076289
   152  N   -0.013689
   153  C   -0.135500
   154  C    0.531883
   155  O   -0.547600
   156  C   -0.029233
   157  C   -0.094258
   158  C    0.898378
   159  O   -0.780696
   160  O   -0.955939
   161  H    0.089867
   162  H    0.086822
   163  H    0.052373
   164  H    0.085127
   165  H   -0.042598
   166  H   -0.034751
   167  N   -0.112216
   168  C   -0.263626
   169  H    0.110874
   170  H    0.112054
   171  H    0.093790
   172  H    0.113902
   173  Ca   1.702083
   174  O   -0.761289
   175  H    0.417533
   176  H    0.364473
 Sum of ESP charges =  -0.00000

 Normal termination of Gaussian 16 at Sun Sep 15 00:01:14 2019.
