 Gaussian 16, Revision A.03,
 Gaussian 16:  ES64L-G16RevA.03 25-Dec-2016

 ----------------------------------------------------------------------
 #b3lyp/svp scf=(tight,noincore) Test #IOP(5/87=12) Density=Current Pop
 =(MK,readradii) iop(6/33=2) iop(6/42=6)
 ----------------------------------------------------------------------

 ------------------
 CaMKII_loop3_112.0
 ------------------
 Symbolic Z-matrix:
 Charge =  0 Multiplicity = 1

                         Standard orientation:
 ---------------------------------------------------------------------
 Center     Atomic      Atomic             Coordinates (Angstroms)
 Number     Number       Type             X           Y           Z
 ---------------------------------------------------------------------
      1          6           0        1.674067    2.402045    5.959128
      2          6           0        1.187339    2.035134    4.564936
      3          8           0        1.974790    1.780726    3.657579
      4          1           0        1.164803    1.781761    6.696131
      5          1           0        2.748492    2.234134    6.025228
      6          1           0        1.456537    3.451613    6.156138
      7          7           0       -0.121613    2.140402    4.301184
      8          6           0       -0.721299    2.094428    2.992077
      9          6           0       -0.749777    3.485595    2.369225
     10          8           0       -1.517501    4.358291    2.755880
     11          6           0       -2.135345    1.523678    3.132496
     12          6           0       -2.926618    1.446785    1.844329
     13          8           0       -4.132137    1.145066    2.011927
     14          8           0       -2.371313    1.645444    0.742707
     15          1           0       -0.756099    2.252031    5.083978
     16          1           0       -0.111644    1.447330    2.361455
     17          1           0       -2.592339    2.078101    3.958069
     18          1           0       -2.035414    0.495910    3.484356
     19          7           0        0.175507    3.740552    1.440653
     20          6           0        0.468108    4.893249    0.619206
     21          6           0       -0.781551    5.339942   -0.130872
     22          8           0       -0.765389    6.525615   -0.452925
     23          6           0        1.556600    4.530061   -0.387859
     24          6           0        2.244806    5.698215   -1.100873
     25          6           0        3.371928    5.207121   -2.010227
     26          6           0        4.255172    6.309495   -2.564077
     27          7           0        5.105413    5.792627   -3.647423
     28          1           0        0.619103    2.889172    1.133285
     29          1           0        0.821348    5.658809    1.313855
     30          1           0        1.160411    3.778291   -1.058735
     31          1           0        2.358591    4.026674    0.141585
     32          1           0        2.636252    6.502305   -0.477328
     33          1           0        1.484423    6.150205   -1.731446
     34          1           0        2.971050    4.673337   -2.874907
     35          1           0        4.004377    4.500130   -1.479689
     36          1           0        4.879224    6.762541   -1.791997
     37          1           0        3.602995    7.122449   -2.884657
     38          1           0        4.731003    6.161191   -4.503972
     39          1           0        6.052901    6.131169   -3.494921
     40          1           0        5.032021    4.784473   -3.653716
     41          7           0       -1.779764    4.497355   -0.398114
     42          6           0       -2.803158    4.797112   -1.381888
     43          6           0       -4.221013    4.457704   -0.915637
     44          8           0       -5.175345    4.978642   -1.494925
     45          6           0       -2.491865    3.979655   -2.625175
     46          6           0       -2.187980    2.494176   -2.468001
     47          8           0       -3.158271    1.724587   -2.281270
     48          8           0       -1.029790    2.029484   -2.423763
     49          1           0       -1.543409    3.576864   -0.072335
     50          1           0       -2.881771    5.868734   -1.602896
     51          1           0       -1.547796    4.433146   -2.907271
     52          1           0       -3.227488    4.102218   -3.415325
     53          7           0       -4.428037    3.680530    0.149652
     54          6           0       -5.732724    3.337977    0.658130
     55          6           0       -6.533031    2.320848   -0.143031
     56          8           0       -7.753436    2.205294   -0.085073
     57          1           0       -3.651535    3.144922    0.512928
     58          1           0       -6.407045    4.191094    0.724327
     59          1           0       -5.615906    2.960840    1.681028
     60          7           0       -5.824890    1.423936   -0.833599
     61          6           0       -6.374592    0.201025   -1.369712
     62          6           0       -6.621821   -0.873288   -0.318270
     63          8           0       -7.310004   -1.825732   -0.680974
     64          6           0       -5.574333   -0.337199   -2.564618
     65          6           0       -4.229117   -0.970923   -2.252705
     66          7           0       -3.460912   -1.197908   -3.324310
     67          8           0       -3.819166   -1.150987   -1.117400
     68          1           0       -4.857715    1.611890   -1.067149
     69          1           0       -7.370868    0.477236   -1.710360
     70          1           0       -5.322095    0.444004   -3.277148
     71          1           0       -6.154027   -1.126198   -3.044863
     72          1           0       -3.947340   -1.209173   -4.204970
     73          1           0       -2.533366   -1.571612   -3.169056
     74          7           0       -6.142886   -0.671212    0.909283
     75          6           0       -6.318667   -1.554564    2.046335
     76          6           0       -5.311046   -2.682345    2.241042
     77          8           0       -5.561683   -3.693106    2.891922
     78          1           0       -5.527023    0.103290    1.097326
     79          1           0       -7.313508   -2.004912    2.083457
     80          1           0       -6.353566   -0.987147    2.970738
     81          7           0       -4.159472   -2.650743    1.577433
     82          6           0       -3.059260   -3.593043    1.646746
     83          6           0       -1.790152   -2.905427    1.159866
     84          8           0       -1.786620   -1.792354    0.634172
     85          6           0       -3.487397   -4.926908    1.037072
     86          6           0       -3.811801   -4.795320   -0.432944
     87          6           0       -5.116327   -4.417039   -0.754525
     88          6           0       -2.932893   -5.084479   -1.495633
     89          6           0       -5.511658   -4.182348   -2.071770
     90          6           0       -3.299560   -4.872287   -2.832170
     91          6           0       -4.589509   -4.406233   -3.115234
     92          8           0       -4.961274   -4.084848   -4.389715
     93          1           0       -3.993571   -1.796566    1.066200
     94          1           0       -2.930611   -3.821686    2.705836
     95          1           0       -4.430396   -5.274437    1.461545
     96          1           0       -2.612093   -5.563620    1.094871
     97          1           0       -5.779767   -4.111766    0.044509
     98          1           0       -1.940518   -5.417409   -1.255323
     99          1           0       -6.458419   -3.685200   -2.249216
    100          1           0       -2.545672   -4.876023   -3.604852
    101          1           0       -5.891527   -3.856006   -4.411150
    102          7           0       -0.652338   -3.536554    1.440503
    103          6           0        0.695065   -3.017042    1.545916
    104          6           0        1.784684   -3.832851    0.845497
    105          8           0        1.975049   -5.008103    1.109777
    106          6           0        1.168183   -2.790837    2.980311
    107          6           0        0.247479   -1.896406    3.814096
    108          6           0        2.634247   -2.395913    3.132603
    109          6           0        0.321633   -2.353126    5.260369
    110          1           0       -0.719958   -4.457921    1.844373
    111          1           0        0.701270   -2.027565    1.100948
    112          1           0        1.094235   -3.783327    3.426626
    113          1           0       -0.746259   -1.748500    3.388410
    114          1           0        0.594319   -0.868571    3.882349
    115          1           0        2.905179   -2.246575    4.174809
    116          1           0        3.293828   -3.187323    2.760015
    117          1           0        2.871065   -1.593444    2.434563
    118          1           0       -0.115724   -1.614541    5.926259
    119          1           0       -0.335808   -3.230418    5.275563
    120          1           0        1.341560   -2.531163    5.599416
    121          7           0        2.395542   -3.170988   -0.138418
    122          6           0        3.515982   -3.676331   -0.895942
    123          6           0        4.911448   -3.304824   -0.411736
    124          8           0        5.087961   -2.351950    0.351334
    125          6           0        3.295458   -3.324271   -2.365065
    126          8           0        3.563199   -1.974669   -2.660005
    127          1           0        2.044155   -2.251044   -0.385665
    128          1           0        3.456021   -4.765549   -0.927694
    129          1           0        2.243117   -3.528746   -2.591269
    130          1           0        3.934650   -4.006886   -2.925930
    131          1           0        2.843185   -1.521083   -2.221668
    132          7           0        5.948090   -3.865497   -1.053000
    133          6           0        7.334629   -3.628850   -0.725424
    134          6           0        7.600050   -2.134755   -0.813926
    135          8           0        8.127155   -1.525515    0.108835
    136          6           0        8.199943   -4.411715   -1.719785
    137          1           0        5.695093   -4.708097   -1.555513
    138          1           0        7.443591   -4.034884    0.283220
    139          1           0        7.812733   -4.388918   -2.731194
    140          1           0        9.206864   -4.028644   -1.893757
    141          1           0        8.239862   -5.469702   -1.484051
    142          7           0        7.202870   -1.454736   -1.896480
    143          6           0        7.474774   -0.065372   -2.190139
    144          6           0        6.813449    0.856219   -1.168513
    145          8           0        7.353277    1.894414   -0.799679
    146          6           0        6.964560    0.294522   -3.585652
    147          1           0        6.795385   -1.939895   -2.687730
    148          1           0        8.546739    0.124453   -2.197602
    149          1           0        6.988128    1.355675   -3.813684
    150          1           0        7.517710   -0.313827   -4.298770
    151          1           0        5.916232    0.004058   -3.653774
    152          7           0        5.653903    0.438010   -0.656797
    153          6           0        5.018712    1.163804    0.424663
    154          6           0        5.675755    1.010592    1.797296
    155          8           0        5.769189    1.993200    2.531838
    156          6           0        3.571904    0.690061    0.470656
    157          6           0        2.792828    0.903601   -0.816721
    158          6           0        1.436380    0.219499   -0.779907
    159          8           0        0.635449    0.811951   -0.017273
    160          8           0        1.214127   -0.875926   -1.341020
    161          1           0        5.261786   -0.457916   -0.925426
    162          1           0        5.063297    2.241144    0.250448
    163          1           0        3.018211    1.184908    1.273869
    164          1           0        3.577562   -0.382881    0.657374
    165          1           0        3.403456    0.626213   -1.685277
    166          1           0        2.713392    1.981471   -0.916650
    167          7           0        6.134365   -0.194682    2.121936
    168          6           0        6.998561   -0.462699    3.262388
    169          1           0        6.413871   -0.919156    4.061701
    170          1           0        7.796075   -1.143136    2.962729
    171          1           0        7.432005    0.472365    3.618311
    172          1           0        6.023995   -0.914985    1.419169
    173         20           0       -1.447549   -0.093875   -1.136249
    174          8           0       -0.831547   -2.403059   -2.343442
    175          1           0       -0.700067   -3.336901   -2.199386
    176          1           0        0.047492   -2.031552   -2.367373
 ---------------------------------------------------------------------

 SCF Done:  E(RB3LYP) =  -5333.63304396     A.U. after   17 cycles

 The electronic state is 1-A.
 Alpha  occ. eigenvalues -- -145.37427 -19.18912 -19.16562 -19.15933 -19.14691
 Alpha  occ. eigenvalues --  -19.14281 -19.13457 -19.12008 -19.11677 -19.11061
 Alpha  occ. eigenvalues --  -19.10929 -19.10168 -19.07319 -19.07122 -19.06705
 Alpha  occ. eigenvalues --  -19.06331 -19.06272 -19.06222 -19.06199 -19.05900
 Alpha  occ. eigenvalues --  -19.05750 -19.04086 -19.04055 -19.03649 -15.43195
 Alpha  occ. eigenvalues --  -14.59065 -14.40459 -14.38616 -14.38236 -14.37333
 Alpha  occ. eigenvalues --  -14.35623 -14.35330 -14.33420 -14.32499 -14.32466
 Alpha  occ. eigenvalues --  -14.32236 -14.32120 -14.30920 -14.29709 -14.28894
 Alpha  occ. eigenvalues --  -12.56818 -12.56778 -12.56736 -10.34752 -10.33026
 Alpha  occ. eigenvalues --  -10.31986 -10.31341 -10.30939 -10.30071 -10.29033
 Alpha  occ. eigenvalues --  -10.28796 -10.27966 -10.27953 -10.27247 -10.26692
 Alpha  occ. eigenvalues --  -10.26453 -10.25829 -10.25574 -10.25492 -10.25303
 Alpha  occ. eigenvalues --  -10.25111 -10.25033 -10.24526 -10.24261 -10.24240
 Alpha  occ. eigenvalues --  -10.24222 -10.23825 -10.23479 -10.23121 -10.23026
 Alpha  occ. eigenvalues --  -10.22936 -10.22521 -10.22321 -10.22253 -10.20919
 Alpha  occ. eigenvalues --  -10.20777 -10.19991 -10.19632 -10.19600 -10.19387
 Alpha  occ. eigenvalues --  -10.19345 -10.19308 -10.18952 -10.18837 -10.18625
 Alpha  occ. eigenvalues --  -10.18474 -10.18418 -10.17896 -10.17862 -10.17422
 Alpha  occ. eigenvalues --  -10.17397 -10.17379 -10.17278 -10.17111 -10.16830
 Alpha  occ. eigenvalues --  -10.16241 -10.15762  -1.80301  -1.14420  -1.08777
 Alpha  occ. eigenvalues --   -1.08122  -1.07973  -1.07932  -1.06673  -1.05964
 Alpha  occ. eigenvalues --   -1.05605  -1.05247  -1.05124  -1.04635  -1.04574
 Alpha  occ. eigenvalues --   -1.03983  -1.03177  -1.01554  -1.00806  -1.00269
 Alpha  occ. eigenvalues --   -1.00041  -0.99617  -0.99115  -0.99070  -0.98450
 Alpha  occ. eigenvalues --   -0.97498  -0.97406  -0.97401  -0.96568  -0.95207
 Alpha  occ. eigenvalues --   -0.95054  -0.94641  -0.92431  -0.91019  -0.90778
 Alpha  occ. eigenvalues --   -0.90713  -0.90109  -0.89959  -0.89812  -0.89477
 Alpha  occ. eigenvalues --   -0.88523  -0.88341  -0.88055  -0.86652  -0.85488
 Alpha  occ. eigenvalues --   -0.83979  -0.83554  -0.82317  -0.81116  -0.80640
 Alpha  occ. eigenvalues --   -0.79376  -0.78827  -0.78300  -0.76890  -0.75576
 Alpha  occ. eigenvalues --   -0.75493  -0.75182  -0.75141  -0.73835  -0.73431
 Alpha  occ. eigenvalues --   -0.73190  -0.72954  -0.72690  -0.71130  -0.70820
 Alpha  occ. eigenvalues --   -0.70794  -0.69674  -0.68820  -0.68407  -0.67884
 Alpha  occ. eigenvalues --   -0.67806  -0.67098  -0.65763  -0.65051  -0.64699
 Alpha  occ. eigenvalues --   -0.64026  -0.63507  -0.63094  -0.62702  -0.62565
 Alpha  occ. eigenvalues --   -0.62066  -0.61629  -0.61200  -0.61071  -0.60905
 Alpha  occ. eigenvalues --   -0.59950  -0.59369  -0.58894  -0.58308  -0.58066
 Alpha  occ. eigenvalues --   -0.57951  -0.57785  -0.56535  -0.56215  -0.56120
 Alpha  occ. eigenvalues --   -0.56003  -0.55964  -0.55507  -0.55411  -0.55120
 Alpha  occ. eigenvalues --   -0.54974  -0.54870  -0.54447  -0.54281  -0.54035
 Alpha  occ. eigenvalues --   -0.53889  -0.53275  -0.52844  -0.52712  -0.51847
 Alpha  occ. eigenvalues --   -0.51473  -0.51160  -0.50966  -0.50728  -0.50352
 Alpha  occ. eigenvalues --   -0.50154  -0.50000  -0.49546  -0.49508  -0.49051
 Alpha  occ. eigenvalues --   -0.48882  -0.48676  -0.48185  -0.48123  -0.47959
 Alpha  occ. eigenvalues --   -0.47758  -0.47706  -0.47525  -0.47218  -0.47024
 Alpha  occ. eigenvalues --   -0.46930  -0.46618  -0.46414  -0.46211  -0.46166
 Alpha  occ. eigenvalues --   -0.46003  -0.45752  -0.45578  -0.45340  -0.45260
 Alpha  occ. eigenvalues --   -0.45091  -0.45029  -0.44910  -0.44466  -0.44339
 Alpha  occ. eigenvalues --   -0.44100  -0.43871  -0.43748  -0.43583  -0.43322
 Alpha  occ. eigenvalues --   -0.43241  -0.43100  -0.43045  -0.43001  -0.42896
 Alpha  occ. eigenvalues --   -0.42721  -0.42572  -0.42320  -0.42200  -0.42127
 Alpha  occ. eigenvalues --   -0.41984  -0.41803  -0.41750  -0.41655  -0.41526
 Alpha  occ. eigenvalues --   -0.41306  -0.41259  -0.41101  -0.40853  -0.40649
 Alpha  occ. eigenvalues --   -0.40382  -0.40308  -0.40215  -0.40071  -0.39975
 Alpha  occ. eigenvalues --   -0.39865  -0.39686  -0.39424  -0.39317  -0.39137
 Alpha  occ. eigenvalues --   -0.39087  -0.38900  -0.38776  -0.38665  -0.38596
 Alpha  occ. eigenvalues --   -0.38260  -0.38208  -0.38060  -0.37987  -0.37745
 Alpha  occ. eigenvalues --   -0.37636  -0.37208  -0.37103  -0.37102  -0.37032
 Alpha  occ. eigenvalues --   -0.36819  -0.36555  -0.36452  -0.36217  -0.36190
 Alpha  occ. eigenvalues --   -0.36103  -0.35813  -0.35282  -0.35199  -0.34949
 Alpha  occ. eigenvalues --   -0.34843  -0.34719  -0.34493  -0.34276  -0.34005
 Alpha  occ. eigenvalues --   -0.33986  -0.33795  -0.33687  -0.33260  -0.33127
 Alpha  occ. eigenvalues --   -0.32830  -0.32556  -0.32507  -0.32099  -0.31929
 Alpha  occ. eigenvalues --   -0.31772  -0.31754  -0.31676  -0.30976  -0.30633
 Alpha  occ. eigenvalues --   -0.30382  -0.30008  -0.29898  -0.29760  -0.29622
 Alpha  occ. eigenvalues --   -0.29267  -0.28712  -0.28401  -0.27975  -0.27718
 Alpha  occ. eigenvalues --   -0.27073  -0.26785  -0.26452  -0.25618  -0.25523
 Alpha  occ. eigenvalues --   -0.25248  -0.25080  -0.24902  -0.24461  -0.24302
 Alpha  occ. eigenvalues --   -0.24022  -0.23396  -0.23256  -0.23087  -0.23019
 Alpha  occ. eigenvalues --   -0.22643  -0.22568  -0.22293  -0.21947  -0.21746
 Alpha  occ. eigenvalues --   -0.21592  -0.21479  -0.21330  -0.20883  -0.20262
 Alpha  occ. eigenvalues --   -0.19622  -0.19213  -0.18620
 Alpha virt. eigenvalues --   -0.10928  -0.05756  -0.05145  -0.03735  -0.01862
 Alpha virt. eigenvalues --   -0.01804  -0.01414  -0.01045  -0.00683  -0.00258
 Alpha virt. eigenvalues --    0.00139   0.00468   0.00871   0.00892   0.01816

 Mulliken charges:
               1
     1  C    0.049490
     2  C    0.034310
     3  O   -0.282530
     4  H    0.014568
     5  H    0.036429
     6  H    0.039629
     7  N   -0.132862
     8  C    0.101298
     9  C    0.037375
    10  O   -0.268160
    11  C    0.056426
    12  C    0.199619
    13  O   -0.378771
    14  O   -0.464538
    15  H    0.110632
    16  H    0.011091
    17  H    0.010322
    18  H    0.001989
    19  N   -0.149508
    20  C    0.169536
    21  C    0.050000
    22  O   -0.307974
    23  C   -0.034406
    24  C    0.059761
    25  C   -0.089300
    26  C    0.001006
    27  N    0.093548
    28  H    0.141649
    29  H    0.009474
    30  H    0.038838
    31  H    0.029025
    32  H    0.015318
    33  H    0.025643
    34  H    0.017677
    35  H    0.047042
    36  H    0.078706
    37  H    0.077298
    38  H    0.196953
    39  H    0.207976
    40  H    0.198663
    41  N   -0.122532
    42  C    0.112201
    43  C    0.062570
    44  O   -0.295787
    45  C    0.154796
    46  C    0.087563
    47  O   -0.399829
    48  O   -0.444556
    49  H    0.162443
    50  H    0.030940
    51  H   -0.035945
    52  H    0.019142
    53  N   -0.153716
    54  C    0.236336
    55  C    0.020252
    56  O   -0.289238
    57  H    0.132157
    58  H    0.006554
    59  H    0.042682
    60  N   -0.172445
    61  C    0.155557
    62  C    0.076008
    63  O   -0.306624
    64  C    0.060115
    65  C    0.045741
    66  N   -0.052228
    67  O   -0.329640
    68  H    0.139859
    69  H    0.017895
    70  H    0.042634
    71  H    0.014222
    72  H    0.128086
    73  H    0.118347
    74  N   -0.142213
    75  C    0.226719
    76  C    0.006723
    77  O   -0.306074
    78  H    0.152796
    79  H    0.023726
    80  H    0.029276
    81  N   -0.145795
    82  C    0.095273
    83  C    0.139523
    84  O   -0.359843
    85  C    0.190595
    86  C   -0.061584
    87  C   -0.016105
    88  C   -0.031213
    89  C   -0.039931
    90  C   -0.025281
    91  C    0.159209
    92  O   -0.212482
    93  H    0.161568
    94  H    0.021505
    95  H    0.049752
    96  H   -0.035426
    97  H    0.007941
    98  H   -0.056412
    99  H   -0.010548
   100  H   -0.045841
   101  H    0.175089
   102  N   -0.100503
   103  C    0.155115
   104  C    0.040817
   105  O   -0.262703
   106  C   -0.153389
   107  C    0.008241
   108  C    0.114314
   109  C    0.017526
   110  H    0.128672
   111  H   -0.000516
   112  H   -0.014074
   113  H    0.012052
   114  H    0.016970
   115  H    0.014098
   116  H    0.002341
   117  H    0.017165
   118  H    0.000125
   119  H    0.007289
   120  H    0.016167
   121  N   -0.138782
   122  C    0.051507
   123  C    0.149515
   124  O   -0.275751
   125  C    0.229657
   126  O   -0.320744
   127  H    0.131864
   128  H    0.011221
   129  H   -0.004436
   130  H   -0.011360
   131  H    0.167547
   132  N   -0.151120
   133  C    0.125798
   134  C    0.059368
   135  O   -0.242985
   136  C    0.029212
   137  H    0.121097
   138  H    0.028616
   139  H   -0.001402
   140  H    0.042080
   141  H    0.032036
   142  N   -0.128765
   143  C    0.098763
   144  C    0.048453
   145  O   -0.277057
   146  C    0.032322
   147  H    0.108462
   148  H    0.013607
   149  H    0.000836
   150  H    0.022036
   151  H    0.018799
   152  N   -0.152436
   153  C    0.136160
   154  C    0.065281
   155  O   -0.275806
   156  C   -0.076770
   157  C    0.108304
   158  C    0.197173
   159  O   -0.388042
   160  O   -0.464144
   161  H    0.132298
   162  H   -0.021459
   163  H    0.063978
   164  H    0.015305
   165  H   -0.035811
   166  H   -0.051001
   167  N   -0.161638
   168  C    0.137810
   169  H    0.012207
   170  H    0.018152
   171  H    0.031795
   172  H    0.133079
   173  Ca   1.243043
   174  O   -0.292501
   175  H    0.187162
   176  H    0.180003
 Sum of Mulliken charges =  -0.00000

 Dipole moment (field-independent basis, Debye):
    X=             34.7905    Y=              0.8383    Z=            -21.3922  Tot=             40.8498
 Quadrupole moment (field-independent basis, Debye-Ang):
   XX=           -627.0007   YY=           -499.3698   ZZ=           -479.9268
   XY=             88.0987   XZ=           -101.6642   YZ=            -58.9440

 ESP charges:
               1
     1  C   -0.433807
     2  C    0.836849
     3  O   -0.649244
     4  H    0.088527
     5  H    0.132558
     6  H    0.121729
     7  N   -0.804536
     8  C    0.380019
     9  C    0.582798
    10  O   -0.567695
    11  C   -0.552060
    12  C    1.011520
    13  O   -0.696164
    14  O   -0.879269
    15  H    0.372334
    16  H   -0.023726
    17  H    0.128192
    18  H    0.130601
    19  N   -0.199216
    20  C   -0.513531
    21  C    0.891820
    22  O   -0.621634
    23  C    0.293706
    24  C   -0.353490
    25  C    0.085645
    26  C    0.203934
    27  N   -0.561233
    28  H    0.132431
    29  H    0.189900
    30  H    0.017569
    31  H    0.052785
    32  H    0.101710
    33  H    0.103610
    34  H    0.005084
    35  H    0.006881
    36  H    0.044644
    37  H    0.033956
    38  H    0.375943
    39  H    0.388521
    40  H    0.367858
    41  N   -0.701352
    42  C    0.153088
    43  C    0.524054
    44  O   -0.563138
    45  C   -0.355488
    46  C    0.843774
    47  O   -0.715175
    48  O   -0.803982
    49  H    0.398074
    50  H    0.095947
    51  H    0.061086
    52  H    0.112381
    53  N   -0.203461
    54  C   -0.270604
    55  C    0.579124
    56  O   -0.579265
    57  H    0.154546
    58  H    0.120835
    59  H    0.144055
    60  N   -0.280996
    61  C    0.009634
    62  C    0.498601
    63  O   -0.555327
    64  C   -0.362884
    65  C    0.751359
    66  N   -0.901966
    67  O   -0.518757
    68  H    0.205770
    69  H    0.115961
    70  H    0.146392
    71  H    0.090502
    72  H    0.382016
    73  H    0.452813
    74  N   -0.223964
    75  C   -0.205623
    76  C    0.512137
    77  O   -0.562570
    78  H    0.242130
    79  H    0.123565
    80  H    0.129915
    81  N   -0.259807
    82  C    0.042337
    83  C    0.655194
    84  O   -0.534702
    85  C   -0.387173
    86  C    0.154333
    87  C   -0.107632
    88  C   -0.188447
    89  C   -0.359843
    90  C   -0.292426
    91  C    0.423175
    92  O   -0.577405
    93  H    0.119346
    94  H    0.097577
    95  H    0.180687
    96  H    0.096497
    97  H    0.168495
    98  H    0.116975
    99  H    0.173713
   100  H    0.153670
   101  H    0.412626
   102  N   -0.610986
   103  C   -0.219765
   104  C    0.779767
   105  O   -0.570317
   106  C    0.150185
   107  C    0.242551
   108  C   -0.343571
   109  C   -0.397775
   110  H    0.355668
   111  H    0.108568
   112  H    0.002732
   113  H   -0.035833
   114  H    0.020970
   115  H    0.128268
   116  H    0.087933
   117  H    0.010426
   118  H    0.095501
   119  H    0.063734
   120  H    0.103703
   121  N   -0.632567
   122  C    0.047584
   123  C    0.487781
   124  O   -0.414925
   125  C    0.258316
   126  O   -0.576426
   127  H    0.449307
   128  H    0.038863
   129  H   -0.020986
   130  H   -0.001014
   131  H    0.342624
   132  N   -0.431565
   133  C    0.115995
   134  C    0.432560
   135  O   -0.494714
   136  C   -0.340589
   137  H    0.285822
   138  H    0.097254
   139  H    0.082948
   140  H    0.121196
   141  H    0.115230
   142  N   -0.338352
   143  C    0.181012
   144  C    0.297568
   145  O   -0.518021
   146  C   -0.388505
   147  H    0.251074
   148  H    0.070741
   149  H    0.113472
   150  H    0.103564
   151  H    0.092794
   152  N    0.037698
   153  C   -0.179626
   154  C    0.513703
   155  O   -0.552585
   156  C   -0.075063
   157  C   -0.205443
   158  C    0.877108
   159  O   -0.653220
   160  O   -0.831469
   161  H    0.083762
   162  H    0.094456
   163  H    0.179707
   164  H   -0.042608
   165  H    0.007892
   166  H   -0.017476
   167  N   -0.148545
   168  C   -0.122620
   169  H    0.045719
   170  H    0.057776
   171  H    0.093918
   172  H    0.181373
   173  Ca   1.513658
   174  O   -0.963985
   175  H    0.461780
   176  H    0.488372
 Sum of ESP charges =   0.00000

 Normal termination of Gaussian 16 at Sat Sep 14 23:49:37 2019.
