 Gaussian 16, Revision A.03,
 Gaussian 16:  ES64L-G16RevA.03 25-Dec-2016

 ----------------------------------------------------------------------
 #b3lyp/svp scf=(tight,noincore) Test #IOP(5/87=12) Density=Current Pop
 =(MK,readradii) iop(6/33=2) iop(6/42=6)
 ----------------------------------------------------------------------

 -----------------
 CaMKII_loop3_54.0
 -----------------
 Symbolic Z-matrix:
 Charge =  0 Multiplicity = 1

                         Standard orientation:
 ---------------------------------------------------------------------
 Center     Atomic      Atomic             Coordinates (Angstroms)
 Number     Number       Type             X           Y           Z
 ---------------------------------------------------------------------
      1          6           0        1.950590    1.855046    5.876928
      2          6           0        1.439108    1.771052    4.448422
      3          8           0        2.246770    1.828877    3.521256
      4          1           0        3.012413    1.609833    5.897427
      5          1           0        1.804259    2.866283    6.256988
      6          1           0        1.403192    1.149344    6.501336
      7          7           0        0.116898    1.753924    4.255371
      8          6           0       -0.497888    1.642563    2.955626
      9          6           0       -0.593615    3.027075    2.318787
     10          8           0       -1.604366    3.712235    2.478276
     11          6           0       -1.876871    1.034217    3.206464
     12          6           0       -2.768233    0.839571    1.990205
     13          8           0       -2.361892    1.325502    0.912819
     14          8           0       -3.926210    0.381152    2.075881
     15          1           0       -0.436529    1.744995    5.103333
     16          1           0        0.057844    0.943568    2.319413
     17          1           0       -2.325418    1.646973    3.989559
     18          1           0       -1.673123   -0.008266    3.440380
     19          7           0        0.369055    3.420747    1.487951
     20          6           0        0.525440    4.789935    1.062546
     21          6           0       -0.675322    5.437267    0.370352
     22          8           0       -0.890229    6.622890    0.620778
     23          6           0        1.776591    4.787596    0.191045
     24          6           0        2.280837    6.159381   -0.243630
     25          6           0        3.520471    5.992276   -1.097260
     26          6           0        3.973263    7.276096   -1.782962
     27          7           0        2.982787    7.879684   -2.686974
     28          1           0        1.176974    2.832143    1.349346
     29          1           0        0.740112    5.413449    1.935785
     30          1           0        1.577046    4.235416   -0.731007
     31          1           0        2.510935    4.251419    0.790504
     32          1           0        2.553509    6.793582    0.597643
     33          1           0        1.589691    6.700463   -0.881947
     34          1           0        3.293331    5.190543   -1.808689
     35          1           0        4.359539    5.683141   -0.463383
     36          1           0        4.774087    7.026644   -2.481142
     37          1           0        4.337868    7.965174   -1.025575
     38          1           0        2.334370    8.436066   -2.138344
     39          1           0        3.409848    8.555289   -3.300469
     40          1           0        2.388988    7.233254   -3.176496
     41          7           0       -1.311118    4.739222   -0.566129
     42          6           0       -2.442656    5.177450   -1.362168
     43          6           0       -3.770246    4.792872   -0.727420
     44          8           0       -4.852975    5.335183   -0.946498
     45          6           0       -2.472887    4.669079   -2.800760
     46          6           0       -2.223862    3.179395   -2.956409
     47          8           0       -2.152697    2.372607   -2.011460
     48          8           0       -2.255275    2.770178   -4.141886
     49          1           0       -1.010345    3.793665   -0.752561
     50          1           0       -2.400247    6.268115   -1.396121
     51          1           0       -1.702621    5.249103   -3.302120
     52          1           0       -3.465927    4.912294   -3.179201
     53          7           0       -3.726092    3.872678    0.240099
     54          6           0       -4.836486    3.453456    1.075909
     55          6           0       -5.839526    2.422282    0.569262
     56          8           0       -6.962468    2.272938    1.031429
     57          1           0       -2.935063    3.247354    0.255658
     58          1           0       -5.375607    4.359265    1.357789
     59          1           0       -4.388889    3.023867    1.969671
     60          7           0       -5.491013    1.713945   -0.499240
     61          6           0       -6.346191    0.769841   -1.193386
     62          6           0       -6.615873   -0.563565   -0.511109
     63          8           0       -7.395102   -1.359419   -1.042917
     64          6           0       -5.723999    0.585807   -2.578597
     65          6           0       -4.489867   -0.310110   -2.634729
     66          7           0       -4.281438   -0.987152   -3.762368
     67          8           0       -3.746257   -0.604895   -1.706265
     68          1           0       -4.494847    1.562522   -0.581846
     69          1           0       -7.299464    1.265345   -1.346509
     70          1           0       -5.526985    1.540373   -3.062632
     71          1           0       -6.469909    0.088608   -3.200378
     72          1           0       -5.064956   -1.077782   -4.397809
     73          1           0       -3.476658   -1.576779   -3.878857
     74          7           0       -5.985902   -0.868958    0.626815
     75          6           0       -6.444076   -1.874810    1.555221
     76          6           0       -5.394453   -2.880827    1.987796
     77          8           0       -5.638294   -3.799307    2.774330
     78          1           0       -5.195860   -0.334239    0.962686
     79          1           0       -7.296584   -2.442755    1.163727
     80          1           0       -6.741152   -1.340024    2.455693
     81          7           0       -4.171280   -2.710183    1.495629
     82          6           0       -3.022339   -3.603466    1.576740
     83          6           0       -1.736750   -2.780749    1.462732
     84          8           0       -1.745210   -1.641903    0.989700
     85          6           0       -3.046688   -4.594190    0.428666
     86          6           0       -4.251141   -4.683712   -0.479012
     87          6           0       -5.215119   -5.679423   -0.286648
     88          6           0       -4.267180   -3.946587   -1.672574
     89          6           0       -6.235940   -5.898868   -1.233046
     90          6           0       -5.220042   -4.251775   -2.649464
     91          6           0       -6.252150   -5.184938   -2.450314
     92          8           0       -7.207536   -5.393327   -3.386910
     93          1           0       -3.930359   -1.827018    1.064263
     94          1           0       -3.055108   -4.163994    2.509282
     95          1           0       -2.791606   -5.557783    0.863433
     96          1           0       -2.199977   -4.410135   -0.238420
     97          1           0       -5.176396   -6.264163    0.614229
     98          1           0       -3.446188   -3.254737   -1.781733
     99          1           0       -7.006693   -6.645953   -1.141918
    100          1           0       -5.194588   -3.682541   -3.573598
    101          1           0       -7.037012   -4.913184   -4.199612
    102          7           0       -0.614271   -3.403893    1.823888
    103          6           0        0.728332   -2.897904    1.635496
    104          6           0        1.566900   -3.844691    0.788326
    105          8           0        1.594655   -5.052691    1.016725
    106          6           0        1.303991   -2.829415    3.040745
    107          6           0        0.647977   -1.885158    4.049370
    108          6           0        2.774862   -2.401837    2.961894
    109          6           0        0.658806   -2.321121    5.509343
    110          1           0       -0.634317   -4.348572    2.166204
    111          1           0        0.735955   -1.895799    1.199117
    112          1           0        1.208988   -3.816456    3.492545
    113          1           0       -0.332041   -1.582386    3.680055
    114          1           0        1.203767   -0.951820    3.958946
    115          1           0        2.881861   -1.494405    2.376984
    116          1           0        3.154573   -2.046154    3.923044
    117          1           0        3.433740   -3.187429    2.612145
    118          1           0        0.159826   -3.275378    5.611388
    119          1           0        1.683426   -2.400150    5.899864
    120          1           0        0.105454   -1.558917    6.058384
    121          7           0        2.433250   -3.331116   -0.095857
    122          6           0        3.402296   -3.964015   -0.964239
    123          6           0        4.840711   -3.588360   -0.625058
    124          8           0        5.138352   -2.636046    0.098826
    125          6           0        3.152752   -3.445106   -2.372877
    126          8           0        2.877479   -2.059407   -2.465417
    127          1           0        2.598494   -2.335694   -0.067036
    128          1           0        3.310391   -5.042468   -0.950314
    129          1           0        2.225954   -3.943473   -2.663180
    130          1           0        3.970550   -3.682043   -3.045460
    131          1           0        2.939506   -1.885990   -3.411715
    132          7           0        5.758883   -4.316290   -1.260887
    133          6           0        7.164460   -4.131381   -0.966846
    134          6           0        7.662717   -2.729372   -1.283408
    135          8           0        8.401303   -2.073545   -0.546807
    136          6           0        8.042829   -5.144882   -1.698408
    137          1           0        5.523477   -5.122770   -1.819971
    138          1           0        7.299199   -4.216167    0.106447
    139          1           0        7.484730   -6.074867   -1.779982
    140          1           0        8.302154   -4.760806   -2.679294
    141          1           0        9.011126   -5.316611   -1.225217
    142          7           0        7.138035   -2.113233   -2.342267
    143          6           0        7.414492   -0.760641   -2.764956
    144          6           0        7.082407    0.209631   -1.632264
    145          8           0        7.818901    1.127653   -1.299828
    146          6           0        6.668711   -0.400982   -4.047943
    147          1           0        6.549705   -2.709550   -2.914607
    148          1           0        8.446929   -0.616418   -3.086472
    149          1           0        6.877035   -1.177868   -4.786827
    150          1           0        5.597570   -0.272760   -3.958969
    151          1           0        7.046491    0.474070   -4.577817
    152          7           0        5.946870    0.022913   -0.952049
    153          6           0        5.430110    1.003102   -0.025989
    154          6           0        6.055417    0.749451    1.339753
    155          8           0        6.295818    1.628894    2.160660
    156          6           0        3.915718    0.857354    0.127547
    157          6           0        3.159609    1.083851   -1.181154
    158          6           0        1.654415    0.903858   -1.091201
    159          8           0        1.090666    0.540240   -0.039550
    160          8           0        0.926796    1.236030   -2.056360
    161          1           0        5.395600   -0.802160   -1.136321
    162          1           0        5.608001    2.050017   -0.241685
    163          1           0        3.454646    1.499298    0.869518
    164          1           0        3.706580   -0.157435    0.484988
    165          1           0        3.642420    0.359312   -1.842469
    166          1           0        3.483744    2.092440   -1.432120
    167          7           0        6.360130   -0.517119    1.631898
    168          6           0        7.076411   -0.860104    2.848164
    169          1           0        8.121963   -1.056814    2.610406
    170          1           0        7.014141   -0.031624    3.553650
    171          1           0        6.632861   -1.750716    3.292918
    172          1           0        5.997664   -1.232746    1.022803
    173         20           0       -1.246342    0.235119   -1.090881
    174          8           0        0.051585   -2.021904   -1.680230
    175          1           0       -0.080742   -2.909937   -2.029494
    176          1           0        0.990550   -1.860631   -1.815273
 ---------------------------------------------------------------------

 SCF Done:  E(RB3LYP) =  -5333.55502883     A.U. after   20 cycles

 The electronic state is 1-A.
 Alpha  occ. eigenvalues -- -145.36267 -19.22094 -19.18796 -19.16964 -19.15305
 Alpha  occ. eigenvalues --  -19.12697 -19.12111 -19.12028 -19.11280 -19.09166
 Alpha  occ. eigenvalues --  -19.07958 -19.07930 -19.06825 -19.06711 -19.06680
 Alpha  occ. eigenvalues --  -19.05691 -19.04805 -19.04254 -19.04012 -19.03980
 Alpha  occ. eigenvalues --  -19.03040 -19.02973 -19.02869 -19.00207 -15.42033
 Alpha  occ. eigenvalues --  -14.58421 -14.42599 -14.39260 -14.38994 -14.37390
 Alpha  occ. eigenvalues --  -14.35662 -14.35220 -14.34245 -14.33131 -14.32087
 Alpha  occ. eigenvalues --  -14.31244 -14.30940 -14.28854 -14.28619 -14.27679
 Alpha  occ. eigenvalues --  -12.55649 -12.55611 -12.55590 -10.35084 -10.34983
 Alpha  occ. eigenvalues --  -10.31563 -10.31096 -10.31063 -10.30351 -10.29785
 Alpha  occ. eigenvalues --  -10.29676 -10.28317 -10.28060 -10.26857 -10.26824
 Alpha  occ. eigenvalues --  -10.26800 -10.26149 -10.25724 -10.25261 -10.24675
 Alpha  occ. eigenvalues --  -10.24476 -10.24060 -10.24039 -10.23913 -10.23763
 Alpha  occ. eigenvalues --  -10.23269 -10.23112 -10.22608 -10.22569 -10.22153
 Alpha  occ. eigenvalues --  -10.22137 -10.21704 -10.21655 -10.21644 -10.21573
 Alpha  occ. eigenvalues --  -10.20515 -10.19583 -10.19569 -10.19050 -10.18920
 Alpha  occ. eigenvalues --  -10.18669 -10.18464 -10.18436 -10.18203 -10.17965
 Alpha  occ. eigenvalues --  -10.17949 -10.17853 -10.17701 -10.17680 -10.17608
 Alpha  occ. eigenvalues --  -10.17579 -10.17492 -10.17403 -10.17167 -10.15816
 Alpha  occ. eigenvalues --  -10.15591 -10.14954  -1.78952  -1.13841  -1.10524
 Alpha  occ. eigenvalues --   -1.09583  -1.06759  -1.06595  -1.06351  -1.05966
 Alpha  occ. eigenvalues --   -1.05571  -1.04573  -1.04427  -1.04294  -1.04089
 Alpha  occ. eigenvalues --   -1.02707  -1.02533  -1.01124  -1.00209  -0.99378
 Alpha  occ. eigenvalues --   -0.99186  -0.99044  -0.98419  -0.97924  -0.97247
 Alpha  occ. eigenvalues --   -0.97150  -0.96366  -0.96162  -0.95843  -0.95195
 Alpha  occ. eigenvalues --   -0.94496  -0.92028  -0.91572  -0.90952  -0.90708
 Alpha  occ. eigenvalues --   -0.90491  -0.89089  -0.88836  -0.88746  -0.88127
 Alpha  occ. eigenvalues --   -0.87434  -0.86703  -0.86270  -0.85581  -0.85092
 Alpha  occ. eigenvalues --   -0.83987  -0.83250  -0.82569  -0.82151  -0.81416
 Alpha  occ. eigenvalues --   -0.80149  -0.78750  -0.77751  -0.76952  -0.75641
 Alpha  occ. eigenvalues --   -0.75524  -0.75286  -0.74244  -0.72706  -0.72640
 Alpha  occ. eigenvalues --   -0.72495  -0.72299  -0.71991  -0.71605  -0.71050
 Alpha  occ. eigenvalues --   -0.70896  -0.70041  -0.68812  -0.68407  -0.68133
 Alpha  occ. eigenvalues --   -0.67275  -0.67148  -0.66717  -0.64803  -0.64375
 Alpha  occ. eigenvalues --   -0.64234  -0.63872  -0.63468  -0.63260  -0.62648
 Alpha  occ. eigenvalues --   -0.61538  -0.61497  -0.60942  -0.60871  -0.60699
 Alpha  occ. eigenvalues --   -0.60250  -0.59711  -0.58600  -0.58535  -0.58480
 Alpha  occ. eigenvalues --   -0.57929  -0.57883  -0.57723  -0.56929  -0.56891
 Alpha  occ. eigenvalues --   -0.56127  -0.55936  -0.55671  -0.55415  -0.54917
 Alpha  occ. eigenvalues --   -0.54844  -0.54387  -0.54069  -0.54013  -0.53560
 Alpha  occ. eigenvalues --   -0.53201  -0.52876  -0.52849  -0.52455  -0.52314
 Alpha  occ. eigenvalues --   -0.52009  -0.51626  -0.51277  -0.50954  -0.50730
 Alpha  occ. eigenvalues --   -0.50572  -0.49673  -0.49349  -0.49195  -0.49077
 Alpha  occ. eigenvalues --   -0.48647  -0.48590  -0.48551  -0.48335  -0.48056
 Alpha  occ. eigenvalues --   -0.48008  -0.47752  -0.47427  -0.46995  -0.46672
 Alpha  occ. eigenvalues --   -0.46496  -0.46421  -0.46340  -0.46144  -0.46036
 Alpha  occ. eigenvalues --   -0.45957  -0.45669  -0.45482  -0.45096  -0.44884
 Alpha  occ. eigenvalues --   -0.44767  -0.44617  -0.44414  -0.44238  -0.44056
 Alpha  occ. eigenvalues --   -0.43798  -0.43648  -0.43366  -0.43323  -0.42952
 Alpha  occ. eigenvalues --   -0.42882  -0.42712  -0.42632  -0.42582  -0.42305
 Alpha  occ. eigenvalues --   -0.42248  -0.41968  -0.41791  -0.41658  -0.41544
 Alpha  occ. eigenvalues --   -0.41343  -0.41246  -0.41145  -0.40989  -0.40906
 Alpha  occ. eigenvalues --   -0.40658  -0.40639  -0.40539  -0.40251  -0.40143
 Alpha  occ. eigenvalues --   -0.40010  -0.39726  -0.39540  -0.39429  -0.39332
 Alpha  occ. eigenvalues --   -0.39161  -0.39045  -0.38828  -0.38645  -0.38568
 Alpha  occ. eigenvalues --   -0.38472  -0.38396  -0.38243  -0.38137  -0.37974
 Alpha  occ. eigenvalues --   -0.37889  -0.37670  -0.37566  -0.37492  -0.37411
 Alpha  occ. eigenvalues --   -0.37129  -0.36911  -0.36851  -0.36807  -0.36648
 Alpha  occ. eigenvalues --   -0.36572  -0.36207  -0.35890  -0.35798  -0.35639
 Alpha  occ. eigenvalues --   -0.35233  -0.35045  -0.34927  -0.34552  -0.34487
 Alpha  occ. eigenvalues --   -0.34332  -0.34246  -0.34052  -0.33822  -0.33717
 Alpha  occ. eigenvalues --   -0.33643  -0.33404  -0.33070  -0.32890  -0.32767
 Alpha  occ. eigenvalues --   -0.32495  -0.32430  -0.32306  -0.32186  -0.32152
 Alpha  occ. eigenvalues --   -0.31706  -0.31609  -0.31362  -0.30947  -0.30146
 Alpha  occ. eigenvalues --   -0.29983  -0.29740  -0.29581  -0.28799  -0.28604
 Alpha  occ. eigenvalues --   -0.27998  -0.27598  -0.27348  -0.27014  -0.26653
 Alpha  occ. eigenvalues --   -0.26585  -0.26212  -0.25115  -0.24936  -0.24575
 Alpha  occ. eigenvalues --   -0.24237  -0.24059  -0.23671  -0.22977  -0.22783
 Alpha  occ. eigenvalues --   -0.22417  -0.22280  -0.22195  -0.21977  -0.21726
 Alpha  occ. eigenvalues --   -0.21411  -0.21337  -0.21275  -0.21071  -0.20903
 Alpha  occ. eigenvalues --   -0.20848  -0.19595  -0.19149  -0.18956  -0.18790
 Alpha  occ. eigenvalues --   -0.18457  -0.17182  -0.16402
 Alpha virt. eigenvalues --   -0.10174  -0.05294  -0.04454  -0.04304  -0.03930
 Alpha virt. eigenvalues --   -0.02418  -0.01748  -0.01653  -0.01062  -0.00318
 Alpha virt. eigenvalues --    0.00205   0.00493   0.00650   0.01282   0.01527

 Mulliken charges:
               1
     1  C    0.051553
     2  C    0.020389
     3  O   -0.297733
     4  H    0.036592
     5  H    0.039697
     6  H    0.008026
     7  N   -0.125030
     8  C    0.060241
     9  C    0.101491
    10  O   -0.272689
    11  C    0.080495
    12  C    0.172989
    13  O   -0.482773
    14  O   -0.375100
    15  H    0.117227
    16  H    0.025996
    17  H    0.019644
    18  H   -0.002787
    19  N   -0.110317
    20  C    0.149173
    21  C    0.077425
    22  O   -0.297745
    23  C   -0.045419
    24  C    0.030962
    25  C   -0.048066
    26  C    0.048940
    27  N    0.069115
    28  H    0.140942
    29  H   -0.003149
    30  H    0.023375
    31  H    0.037186
    32  H    0.016080
    33  H   -0.036691
    34  H    0.034757
    35  H    0.063057
    36  H    0.059252
    37  H    0.082383
    38  H    0.196840
    39  H    0.191058
    40  H    0.199747
    41  N   -0.129237
    42  C    0.109492
    43  C    0.046691
    44  O   -0.295021
    45  C    0.070809
    46  C    0.125744
    47  O   -0.472329
    48  O   -0.384756
    49  H    0.132961
    50  H   -0.012575
    51  H   -0.033663
    52  H    0.037950
    53  N   -0.156302
    54  C    0.221222
    55  C    0.035569
    56  O   -0.291218
    57  H    0.155709
    58  H    0.016467
    59  H    0.036257
    60  N   -0.160443
    61  C    0.154176
    62  C    0.078683
    63  O   -0.307688
    64  C    0.037066
    65  C    0.098651
    66  N   -0.035542
    67  O   -0.351602
    68  H    0.133445
    69  H    0.021943
    70  H    0.070393
    71  H    0.011230
    72  H    0.129000
    73  H    0.120066
    74  N   -0.175472
    75  C    0.239401
    76  C    0.022605
    77  O   -0.309648
    78  H    0.153046
    79  H    0.044183
    80  H    0.033980
    81  N   -0.126925
    82  C    0.110855
    83  C    0.109030
    84  O   -0.328763
    85  C    0.143265
    86  C   -0.032497
    87  C    0.027456
    88  C    0.037476
    89  C   -0.026341
    90  C   -0.033659
    91  C    0.180356
    92  O   -0.182097
    93  H    0.140648
    94  H    0.008829
    95  H   -0.012940
    96  H   -0.036857
    97  H   -0.024611
    98  H   -0.071148
    99  H   -0.028877
   100  H   -0.090973
   101  H    0.172485
   102  N   -0.109519
   103  C    0.152655
   104  C    0.054247
   105  O   -0.275940
   106  C   -0.117000
   107  C   -0.003712
   108  C    0.050289
   109  C    0.050154
   110  H    0.126655
   111  H    0.020838
   112  H   -0.021231
   113  H   -0.000586
   114  H    0.009525
   115  H    0.029863
   116  H    0.006838
   117  H    0.011577
   118  H    0.008147
   119  H    0.012935
   120  H    0.014069
   121  N   -0.139658
   122  C    0.104067
   123  C    0.108513
   124  O   -0.262334
   125  C    0.193437
   126  O   -0.299551
   127  H    0.156857
   128  H    0.036315
   129  H    0.005148
   130  H   -0.004472
   131  H    0.199397
   132  N   -0.134292
   133  C    0.074659
   134  C    0.037410
   135  O   -0.236526
   136  C    0.060739
   137  H    0.125436
   138  H    0.031631
   139  H    0.017111
   140  H    0.014478
   141  H    0.056361
   142  N   -0.131661
   143  C    0.122596
   144  C    0.077825
   145  O   -0.249608
   146  C    0.018025
   147  H    0.091496
   148  H    0.012143
   149  H    0.004313
   150  H    0.006053
   151  H    0.033576
   152  N   -0.156248
   153  C    0.148876
   154  C    0.070378
   155  O   -0.281242
   156  C   -0.061102
   157  C    0.103030
   158  C    0.110023
   159  O   -0.415985
   160  O   -0.415145
   161  H    0.118032
   162  H   -0.019748
   163  H    0.032111
   164  H   -0.013794
   165  H   -0.032092
   166  H   -0.018920
   167  N   -0.170140
   168  C    0.136598
   169  H    0.021970
   170  H    0.037535
   171  H   -0.003040
   172  H    0.116033
   173  Ca   1.283977
   174  O   -0.319901
   175  H    0.181443
   176  H    0.184979
 Sum of Mulliken charges =  -0.00000

 Dipole moment (field-independent basis, Debye):
    X=             32.2777    Y=              2.7475    Z=            -20.1982  Tot=             38.1754
 Quadrupole moment (field-independent basis, Debye-Ang):
   XX=           -707.5104   YY=           -372.0019   ZZ=           -495.9566
   XY=             61.6174   XZ=            -50.4223   YZ=            -31.9727

 ESP charges:
               1
     1  C   -0.415199
     2  C    0.772258
     3  O   -0.619985
     4  H    0.127081
     5  H    0.120336
     6  H    0.078957
     7  N   -0.788341
     8  C    0.485800
     9  C    0.462212
    10  O   -0.485521
    11  C   -0.635303
    12  C    0.865450
    13  O   -0.793099
    14  O   -0.616609
    15  H    0.373714
    16  H   -0.056099
    17  H    0.176066
    18  H    0.137787
    19  N   -0.146395
    20  C   -0.310253
    21  C    0.608522
    22  O   -0.578416
    23  C   -0.049269
    24  C    0.008460
    25  C   -0.029104
    26  C    0.006682
    27  N   -0.280584
    28  H    0.225418
    29  H    0.134991
    30  H    0.073331
    31  H    0.093208
    32  H    0.038948
    33  H   -0.008069
    34  H    0.028579
    35  H    0.062234
    36  H    0.063612
    37  H    0.094738
    38  H    0.298764
    39  H    0.310376
    40  H    0.335512
    41  N   -0.458382
    42  C    0.251371
    43  C    0.308645
    44  O   -0.549819
    45  C   -0.448663
    46  C    0.905212
    47  O   -0.852757
    48  O   -0.724124
    49  H    0.299169
    50  H    0.042117
    51  H    0.068721
    52  H    0.151129
    53  N    0.277698
    54  C   -0.637108
    55  C    0.806866
    56  O   -0.614778
    57  H   -0.171094
    58  H    0.195394
    59  H    0.224392
    60  N   -0.438811
    61  C    0.010575
    62  C    0.278919
    63  O   -0.509432
    64  C   -0.244201
    65  C    0.850491
    66  N   -0.894565
    67  O   -0.613705
    68  H    0.283760
    69  H    0.132847
    70  H    0.125685
    71  H    0.060556
    72  H    0.380213
    73  H    0.391341
    74  N    0.223172
    75  C   -0.392063
    76  C    0.848047
    77  O   -0.634225
    78  H    0.052267
    79  H    0.142986
    80  H    0.111518
    81  N   -0.736596
    82  C    0.680473
    83  C    0.290716
    84  O   -0.299153
    85  C   -0.276697
    86  C    0.158348
    87  C   -0.264833
    88  C   -0.106385
    89  C   -0.195634
    90  C   -0.384276
    91  C    0.409241
    92  O   -0.547094
    93  H    0.153642
    94  H   -0.050910
    95  H    0.050949
    96  H    0.043558
    97  H    0.173232
    98  H    0.086191
    99  H    0.144052
   100  H    0.138702
   101  H    0.408686
   102  N   -0.699523
   103  C    0.272609
   104  C    0.440471
   105  O   -0.545450
   106  C    0.121792
   107  C    0.180187
   108  C   -0.336858
   109  C   -0.381475
   110  H    0.334032
   111  H    0.018512
   112  H    0.004690
   113  H   -0.020539
   114  H    0.039598
   115  H    0.051116
   116  H    0.084406
   117  H    0.062893
   118  H    0.089487
   119  H    0.089592
   120  H    0.094372
   121  N   -0.227586
   122  C    0.068661
   123  C    0.286751
   124  O   -0.288972
   125  C   -0.023560
   126  O   -0.369445
   127  H    0.314780
   128  H    0.085571
   129  H    0.029106
   130  H    0.037900
   131  H    0.375521
   132  N   -0.306794
   133  C    0.080524
   134  C    0.526188
   135  O   -0.516467
   136  C   -0.307814
   137  H    0.266360
   138  H    0.075382
   139  H    0.089334
   140  H    0.075683
   141  H    0.130705
   142  N   -0.385247
   143  C    0.139373
   144  C    0.263017
   145  O   -0.495979
   146  C   -0.233838
   147  H    0.209379
   148  H    0.079064
   149  H    0.060918
   150  H    0.044135
   151  H    0.100875
   152  N    0.206764
   153  C   -0.313928
   154  C    0.513281
   155  O   -0.559653
   156  C   -0.032398
   157  C   -0.223575
   158  C    0.715178
   159  O   -0.720610
   160  O   -0.734890
   161  H    0.035918
   162  H    0.127048
   163  H    0.115096
   164  H   -0.039408
   165  H   -0.011968
   166  H    0.058847
   167  N   -0.010265
   168  C   -0.227147
   169  H    0.082545
   170  H    0.108199
   171  H    0.069048
   172  H    0.011054
   173  Ca   1.559045
   174  O   -0.789330
   175  H    0.428466
   176  H    0.262871
 Sum of ESP charges =   0.00000

 Normal termination of Gaussian 16 at Wed Sep 18 16:11:43 2019.
