 Gaussian 09, Revision D.01,
 Gaussian 09:  ES64L-G09RevD.01 24-Apr-2013

 ----------------------------------------------------------------------
 #maxdisk=50GB #B3LYP/SVP Density=Current scf=(tight) #IOP(5/87=12)Pop=
 (MK,readradii) iop(6/33=2) iop(6/42=6)
 ----------------------------------------------------------------------

 ------------
 SOL molecule
 ------------
 Symbolic Z-matrix:
 Charge =  0 Multiplicity = 1

                         Standard orientation:
 ---------------------------------------------------------------------
 Center     Atomic      Atomic             Coordinates (Angstroms)
 Number     Number       Type             X           Y           Z
 ---------------------------------------------------------------------
      1          6           0        2.664620    1.886703    5.359451
      2          6           0        2.024103    1.987766    3.984197
      3          8           0        2.673606    2.354491    3.005647
      4          1           0        1.958028    2.231559    6.114879
      5          1           0        2.933286    0.849658    5.560525
      6          1           0        3.560189    2.506645    5.389785
      7          7           0        0.740752    1.627139    3.936686
      8          6           0       -0.118072    1.807593    2.781066
      9          6           0       -0.092561    3.307145    2.490219
     10          8           0       -0.538403    4.197035    3.206962
     11          6           0       -1.500577    1.206170    3.021628
     12          6           0       -2.440344    1.311178    1.827849
     13          8           0       -3.660363    1.482623    2.027498
     14          8           0       -1.998930    1.190667    0.673799
     15          1           0        0.292068    1.346594    4.803680
     16          1           0        0.377668    1.175036    2.044578
     17          1           0       -1.961276    1.567104    3.943031
     18          1           0       -1.281855    0.173523    3.289028
     19          7           0        0.371461    3.598303    1.273580
     20          6           0        0.787119    4.911233    0.822866
     21          6           0       -0.247306    5.620450   -0.038689
     22          8           0       -0.301557    6.851546   -0.130114
     23          6           0        2.147075    4.750412    0.142899
     24          6           0        2.851283    6.098910    0.023960
     25          6           0        4.269035    6.068746   -0.544256
     26          6           0        4.448252    5.637251   -2.002678
     27          7           0        5.820176    5.711048   -2.521986
     28          1           0        0.554662    2.819574    0.653080
     29          1           0        1.036293    5.433656    1.743131
     30          1           0        2.031210    4.379452   -0.872169
     31          1           0        2.828931    4.083839    0.659090
     32          1           0        2.831339    6.469965    1.046516
     33          1           0        2.217160    6.799432   -0.521711
     34          1           0        4.851875    5.269887   -0.072747
     35          1           0        4.704660    7.058961   -0.415008
     36          1           0        3.869843    6.310152   -2.645986
     37          1           0        4.080838    4.639062   -2.190095
     38          1           0        6.421496    5.045116   -2.064221
     39          1           0        5.892104    5.495638   -3.511796
     40          1           0        6.202051    6.650230   -2.565672
     41          7           0       -1.087057    4.866931   -0.743053
     42          6           0       -2.225978    5.353875   -1.493816
     43          6           0       -3.536869    5.086278   -0.773220
     44          8           0       -4.580230    5.596382   -1.193330
     45          6           0       -2.289010    4.918455   -2.952115
     46          6           0       -2.386202    3.419538   -3.173480
     47          8           0       -2.643774    3.000498   -4.327500
     48          8           0       -2.067403    2.625281   -2.255808
     49          1           0       -0.958145    3.868688   -0.649293
     50          1           0       -2.167974    6.438048   -1.443776
     51          1           0       -1.310697    5.187648   -3.347765
     52          1           0       -3.057029    5.371059   -3.572676
     53          7           0       -3.456943    4.340171    0.325341
     54          6           0       -4.563548    4.158037    1.237675
     55          6           0       -5.652433    3.195991    0.771740
     56          8           0       -6.800747    3.380445    1.149965
     57          1           0       -2.578529    3.889992    0.557563
     58          1           0       -5.124291    5.087773    1.312227
     59          1           0       -4.187873    3.906935    2.231816
     60          7           0       -5.354109    2.283008   -0.162960
     61          6           0       -6.380043    1.530627   -0.852005
     62          6           0       -6.738663    0.247642   -0.115022
     63          8           0       -7.741711   -0.377403   -0.443980
     64          6           0       -5.854167    1.386179   -2.276781
     65          6           0       -4.786833    0.319088   -2.496588
     66          7           0       -4.978048   -0.719898   -3.307294
     67          8           0       -3.769885    0.300964   -1.813880
     68          1           0       -4.375812    2.152634   -0.326779
     69          1           0       -7.277061    2.138937   -0.969559
     70          1           0       -5.358461    2.297309   -2.606048
     71          1           0       -6.732366    1.224484   -2.911384
     72          1           0       -5.918588   -0.847145   -3.670738
     73          1           0       -4.242927   -1.361199   -3.588238
     74          7           0       -6.017671   -0.039535    0.972681
     75          6           0       -6.336685   -1.217611    1.758916
     76          6           0       -5.341782   -2.368665    1.735589
     77          8           0       -5.463940   -3.341069    2.483791
     78          1           0       -5.249157    0.560497    1.188202
     79          1           0       -7.185559   -1.804689    1.407843
     80          1           0       -6.598433   -1.004603    2.804964
     81          7           0       -4.342582   -2.333332    0.866998
     82          6           0       -3.317026   -3.342793    0.690009
     83          6           0       -1.915125   -2.760974    0.627882
     84          8           0       -1.651260   -1.874501   -0.193361
     85          6           0       -3.604635   -4.053292   -0.631192
     86          6           0       -4.887712   -4.840321   -0.735106
     87          6           0       -4.926487   -6.208322   -0.419397
     88          6           0       -6.046994   -4.208534   -1.189212
     89          6           0       -6.180168   -6.843751   -0.392723
     90          6           0       -7.250241   -4.927557   -1.248377
     91          6           0       -7.392374   -6.228723   -0.738117
     92          8           0       -8.595535   -6.874584   -0.729849
     93          1           0       -4.457412   -1.716503    0.071865
     94          1           0       -3.276214   -4.052615    1.519398
     95          1           0       -2.828996   -4.750273   -0.937789
     96          1           0       -3.768230   -3.278734   -1.377916
     97          1           0       -4.037918   -6.748597   -0.135410
     98          1           0       -6.116500   -3.190969   -1.554629
     99          1           0       -6.261023   -7.883433   -0.123235
    100          1           0       -8.129774   -4.358862   -1.529104
    101          1           0       -9.318046   -6.260841   -0.887632
    102          7           0       -0.972303   -3.218866    1.454152
    103          6           0        0.430749   -2.859817    1.429072
    104          6           0        1.146411   -3.675043    0.356629
    105          8           0        1.033927   -4.889259    0.241621
    106          6           0        1.144054   -2.970190    2.775777
    107          6           0        0.533278   -2.130217    3.893899
    108          6           0        2.639085   -2.682126    2.777174
    109          6           0        0.804873   -2.645405    5.300746
    110          1           0       -1.292183   -3.941041    2.072003
    111          1           0        0.384978   -1.801008    1.159758
    112          1           0        1.098406   -4.017272    3.042867
    113          1           0       -0.543777   -2.054710    3.736257
    114          1           0        0.910517   -1.107149    3.898602
    115          1           0        2.984370   -1.710560    2.429987
    116          1           0        2.999381   -2.721689    3.810238
    117          1           0        3.070786   -3.510084    2.203834
    118          1           0        1.860128   -2.594486    5.582249
    119          1           0        0.261404   -2.172752    6.121808
    120          1           0        0.468679   -3.679158    5.306100
    121          7           0        2.040594   -2.987478   -0.354913
    122          6           0        2.989611   -3.576622   -1.284415
    123          6           0        4.368131   -3.772740   -0.665610
    124          8           0        4.767107   -3.168943    0.326331
    125          6           0        3.036394   -2.784537   -2.582803
    126          8           0        3.519010   -1.461518   -2.540349
    127          1           0        2.004069   -1.984133   -0.442463
    128          1           0        2.704581   -4.614959   -1.472869
    129          1           0        2.001352   -2.836898   -2.938396
    130          1           0        3.576642   -3.436552   -3.273027
    131          1           0        3.402423   -0.991987   -3.365484
    132          7           0        5.296880   -4.403845   -1.387920
    133          6           0        6.677451   -4.605454   -0.972254
    134          6           0        7.505528   -3.335956   -1.113898
    135          8           0        8.326248   -2.908016   -0.309855
    136          6           0        7.219532   -5.830554   -1.702101
    137          1           0        5.026787   -4.856177   -2.247772
    138          1           0        6.652066   -4.814561    0.092513
    139          1           0        6.609373   -6.713893   -1.512577
    140          1           0        7.208889   -5.640265   -2.779030
    141          1           0        8.219844   -6.029169   -1.332198
    142          7           0        7.188077   -2.604498   -2.193293
    143          6           0        7.652118   -1.235658   -2.314715
    144          6           0        7.134986   -0.266579   -1.262641
    145          8           0        7.862101    0.579479   -0.746026
    146          6           0        7.508704   -0.760325   -3.760049
    147          1           0        6.391825   -2.904128   -2.742115
    148          1           0        8.717023   -1.172174   -2.138801
    149          1           0        7.770229    0.292486   -3.877925
    150          1           0        8.024868   -1.478209   -4.392123
    151          1           0        6.464861   -0.777334   -4.062044
    152          7           0        5.859409   -0.328812   -0.865741
    153          6           0        5.351615    0.397999    0.278633
    154          6           0        6.138182    0.145895    1.553606
    155          8           0        6.469021    1.074683    2.293876
    156          6           0        3.831322    0.245134    0.364888
    157          6           0        3.023415    1.137131   -0.570701
    158          6           0        1.528971    0.811510   -0.614397
    159          8           0        0.710046    1.748152   -0.681951
    160          8           0        1.177582   -0.384313   -0.749052
    161          1           0        5.213349   -0.878605   -1.398407
    162          1           0        5.520780    1.467411    0.087996
    163          1           0        3.460079    0.538983    1.347096
    164          1           0        3.620168   -0.816776    0.207846
    165          1           0        3.372501    1.062979   -1.596976
    166          1           0        3.200394    2.148773   -0.218197
    167          7           0        6.367502   -1.130969    1.896140
    168          6           0        7.130511   -1.537958    3.052979
    169          1           0        8.193699   -1.413375    2.848371
    170          1           0        6.851378   -0.922790    3.908152
    171          1           0        6.924215   -2.584741    3.275021
    172          1           0        6.062155   -1.871216    1.281976
    173         20           0       -1.224228    0.337911   -1.584396
    174          8           0       -0.962584   -1.795318   -3.128895
    175          1           0       -0.981033   -1.397134   -4.002799
    176          1           0       -1.093207   -2.731913   -3.282604
 ---------------------------------------------------------------------

 SCF Done:  E(RB3LYP) =  -5333.58216352     A.U. after   20 cycles

 The electronic state is 1-A.
 Alpha  occ. eigenvalues -- -145.36969 -19.21951 -19.20482 -19.15961 -19.13797
 Alpha  occ. eigenvalues --  -19.12253 -19.11700 -19.11109 -19.10826 -19.10516
 Alpha  occ. eigenvalues --  -19.09962 -19.09870 -19.08180 -19.06510 -19.06466
 Alpha  occ. eigenvalues --  -19.06415 -19.06260 -19.06221 -19.04009 -19.03681
 Alpha  occ. eigenvalues --  -19.03433 -19.03188 -19.02162 -19.00828 -15.42793
 Alpha  occ. eigenvalues --  -14.58698 -14.40047 -14.38261 -14.37216 -14.36896
 Alpha  occ. eigenvalues --  -14.35403 -14.35345 -14.33987 -14.33814 -14.32312
 Alpha  occ. eigenvalues --  -14.31751 -14.31662 -14.30483 -14.30094 -14.28953
 Alpha  occ. eigenvalues --  -12.56410 -12.56362 -12.56328 -10.34226 -10.32310
 Alpha  occ. eigenvalues --  -10.30765 -10.30010 -10.29988 -10.29747 -10.29192
 Alpha  occ. eigenvalues --  -10.29113 -10.28641 -10.27307 -10.26916 -10.26850
 Alpha  occ. eigenvalues --  -10.26674 -10.25872 -10.25574 -10.25366 -10.25342
 Alpha  occ. eigenvalues --  -10.24740 -10.24737 -10.24438 -10.23931 -10.23617
 Alpha  occ. eigenvalues --  -10.23028 -10.23004 -10.22772 -10.22608 -10.22316
 Alpha  occ. eigenvalues --  -10.21851 -10.21547 -10.21419 -10.21385 -10.20772
 Alpha  occ. eigenvalues --  -10.20424 -10.19899 -10.19738 -10.19725 -10.19712
 Alpha  occ. eigenvalues --  -10.19534 -10.19171 -10.18863 -10.18775 -10.18756
 Alpha  occ. eigenvalues --  -10.18503 -10.18456 -10.18414 -10.18132 -10.18051
 Alpha  occ. eigenvalues --  -10.18016 -10.17706 -10.17702 -10.17032 -10.16361
 Alpha  occ. eigenvalues --  -10.15972 -10.14222  -1.79784  -1.13816  -1.08328
 Alpha  occ. eigenvalues --   -1.08234  -1.07761  -1.07361  -1.07299  -1.06602
 Alpha  occ. eigenvalues --   -1.05322  -1.04936  -1.04563  -1.04298  -1.04273
 Alpha  occ. eigenvalues --   -1.03556  -1.03149  -1.01067  -1.00206  -0.99709
 Alpha  occ. eigenvalues --   -0.99255  -0.99150  -0.98881  -0.98110  -0.97060
 Alpha  occ. eigenvalues --   -0.96778  -0.96647  -0.96169  -0.95315  -0.94508
 Alpha  occ. eigenvalues --   -0.93725  -0.93271  -0.92016  -0.91088  -0.90863
 Alpha  occ. eigenvalues --   -0.90782  -0.89557  -0.88772  -0.88377  -0.88341
 Alpha  occ. eigenvalues --   -0.87779  -0.87648  -0.86786  -0.86210  -0.85781
 Alpha  occ. eigenvalues --   -0.84415  -0.83342  -0.82094  -0.80604  -0.80508
 Alpha  occ. eigenvalues --   -0.79298  -0.78755  -0.78647  -0.76660  -0.75866
 Alpha  occ. eigenvalues --   -0.75208  -0.74809  -0.74040  -0.73471  -0.73416
 Alpha  occ. eigenvalues --   -0.73189  -0.72801  -0.71095  -0.70853  -0.70814
 Alpha  occ. eigenvalues --   -0.70568  -0.70100  -0.69264  -0.68073  -0.67946
 Alpha  occ. eigenvalues --   -0.67368  -0.66862  -0.65799  -0.64993  -0.64580
 Alpha  occ. eigenvalues --   -0.63217  -0.63056  -0.62511  -0.62284  -0.62021
 Alpha  occ. eigenvalues --   -0.61450  -0.61328  -0.61247  -0.61156  -0.60261
 Alpha  occ. eigenvalues --   -0.60169  -0.59920  -0.59848  -0.59366  -0.58687
 Alpha  occ. eigenvalues --   -0.58234  -0.58093  -0.57217  -0.56938  -0.56047
 Alpha  occ. eigenvalues --   -0.55884  -0.55840  -0.55697  -0.55483  -0.54872
 Alpha  occ. eigenvalues --   -0.54842  -0.54781  -0.54352  -0.54232  -0.53217
 Alpha  occ. eigenvalues --   -0.53126  -0.52993  -0.52753  -0.52328  -0.52058
 Alpha  occ. eigenvalues --   -0.51472  -0.51094  -0.50694  -0.50571  -0.50145
 Alpha  occ. eigenvalues --   -0.49610  -0.49495  -0.49303  -0.48957  -0.48791
 Alpha  occ. eigenvalues --   -0.48534  -0.48295  -0.48142  -0.47957  -0.47797
 Alpha  occ. eigenvalues --   -0.47675  -0.47625  -0.47511  -0.47151  -0.47130
 Alpha  occ. eigenvalues --   -0.46855  -0.46570  -0.46467  -0.46400  -0.45985
 Alpha  occ. eigenvalues --   -0.45760  -0.45405  -0.45352  -0.44921  -0.44771
 Alpha  occ. eigenvalues --   -0.44680  -0.44564  -0.44292  -0.44220  -0.44122
 Alpha  occ. eigenvalues --   -0.43960  -0.43658  -0.43557  -0.43403  -0.43334
 Alpha  occ. eigenvalues --   -0.42991  -0.42701  -0.42655  -0.42479  -0.42169
 Alpha  occ. eigenvalues --   -0.42034  -0.41963  -0.41808  -0.41686  -0.41639
 Alpha  occ. eigenvalues --   -0.41490  -0.41359  -0.41194  -0.40934  -0.40878
 Alpha  occ. eigenvalues --   -0.40766  -0.40639  -0.40587  -0.40486  -0.40359
 Alpha  occ. eigenvalues --   -0.40084  -0.39952  -0.39861  -0.39676  -0.39397
 Alpha  occ. eigenvalues --   -0.39254  -0.39165  -0.38977  -0.38784  -0.38620
 Alpha  occ. eigenvalues --   -0.38554  -0.38512  -0.38284  -0.38216  -0.38184
 Alpha  occ. eigenvalues --   -0.38050  -0.37707  -0.37691  -0.37581  -0.37473
 Alpha  occ. eigenvalues --   -0.37342  -0.37173  -0.37124  -0.36778  -0.36551
 Alpha  occ. eigenvalues --   -0.36337  -0.36293  -0.36158  -0.36049  -0.35589
 Alpha  occ. eigenvalues --   -0.35458  -0.35367  -0.35232  -0.34925  -0.34857
 Alpha  occ. eigenvalues --   -0.34631  -0.34428  -0.34298  -0.34048  -0.33864
 Alpha  occ. eigenvalues --   -0.33822  -0.33385  -0.33209  -0.33065  -0.32995
 Alpha  occ. eigenvalues --   -0.32761  -0.32623  -0.32512  -0.32447  -0.32241
 Alpha  occ. eigenvalues --   -0.31801  -0.31416  -0.31245  -0.30724  -0.29802
 Alpha  occ. eigenvalues --   -0.29698  -0.29424  -0.29075  -0.28901  -0.28471
 Alpha  occ. eigenvalues --   -0.28135  -0.27618  -0.27380  -0.27178  -0.26716
 Alpha  occ. eigenvalues --   -0.26677  -0.26371  -0.25984  -0.25634  -0.25346
 Alpha  occ. eigenvalues --   -0.25034  -0.24507  -0.24462  -0.24077  -0.23976
 Alpha  occ. eigenvalues --   -0.23680  -0.23557  -0.22723  -0.22443  -0.22271
 Alpha  occ. eigenvalues --   -0.21996  -0.21947  -0.21510  -0.21311  -0.21009
 Alpha  occ. eigenvalues --   -0.20817  -0.20636  -0.19789  -0.19567  -0.19129
 Alpha  occ. eigenvalues --   -0.18334  -0.18003  -0.16923
 Alpha virt. eigenvalues --   -0.10795  -0.05670  -0.04940  -0.04010  -0.03230
 Alpha virt. eigenvalues --   -0.02632  -0.01510  -0.01015  -0.00843  -0.00441
 Alpha virt. eigenvalues --   -0.00182   0.00552   0.00739   0.00960   0.01245

 Mulliken charges:
               1
     1  C    0.051685
     2  C    0.046332
     3  O   -0.295060
     4  H    0.018601
     5  H    0.031091
     6  H    0.035337
     7  N   -0.151441
     8  C    0.089222
     9  C    0.080495
    10  O   -0.273844
    11  C    0.089421
    12  C    0.134596
    13  O   -0.372480
    14  O   -0.448377
    15  H    0.119217
    16  H    0.002398
    17  H   -0.003006
    18  H   -0.017831
    19  N   -0.172736
    20  C    0.157197
    21  C    0.075641
    22  O   -0.298776
    23  C   -0.041925
    24  C    0.032599
    25  C    0.030466
    26  C   -0.004884
    27  N    0.076713
    28  H    0.168125
    29  H    0.007007
    30  H   -0.015811
    31  H    0.063960
    32  H    0.018578
    33  H    0.024460
    34  H    0.024984
    35  H    0.019556
    36  H    0.059546
    37  H    0.077550
    38  H    0.199531
    39  H    0.181405
    40  H    0.187953
    41  N   -0.159017
    42  C    0.153588
    43  C    0.037109
    44  O   -0.290708
    45  C    0.107530
    46  C    0.083582
    47  O   -0.390042
    48  O   -0.470941
    49  H    0.136023
    50  H    0.016221
    51  H   -0.018169
    52  H    0.019607
    53  N   -0.158574
    54  C    0.233023
    55  C    0.043688
    56  O   -0.293138
    57  H    0.140751
    58  H    0.012634
    59  H    0.039313
    60  N   -0.182002
    61  C    0.147019
    62  C    0.047823
    63  O   -0.290978
    64  C    0.095438
    65  C    0.051150
    66  N   -0.043741
    67  O   -0.346228
    68  H    0.148023
    69  H    0.036525
    70  H    0.076500
    71  H   -0.002635
    72  H    0.136318
    73  H    0.116334
    74  N   -0.141878
    75  C    0.235492
    76  C   -0.005934
    77  O   -0.298064
    78  H    0.146058
    79  H    0.039721
    80  H    0.040617
    81  N   -0.117780
    82  C    0.167336
    83  C    0.143182
    84  O   -0.368575
    85  C    0.111033
    86  C   -0.023081
    87  C    0.033765
    88  C   -0.006280
    89  C   -0.042412
    90  C   -0.082065
    91  C    0.197782
    92  O   -0.195630
    93  H    0.132179
    94  H   -0.006967
    95  H   -0.011970
    96  H   -0.029724
    97  H   -0.036658
    98  H   -0.043655
    99  H   -0.029674
   100  H   -0.031962
   101  H    0.181827
   102  N   -0.111648
   103  C    0.160637
   104  C    0.065636
   105  O   -0.283506
   106  C   -0.089831
   107  C    0.004971
   108  C    0.063200
   109  C    0.019625
   110  H    0.122887
   111  H    0.024837
   112  H   -0.022944
   113  H    0.010317
   114  H   -0.003340
   115  H    0.014121
   116  H   -0.011342
   117  H    0.022234
   118  H    0.012911
   119  H    0.009200
   120  H   -0.002357
   121  N   -0.139563
   122  C    0.077981
   123  C    0.105461
   124  O   -0.262472
   125  C    0.242365
   126  O   -0.286769
   127  H    0.167190
   128  H    0.019353
   129  H   -0.004024
   130  H   -0.032602
   131  H    0.190439
   132  N   -0.159362
   133  C    0.079197
   134  C    0.078316
   135  O   -0.239546
   136  C    0.052776
   137  H    0.108792
   138  H    0.025156
   139  H    0.034873
   140  H    0.004012
   141  H    0.044412
   142  N   -0.145225
   143  C    0.122504
   144  C    0.031675
   145  O   -0.271557
   146  C    0.056765
   147  H    0.096365
   148  H    0.021722
   149  H    0.014121
   150  H    0.030904
   151  H   -0.034209
   152  N   -0.143241
   153  C    0.147749
   154  C    0.058591
   155  O   -0.277583
   156  C   -0.034255
   157  C    0.126111
   158  C    0.150656
   159  O   -0.421132
   160  O   -0.422034
   161  H    0.103483
   162  H   -0.044421
   163  H    0.049911
   164  H    0.011024
   165  H   -0.044421
   166  H   -0.033458
   167  N   -0.175971
   168  C    0.145308
   169  H    0.025569
   170  H    0.022283
   171  H    0.005029
   172  H    0.131516
   173  Ca   1.291539
   174  O   -0.279238
   175  H    0.179635
   176  H    0.196489
 Sum of Mulliken charges =   0.00000

 Dipole moment (field-independent basis, Debye):
    X=             31.3041    Y=             -5.8993    Z=            -22.5446  Tot=             39.0257
 Quadrupole moment (field-independent basis, Debye-Ang):
   XX=           -598.1226   YY=           -525.9045   ZZ=           -498.3999
   XY=            139.9708   XZ=            -78.2597   YZ=            -19.2863

 ESP charges:
               1
     1  C   -0.518318
     2  C    0.888852
     3  O   -0.668711
     4  H    0.113302
     5  H    0.135667
     6  H    0.149422
     7  N   -0.756365
     8  C    0.187531
     9  C    0.482881
    10  O   -0.561433
    11  C   -0.177078
    12  C    0.776498
    13  O   -0.715220
    14  O   -0.830108
    15  H    0.355202
    16  H    0.042128
    17  H    0.062810
    18  H    0.023010
    19  N    0.095286
    20  C   -0.605679
    21  C    0.667213
    22  O   -0.571542
    23  C    0.176490
    24  C   -0.079720
    25  C   -0.176426
    26  C    0.330283
    27  N   -0.586387
    28  H    0.055509
    29  H    0.211585
    30  H   -0.029365
    31  H    0.092722
    32  H    0.069957
    33  H    0.057342
    34  H    0.032128
    35  H    0.066953
    36  H    0.022105
    37  H    0.010185
    38  H    0.391001
    39  H    0.360306
    40  H    0.371939
    41  N   -0.446966
    42  C    0.131009
    43  C    0.449458
    44  O   -0.537474
    45  C   -0.330744
    46  C    0.855779
    47  O   -0.718261
    48  O   -0.927879
    49  H    0.370070
    50  H    0.078276
    51  H    0.069550
    52  H    0.097594
    53  N   -0.231307
    54  C   -0.254579
    55  C    0.655647
    56  O   -0.595016
    57  H    0.195357
    58  H    0.119580
    59  H    0.135685
    60  N   -0.466768
    61  C    0.131012
    62  C    0.349174
    63  O   -0.544553
    64  C   -0.363626
    65  C    0.826217
    66  N   -0.841042
    67  O   -0.736620
    68  H    0.374541
    69  H    0.130850
    70  H    0.164916
    71  H    0.084463
    72  H    0.365323
    73  H    0.381055
    74  N   -0.090018
    75  C   -0.163970
    76  C    0.620237
    77  O   -0.579091
    78  H    0.200172
    79  H    0.117526
    80  H    0.090205
    81  N   -0.542777
    82  C    0.244293
    83  C    0.662806
    84  O   -0.592969
    85  C   -0.189735
    86  C    0.105501
    87  C   -0.223858
    88  C   -0.099586
    89  C   -0.208511
    90  C   -0.387274
    91  C    0.438588
    92  O   -0.570242
    93  H    0.288386
    94  H    0.054641
    95  H    0.065355
    96  H   -0.002479
    97  H    0.148207
    98  H    0.145098
    99  H    0.136000
   100  H    0.149445
   101  H    0.422715
   102  N   -0.766172
   103  C    0.267460
   104  C    0.519298
   105  O   -0.566361
   106  C    0.172074
   107  C    0.105096
   108  C   -0.313612
   109  C   -0.331432
   110  H    0.328414
   111  H    0.058963
   112  H   -0.010191
   113  H    0.011698
   114  H    0.016811
   115  H    0.027074
   116  H    0.090053
   117  H    0.059629
   118  H    0.080132
   119  H    0.087734
   120  H    0.060436
   121  N   -0.320992
   122  C    0.183861
   123  C    0.535527
   124  O   -0.444941
   125  C   -0.067606
   126  O   -0.360040
   127  H    0.245056
   128  H    0.023524
   129  H    0.063588
   130  H    0.025407
   131  H    0.373524
   132  N   -0.516411
   133  C    0.167559
   134  C    0.498065
   135  O   -0.510675
   136  C   -0.309020
   137  H    0.288967
   138  H    0.074947
   139  H    0.105566
   140  H    0.069858
   141  H    0.113029
   142  N   -0.497231
   143  C    0.312095
   144  C    0.271397
   145  O   -0.510941
   146  C   -0.419200
   147  H    0.281146
   148  H    0.065626
   149  H    0.119730
   150  H    0.116664
   151  H    0.078050
   152  N    0.251812
   153  C   -0.775311
   154  C    0.717079
   155  O   -0.567953
   156  C    0.632374
   157  C   -0.117333
   158  C    0.679470
   159  O   -0.715024
   160  O   -0.751715
   161  H   -0.127740
   162  H    0.170012
   163  H   -0.003180
   164  H   -0.324590
   165  H    0.006529
   166  H   -0.010266
   167  N   -0.166245
   168  C   -0.269233
   169  H    0.111545
   170  H    0.098807
   171  H    0.095559
   172  H    0.210028
   173  Ca   1.737948
   174  O   -0.854507
   175  H    0.405717
   176  H    0.451651
 Sum of ESP charges =   0.00000

 Normal termination of Gaussian 09 at Mon Sep 16 12:19:37 2019.
