 Gaussian 16, Revision A.03,
 Gaussian 16:  ES64L-G16RevA.03 25-Dec-2016

 ----------------------------------------------------------------------
 #b3lyp/svp scf=(tight,noincore) Test #IOP(5/87=12) Density=Current Pop
 =(MK,readradii) iop(6/33=2) iop(6/42=6)
 ----------------------------------------------------------------------

 -----------------
 CaMKII_loop3_33.0
 -----------------
 Symbolic Z-matrix:
 Charge =  0 Multiplicity = 1

                         Standard orientation:
 ---------------------------------------------------------------------
 Center     Atomic      Atomic             Coordinates (Angstroms)
 Number     Number       Type             X           Y           Z
 ---------------------------------------------------------------------
      1          6           0        2.766498    1.941543    5.307255
      2          6           0        2.047029    2.115902    3.968202
      3          8           0        2.673313    2.291642    2.926384
      4          1           0        3.835768    2.100257    5.167528
      5          1           0        2.381747    2.667030    6.024890
      6          1           0        2.596096    0.932719    5.682791
      7          7           0        0.718651    2.089092    4.053002
      8          6           0       -0.129483    2.168234    2.879415
      9          6           0       -0.149435    3.574801    2.286311
     10          8           0       -0.934685    4.461674    2.606684
     11          6           0       -1.462478    1.522868    3.244690
     12          6           0       -2.480761    1.369768    2.121230
     13          8           0       -3.674730    1.435631    2.507105
     14          8           0       -2.188745    1.320112    0.913397
     15          1           0        0.270812    1.898947    4.931572
     16          1           0        0.297725    1.511210    2.117369
     17          1           0       -1.871336    2.164617    4.012213
     18          1           0       -1.167754    0.523155    3.577273
     19          7           0        0.702695    3.696690    1.268855
     20          6           0        1.117257    4.990063    0.748448
     21          6           0       -0.069254    5.559878   -0.004615
     22          8           0       -0.547706    6.644416    0.313915
     23          6           0        2.471991    4.902507    0.055679
     24          6           0        3.097773    6.281794   -0.147703
     25          6           0        4.343557    6.309117   -1.013194
     26          6           0        4.630346    5.073980   -1.858113
     27          7           0        5.840520    5.280509   -2.670532
     28          1           0        1.367355    2.932228    1.273864
     29          1           0        1.132643    5.601953    1.654623
     30          1           0        2.309325    4.463806   -0.933048
     31          1           0        3.244242    4.314642    0.557818
     32          1           0        3.253179    6.739735    0.827714
     33          1           0        2.344551    6.884609   -0.653639
     34          1           0        5.190516    6.362875   -0.323070
     35          1           0        4.268963    7.213526   -1.618652
     36          1           0        3.808239    4.975338   -2.574081
     37          1           0        4.693300    4.139668   -1.297045
     38          1           0        6.558783    5.747106   -2.132399
     39          1           0        6.313016    4.401087   -2.817039
     40          1           0        5.645044    5.788472   -3.520157
     41          7           0       -0.620116    4.896697   -1.030939
     42          6           0       -1.848558    5.239697   -1.728350
     43          6           0       -3.082681    4.995925   -0.866541
     44          8           0       -4.099434    5.620200   -1.160129
     45          6           0       -1.939903    4.490864   -3.054022
     46          6           0       -1.850462    2.982414   -3.014263
     47          8           0       -1.449047    2.443610   -4.072212
     48          8           0       -2.040010    2.348524   -1.956315
     49          1           0       -0.287429    4.006086   -1.342759
     50          1           0       -1.908124    6.309779   -1.922193
     51          1           0       -1.137519    4.880734   -3.687015
     52          1           0       -2.871009    4.834883   -3.521453
     53          7           0       -3.056709    4.165020    0.179749
     54          6           0       -4.201923    4.086966    1.059801
     55          6           0       -5.275067    3.117435    0.581811
     56          8           0       -6.427975    3.298674    0.969310
     57          1           0       -2.282195    3.518043    0.144393
     58          1           0       -4.720639    5.037854    1.177044
     59          1           0       -4.002200    3.773427    2.090482
     60          7           0       -4.970802    2.219643   -0.348507
     61          6           0       -5.923487    1.587474   -1.238537
     62          6           0       -6.460651    0.244407   -0.738111
     63          8           0       -7.282482   -0.406503   -1.388503
     64          6           0       -5.326926    1.458022   -2.630175
     65          6           0       -4.329198    0.317303   -2.727130
     66          7           0       -4.053500   -0.143250   -3.949006
     67          8           0       -3.832903   -0.207942   -1.728476
     68          1           0       -4.012504    2.066263   -0.627143
     69          1           0       -6.785643    2.245819   -1.334290
     70          1           0       -4.820494    2.364819   -2.948052
     71          1           0       -6.039158    1.230513   -3.434579
     72          1           0       -4.504372    0.328804   -4.718732
     73          1           0       -3.598183   -1.028164   -4.071539
     74          7           0       -6.155889   -0.037791    0.521010
     75          6           0       -6.652922   -1.101926    1.372699
     76          6           0       -5.664728   -2.217080    1.671037
     77          8           0       -5.999418   -3.205240    2.318587
     78          1           0       -5.551770    0.609600    1.014592
     79          1           0       -7.546559   -1.541283    0.932043
     80          1           0       -6.970751   -0.687699    2.332700
     81          7           0       -4.420476   -2.076279    1.218366
     82          6           0       -3.413024   -3.123913    1.220611
     83          6           0       -2.031625   -2.514400    1.378186
     84          8           0       -1.763610   -1.457532    0.798706
     85          6           0       -3.433933   -3.845609   -0.119283
     86          6           0       -4.814284   -4.315255   -0.511028
     87          6           0       -5.291358   -5.527997   -0.012775
     88          6           0       -5.602281   -3.580153   -1.407848
     89          6           0       -6.544171   -6.022439   -0.389722
     90          6           0       -6.872478   -4.064518   -1.753232
     91          6           0       -7.370637   -5.286100   -1.263769
     92          8           0       -8.569573   -5.805600   -1.653733
     93          1           0       -4.328917   -1.290398    0.583852
     94          1           0       -3.679957   -3.882555    1.952602
     95          1           0       -2.756949   -4.699514   -0.167642
     96          1           0       -3.024400   -3.177092   -0.886530
     97          1           0       -4.750939   -6.127389    0.704355
     98          1           0       -5.287684   -2.650027   -1.857843
     99          1           0       -7.044295   -6.890491    0.033317
    100          1           0       -7.464986   -3.507537   -2.450661
    101          1           0       -9.006337   -5.340889   -2.381663
    102          7           0       -1.133786   -3.184803    2.105747
    103          6           0        0.287870   -2.995921    1.941375
    104          6           0        0.950568   -3.945781    0.943127
    105          8           0        0.764584   -5.156756    1.037198
    106          6           0        1.025588   -2.919347    3.280071
    107          6           0        0.425954   -2.024181    4.352692
    108          6           0        2.440898   -2.426075    3.018196
    109          6           0        0.759439   -2.468837    5.774546
    110          1           0       -1.339477   -4.089028    2.518746
    111          1           0        0.411056   -2.020817    1.472976
    112          1           0        1.043960   -3.959523    3.622267
    113          1           0       -0.662497   -2.068188    4.334346
    114          1           0        0.678758   -0.974410    4.169468
    115          1           0        3.101379   -3.143113    2.530526
    116          1           0        2.419021   -1.473171    2.499163
    117          1           0        3.029118   -2.332851    3.936568
    118          1           0        0.321867   -3.446165    5.975445
    119          1           0        1.837643   -2.587849    5.810778
    120          1           0        0.388036   -1.847267    6.597657
    121          7           0        1.758508   -3.362614    0.045548
    122          6           0        2.562074   -4.108632   -0.892663
    123          6           0        4.065294   -3.879858   -0.780890
    124          8           0        4.520100   -2.947596   -0.124659
    125          6           0        2.209520   -4.002205   -2.372284
    126          8           0        2.025169   -2.665504   -2.773837
    127          1           0        1.869976   -2.360123    0.021348
    128          1           0        2.413128   -5.159082   -0.639345
    129          1           0        1.200307   -4.413496   -2.438835
    130          1           0        2.901306   -4.503387   -3.038354
    131          1           0        2.281473   -2.584235   -3.697797
    132          7           0        4.942861   -4.749029   -1.306358
    133          6           0        6.379237   -4.779113   -1.126584
    134          6           0        7.072875   -3.436514   -1.239691
    135          8           0        7.751915   -3.091185   -0.269406
    136          6           0        6.892648   -5.840025   -2.098734
    137          1           0        4.612234   -5.533930   -1.839853
    138          1           0        6.493117   -5.095968   -0.091434
    139          1           0        7.977617   -5.777716   -1.999438
    140          1           0        6.465406   -6.823758   -1.950297
    141          1           0        6.530081   -5.604256   -3.092896
    142          7           0        6.871043   -2.676948   -2.315713
    143          6           0        7.366962   -1.328115   -2.552386
    144          6           0        7.066487   -0.378474   -1.398914
    145          8           0        7.852023    0.533552   -1.140186
    146          6           0        6.665471   -0.814616   -3.809218
    147          1           0        6.217857   -3.063569   -2.976601
    148          1           0        8.450878   -1.293540   -2.672930
    149          1           0        6.835707    0.229107   -4.061335
    150          1           0        6.976545   -1.357377   -4.703390
    151          1           0        5.591757   -0.859883   -3.679642
    152          7           0        5.853393   -0.525413   -0.866925
    153          6           0        5.419674    0.460358    0.103406
    154          6           0        5.926472    0.144140    1.503678
    155          8           0        6.321802    1.048943    2.227796
    156          6           0        3.895359    0.521882    0.159806
    157          6           0        3.266242    0.752984   -1.214131
    158          6           0        1.755150    0.792508   -1.099069
    159          8           0        1.180244    0.006537   -0.306206
    160          8           0        1.009351    1.501294   -1.809002
    161          1           0        5.204586   -1.177382   -1.260098
    162          1           0        5.769809    1.433487   -0.236191
    163          1           0        3.636992    1.374841    0.774873
    164          1           0        3.425430   -0.347111    0.625122
    165          1           0        3.460263   -0.125585   -1.831117
    166          1           0        3.607117    1.626033   -1.783507
    167          7           0        6.005807   -1.118330    1.934578
    168          6           0        6.784901   -1.507294    3.096180
    169          1           0        7.846686   -1.427472    2.863776
    170          1           0        6.545979   -0.849314    3.931212
    171          1           0        6.548783   -2.536638    3.364448
    172          1           0        5.908243   -1.835541    1.229037
    173         20           0       -1.203727    0.106236   -1.115677
    174          8           0       -0.750027   -2.367534   -1.866092
    175          1           0       -1.278428   -3.020773   -2.319270
    176          1           0        0.154412   -2.592639   -2.091299
 ---------------------------------------------------------------------

 SCF Done:  E(RB3LYP) =  -5333.57831750     A.U. after   20 cycles

 The electronic state is 1-A.
 Alpha  occ. eigenvalues -- -145.35261 -19.21108 -19.19081 -19.15265 -19.14538
 Alpha  occ. eigenvalues --  -19.13034 -19.12748 -19.11883 -19.11621 -19.11072
 Alpha  occ. eigenvalues --  -19.09076 -19.07591 -19.07377 -19.06705 -19.06387
 Alpha  occ. eigenvalues --  -19.05337 -19.05238 -19.05223 -19.03802 -19.02612
 Alpha  occ. eigenvalues --  -19.02161 -19.01878 -19.01014 -18.99925 -15.41048
 Alpha  occ. eigenvalues --  -14.58369 -14.41305 -14.40243 -14.39046 -14.37268
 Alpha  occ. eigenvalues --  -14.36817 -14.35916 -14.34324 -14.33189 -14.32020
 Alpha  occ. eigenvalues --  -14.31817 -14.30958 -14.30572 -14.28376 -14.27566
 Alpha  occ. eigenvalues --  -12.54660 -12.54624 -12.54600 -10.34375 -10.33995
 Alpha  occ. eigenvalues --  -10.32188 -10.31093 -10.30518 -10.30156 -10.30122
 Alpha  occ. eigenvalues --  -10.29338 -10.28634 -10.28043 -10.27502 -10.27250
 Alpha  occ. eigenvalues --  -10.27185 -10.26611 -10.26292 -10.24616 -10.24447
 Alpha  occ. eigenvalues --  -10.24393 -10.24311 -10.24036 -10.23871 -10.23587
 Alpha  occ. eigenvalues --  -10.23360 -10.23032 -10.22773 -10.22464 -10.21838
 Alpha  occ. eigenvalues --  -10.21726 -10.21524 -10.21053 -10.20737 -10.20721
 Alpha  occ. eigenvalues --  -10.20697 -10.20061 -10.19797 -10.19672 -10.19485
 Alpha  occ. eigenvalues --  -10.18854 -10.18769 -10.18768 -10.18157 -10.18142
 Alpha  occ. eigenvalues --  -10.18122 -10.17870 -10.17820 -10.17801 -10.17445
 Alpha  occ. eigenvalues --  -10.17313 -10.17157 -10.16675 -10.16524 -10.14572
 Alpha  occ. eigenvalues --  -10.14554 -10.14180  -1.78023  -1.13736  -1.09659
 Alpha  occ. eigenvalues --   -1.08779  -1.06091  -1.06083  -1.05851  -1.05750
 Alpha  occ. eigenvalues --   -1.05402  -1.04610  -1.04269  -1.04091  -1.03529
 Alpha  occ. eigenvalues --   -1.02710  -1.02232  -1.01818  -1.00829  -0.99686
 Alpha  occ. eigenvalues --   -0.98813  -0.98348  -0.98083  -0.97803  -0.97153
 Alpha  occ. eigenvalues --   -0.96798  -0.96071  -0.95749  -0.95631  -0.94852
 Alpha  occ. eigenvalues --   -0.94015  -0.94000  -0.91315  -0.91085  -0.91004
 Alpha  occ. eigenvalues --   -0.89997  -0.89400  -0.89333  -0.88448  -0.87597
 Alpha  occ. eigenvalues --   -0.87545  -0.86852  -0.85778  -0.85664  -0.84594
 Alpha  occ. eigenvalues --   -0.83735  -0.82935  -0.82687  -0.81860  -0.81072
 Alpha  occ. eigenvalues --   -0.80454  -0.79545  -0.77783  -0.76777  -0.75282
 Alpha  occ. eigenvalues --   -0.75159  -0.75039  -0.74372  -0.73579  -0.72971
 Alpha  occ. eigenvalues --   -0.72403  -0.72012  -0.71982  -0.71164  -0.71124
 Alpha  occ. eigenvalues --   -0.70455  -0.70318  -0.69542  -0.68845  -0.68190
 Alpha  occ. eigenvalues --   -0.67681  -0.66529  -0.66454  -0.64546  -0.63957
 Alpha  occ. eigenvalues --   -0.63766  -0.63678  -0.63229  -0.62846  -0.62257
 Alpha  occ. eigenvalues --   -0.62154  -0.61265  -0.61215  -0.61000  -0.60312
 Alpha  occ. eigenvalues --   -0.60003  -0.59822  -0.58687  -0.58671  -0.58475
 Alpha  occ. eigenvalues --   -0.58217  -0.57923  -0.57443  -0.57163  -0.56418
 Alpha  occ. eigenvalues --   -0.56367  -0.56094  -0.55540  -0.55290  -0.55123
 Alpha  occ. eigenvalues --   -0.55033  -0.54616  -0.54411  -0.53970  -0.53698
 Alpha  occ. eigenvalues --   -0.53241  -0.53181  -0.52734  -0.52135  -0.51404
 Alpha  occ. eigenvalues --   -0.51217  -0.50761  -0.50587  -0.50517  -0.50360
 Alpha  occ. eigenvalues --   -0.49810  -0.49661  -0.49337  -0.49299  -0.49135
 Alpha  occ. eigenvalues --   -0.48833  -0.48692  -0.48256  -0.47964  -0.47855
 Alpha  occ. eigenvalues --   -0.47737  -0.47638  -0.47306  -0.46948  -0.46711
 Alpha  occ. eigenvalues --   -0.46497  -0.46426  -0.46150  -0.46118  -0.45849
 Alpha  occ. eigenvalues --   -0.45679  -0.45326  -0.45145  -0.45061  -0.44842
 Alpha  occ. eigenvalues --   -0.44692  -0.44662  -0.44581  -0.44331  -0.44313
 Alpha  occ. eigenvalues --   -0.44066  -0.43845  -0.43722  -0.43595  -0.43343
 Alpha  occ. eigenvalues --   -0.43227  -0.43160  -0.42914  -0.42748  -0.42693
 Alpha  occ. eigenvalues --   -0.42563  -0.42414  -0.42143  -0.42073  -0.42004
 Alpha  occ. eigenvalues --   -0.41621  -0.41247  -0.41118  -0.40961  -0.40634
 Alpha  occ. eigenvalues --   -0.40410  -0.40366  -0.40237  -0.40093  -0.40090
 Alpha  occ. eigenvalues --   -0.39913  -0.39772  -0.39508  -0.39375  -0.39097
 Alpha  occ. eigenvalues --   -0.39015  -0.38883  -0.38799  -0.38684  -0.38549
 Alpha  occ. eigenvalues --   -0.38435  -0.38281  -0.38208  -0.38089  -0.37976
 Alpha  occ. eigenvalues --   -0.37850  -0.37614  -0.37314  -0.37147  -0.37100
 Alpha  occ. eigenvalues --   -0.36853  -0.36698  -0.36613  -0.36480  -0.36464
 Alpha  occ. eigenvalues --   -0.36260  -0.36048  -0.35946  -0.35695  -0.35349
 Alpha  occ. eigenvalues --   -0.35074  -0.34949  -0.34816  -0.34754  -0.34484
 Alpha  occ. eigenvalues --   -0.34123  -0.34085  -0.34042  -0.33862  -0.33708
 Alpha  occ. eigenvalues --   -0.33630  -0.33302  -0.32892  -0.32459  -0.32335
 Alpha  occ. eigenvalues --   -0.32223  -0.32050  -0.32000  -0.31837  -0.31265
 Alpha  occ. eigenvalues --   -0.31210  -0.31147  -0.31138  -0.30975  -0.30624
 Alpha  occ. eigenvalues --   -0.29602  -0.29487  -0.29196  -0.28825  -0.28635
 Alpha  occ. eigenvalues --   -0.28468  -0.28421  -0.28210  -0.27062  -0.26811
 Alpha  occ. eigenvalues --   -0.26694  -0.26566  -0.26495  -0.25182  -0.24773
 Alpha  occ. eigenvalues --   -0.24035  -0.23904  -0.23777  -0.23676  -0.22979
 Alpha  occ. eigenvalues --   -0.22819  -0.22609  -0.22331  -0.22227  -0.21214
 Alpha  occ. eigenvalues --   -0.21182  -0.21019  -0.20615  -0.20486  -0.20142
 Alpha  occ. eigenvalues --   -0.19996  -0.19624  -0.18805  -0.18504  -0.17668
 Alpha  occ. eigenvalues --   -0.17170  -0.16468  -0.16049
 Alpha virt. eigenvalues --   -0.10451  -0.05195  -0.04786  -0.04300  -0.04146
 Alpha virt. eigenvalues --   -0.02576  -0.01690  -0.01236  -0.00940  -0.00239
 Alpha virt. eigenvalues --   -0.00109   0.00113   0.00710   0.01378   0.01710

 Mulliken charges:
               1
     1  C    0.034829
     2  C    0.042710
     3  O   -0.294008
     4  H    0.037429
     5  H    0.028754
     6  H    0.027069
     7  N   -0.117046
     8  C    0.035539
     9  C    0.084428
    10  O   -0.248794
    11  C    0.070459
    12  C    0.147576
    13  O   -0.381550
    14  O   -0.456775
    15  H    0.115985
    16  H    0.008906
    17  H    0.012235
    18  H   -0.002796
    19  N   -0.144249
    20  C    0.165578
    21  C    0.034061
    22  O   -0.255722
    23  C   -0.001017
    24  C   -0.001792
    25  C   -0.013491
    26  C   -0.028675
    27  N    0.098403
    28  H    0.142725
    29  H    0.000641
    30  H    0.006653
    31  H    0.027544
    32  H    0.031367
    33  H    0.030782
    34  H    0.023811
    35  H    0.027542
    36  H    0.085851
    37  H    0.108968
    38  H    0.179332
    39  H    0.191878
    40  H    0.200925
    41  N   -0.138932
    42  C    0.134606
    43  C    0.035813
    44  O   -0.305057
    45  C    0.055911
    46  C    0.119203
    47  O   -0.383733
    48  O   -0.468246
    49  H    0.124309
    50  H   -0.004847
    51  H   -0.013828
    52  H    0.018848
    53  N   -0.156939
    54  C    0.264655
    55  C    0.025617
    56  O   -0.307378
    57  H    0.156566
    58  H    0.016017
    59  H    0.038968
    60  N   -0.166829
    61  C    0.157868
    62  C    0.055200
    63  O   -0.303813
    64  C    0.048671
    65  C    0.048413
    66  N   -0.004448
    67  O   -0.356155
    68  H    0.151097
    69  H    0.027771
    70  H    0.065799
    71  H    0.012368
    72  H    0.128310
    73  H    0.113414
    74  N   -0.163825
    75  C    0.230979
    76  C    0.018467
    77  O   -0.298436
    78  H    0.162300
    79  H    0.034771
    80  H    0.042202
    81  N   -0.132391
    82  C    0.106606
    83  C    0.185699
    84  O   -0.349423
    85  C    0.131366
    86  C    0.007390
    87  C    0.025814
    88  C   -0.003895
    89  C   -0.029983
    90  C   -0.039247
    91  C    0.163987
    92  O   -0.209662
    93  H    0.150341
    94  H    0.002116
    95  H   -0.015495
    96  H   -0.055328
    97  H   -0.038707
    98  H   -0.037884
    99  H   -0.024688
   100  H   -0.047860
   101  H    0.180732
   102  N   -0.106284
   103  C    0.123977
   104  C    0.077917
   105  O   -0.275099
   106  C   -0.086194
   107  C    0.021726
   108  C    0.032483
   109  C    0.030515
   110  H    0.130797
   111  H    0.014743
   112  H   -0.020583
   113  H    0.008533
   114  H    0.010440
   115  H   -0.000189
   116  H    0.049622
   117  H   -0.002855
   118  H    0.000548
   119  H   -0.005874
   120  H    0.017273
   121  N   -0.137019
   122  C    0.121728
   123  C    0.060003
   124  O   -0.271652
   125  C    0.196811
   126  O   -0.305704
   127  H    0.154405
   128  H    0.030996
   129  H    0.000551
   130  H    0.000609
   131  H    0.186374
   132  N   -0.123426
   133  C    0.088154
   134  C    0.053083
   135  O   -0.255551
   136  C    0.037049
   137  H    0.106072
   138  H    0.026522
   139  H    0.057475
   140  H    0.031029
   141  H   -0.004602
   142  N   -0.113778
   143  C    0.110546
   144  C    0.073259
   145  O   -0.277052
   146  C    0.033011
   147  H    0.100070
   148  H    0.022783
   149  H    0.009947
   150  H    0.028445
   151  H   -0.003621
   152  N   -0.155192
   153  C    0.178294
   154  C    0.070077
   155  O   -0.278236
   156  C   -0.041526
   157  C    0.110354
   158  C    0.090828
   159  O   -0.465894
   160  O   -0.366540
   161  H    0.127007
   162  H   -0.051858
   163  H    0.034091
   164  H    0.034415
   165  H   -0.028874
   166  H   -0.052471
   167  N   -0.169639
   168  C    0.140423
   169  H    0.022712
   170  H    0.030328
   171  H    0.005071
   172  H    0.134897
   173  Ca   1.284336
   174  O   -0.299743
   175  H    0.181603
   176  H    0.166297
 Sum of Mulliken charges =  -0.00000

 Dipole moment (field-independent basis, Debye):
    X=             37.0952    Y=             -8.4610    Z=            -21.4768  Tot=             43.6909
 Quadrupole moment (field-independent basis, Debye-Ang):
   XX=           -589.4346   YY=           -511.1783   ZZ=           -487.6899
   XY=            109.6177   XZ=            -61.7114   YZ=            -14.5115

 ESP charges:
               1
     1  C   -0.495162
     2  C    0.863942
     3  O   -0.660075
     4  H    0.143866
     5  H    0.121175
     6  H    0.115437
     7  N   -0.804347
     8  C    0.487368
     9  C    0.420175
    10  O   -0.502598
    11  C   -0.412995
    12  C    0.853014
    13  O   -0.660251
    14  O   -1.147816
    15  H    0.366468
    16  H   -0.004001
    17  H    0.105093
    18  H    0.067594
    19  N   -0.068930
    20  C   -0.475789
    21  C    0.485650
    22  O   -0.510084
    23  C    0.313901
    24  C   -0.032922
    25  C   -0.228053
    26  C    0.335179
    27  N   -0.730314
    28  H    0.144585
    29  H    0.172794
    30  H   -0.081407
    31  H    0.001199
    32  H    0.048111
    33  H    0.060313
    34  H    0.053978
    35  H    0.079862
    36  H    0.060032
    37  H    0.050452
    38  H    0.385557
    39  H    0.418395
    40  H    0.426732
    41  N   -0.430837
    42  C    0.163449
    43  C    0.455844
    44  O   -0.583453
    45  C   -0.365869
    46  C    0.824218
    47  O   -0.717367
    48  O   -0.799901
    49  H    0.311988
    50  H    0.057841
    51  H    0.077335
    52  H    0.098588
    53  N   -0.042970
    54  C   -0.356461
    55  C    0.717926
    56  O   -0.617761
    57  H    0.221736
    58  H    0.145430
    59  H    0.156484
    60  N   -0.353022
    61  C   -0.240587
    62  C    0.420688
    63  O   -0.529038
    64  C   -0.023107
    65  C    0.568486
    66  N   -0.737081
    67  O   -0.586532
    68  H    0.290737
    69  H    0.173867
    70  H    0.081930
    71  H    0.035088
    72  H    0.366737
    73  H    0.352709
    74  N   -0.031316
    75  C   -0.439068
    76  C    0.840221
    77  O   -0.593188
    78  H    0.228217
    79  H    0.174246
    80  H    0.137364
    81  N   -0.852194
    82  C    0.327472
    83  C    0.493959
    84  O   -0.273090
    85  C   -0.142960
    86  C   -0.035796
    87  C   -0.042066
    88  C   -0.137322
    89  C   -0.363796
    90  C   -0.364608
    91  C    0.495346
    92  O   -0.588622
    93  H    0.492262
    94  H    0.050446
    95  H    0.038092
    96  H    0.019072
    97  H    0.109513
    98  H    0.164700
    99  H    0.181193
   100  H    0.145714
   101  H    0.417672
   102  N   -0.680323
   103  C    0.090754
   104  C    0.446036
   105  O   -0.522496
   106  C    0.518581
   107  C   -0.059231
   108  C   -0.662153
   109  C   -0.236688
   110  H    0.321426
   111  H   -0.029075
   112  H   -0.073595
   113  H    0.043100
   114  H    0.047548
   115  H    0.120803
   116  H    0.125574
   117  H    0.174557
   118  H    0.057821
   119  H    0.023585
   120  H    0.080294
   121  N   -0.194082
   122  C    0.031643
   123  C    0.514727
   124  O   -0.534909
   125  C    0.055245
   126  O   -0.597216
   127  H    0.327842
   128  H    0.041129
   129  H    0.032706
   130  H    0.046275
   131  H    0.427360
   132  N   -0.445117
   133  C    0.133685
   134  C    0.597520
   135  O   -0.547267
   136  C   -0.438472
   137  H    0.279561
   138  H    0.080210
   139  H    0.140459
   140  H    0.149408
   141  H    0.099584
   142  N   -0.496179
   143  C    0.144945
   144  C    0.359897
   145  O   -0.525322
   146  C   -0.324496
   147  H    0.256627
   148  H    0.082137
   149  H    0.097843
   150  H    0.107058
   151  H    0.065953
   152  N    0.095184
   153  C   -0.615575
   154  C    0.753409
   155  O   -0.577142
   156  C   -0.016520
   157  C   -0.024664
   158  C    0.626769
   159  O   -0.691408
   160  O   -0.682513
   161  H    0.192434
   162  H    0.185356
   163  H    0.152643
   164  H   -0.040614
   165  H    0.003013
   166  H   -0.051368
   167  N   -0.271290
   168  C   -0.299449
   169  H    0.123133
   170  H    0.121277
   171  H    0.107181
   172  H    0.269812
   173  Ca   1.574629
   174  O   -0.908782
   175  H    0.448955
   176  H    0.415572
 Sum of ESP charges =   0.00000

 Normal termination of Gaussian 16 at Wed Sep 18 16:11:36 2019.
