 Gaussian 16, Revision A.03,
 Gaussian 16:  ES64L-G16RevA.03 25-Dec-2016

 ----------------------------------------------------------------------
 #b3lyp/svp scf=(tight,noincore) Test #IOP(5/87=12) Density=Current Pop
 =(MK,readradii) iop(6/33=2) iop(6/42=6)
 ----------------------------------------------------------------------

 ------------------
 CaMKII_loop3_100.0
 ------------------
 Symbolic Z-matrix:
 Charge =  0 Multiplicity = 1

                         Standard orientation:
 ---------------------------------------------------------------------
 Center     Atomic      Atomic             Coordinates (Angstroms)
 Number     Number       Type             X           Y           Z
 ---------------------------------------------------------------------
      1          6           0        2.264424    2.916364    4.347562
      2          6           0        1.493561    2.541686    3.091701
      3          8           0        2.138625    2.276616    2.077783
      4          1           0        1.562465    3.147260    5.148720
      5          1           0        2.896389    2.081528    4.649113
      6          1           0        2.885483    3.789205    4.146994
      7          7           0        0.165847    2.443258    3.171618
      8          6           0       -0.747416    2.432978    2.045898
      9          6           0       -1.372140    3.794302    1.746038
     10          8           0       -2.379865    4.198706    2.309553
     11          6           0       -1.724389    1.297474    2.319862
     12          6           0       -2.852441    1.327770    1.301933
     13          8           0       -2.691359    1.455979    0.068030
     14          8           0       -3.973362    1.005970    1.769459
     15          1           0       -0.289339    2.682264    4.042125
     16          1           0       -0.225657    2.282473    1.100321
     17          1           0       -2.120010    1.408334    3.323901
     18          1           0       -1.267022    0.309255    2.257114
     19          7           0       -0.525331    4.547314    1.028274
     20          6           0       -0.757101    5.932715    0.668349
     21          6           0       -1.702482    6.077604   -0.512059
     22          8           0       -2.452408    7.059839   -0.555959
     23          6           0        0.541145    6.597303    0.208046
     24          6           0        1.744492    6.639304    1.138203
     25          6           0        2.967288    7.228819    0.430571
     26          6           0        4.087172    7.565473    1.415622
     27          7           0        4.694763    6.324813    1.919801
     28          1           0        0.262503    4.066778    0.615597
     29          1           0       -1.068719    6.493384    1.549850
     30          1           0        0.230064    7.619249   -0.033940
     31          1           0        0.937322    6.229795   -0.743732
     32          1           0        2.082736    5.665869    1.470791
     33          1           0        1.458192    7.215817    2.016875
     34          1           0        2.561923    8.135490   -0.028260
     35          1           0        3.323751    6.574258   -0.363334
     36          1           0        3.754274    8.221417    2.216069
     37          1           0        4.868305    8.095226    0.874611
     38          1           0        5.678310    6.474290    2.121029
     39          1           0        4.247485    6.038315    2.781230
     40          1           0        4.842216    5.622732    1.216211
     41          7           0       -1.737791    5.166618   -1.476143
     42          6           0       -2.800048    5.099532   -2.450622
     43          6           0       -4.117919    4.602579   -1.863379
     44          8           0       -5.164531    4.924810   -2.426290
     45          6           0       -2.316973    4.268044   -3.632554
     46          6           0       -1.875066    2.920325   -3.089810
     47          8           0       -2.617651    1.915458   -3.167977
     48          8           0       -0.818689    2.767520   -2.445049
     49          1           0       -1.165754    4.333155   -1.342674
     50          1           0       -2.913875    6.095104   -2.877798
     51          1           0       -1.504808    4.817078   -4.105998
     52          1           0       -3.101387    4.082392   -4.375204
     53          7           0       -4.103636    3.890344   -0.740206
     54          6           0       -5.238121    3.702699    0.145194
     55          6           0       -6.200360    2.594408   -0.251023
     56          8           0       -7.375562    2.712681    0.074415
     57          1           0       -3.232135    3.572323   -0.342273
     58          1           0       -5.865619    4.601191    0.197723
     59          1           0       -4.781202    3.486197    1.113053
     60          7           0       -5.696988    1.542689   -0.893988
     61          6           0       -6.375466    0.417147   -1.498489
     62          6           0       -6.558218   -0.723359   -0.507456
     63          8           0       -7.449678   -1.574383   -0.632188
     64          6           0       -5.591137   -0.085714   -2.703877
     65          6           0       -4.529597   -1.110520   -2.336582
     66          7           0       -4.597262   -2.287633   -2.959740
     67          8           0       -3.572814   -0.826988   -1.624068
     68          1           0       -4.684906    1.468634   -0.946963
     69          1           0       -7.330814    0.819424   -1.856795
     70          1           0       -5.095773    0.660757   -3.316082
     71          1           0       -6.312988   -0.632831   -3.320314
     72          1           0       -5.451083   -2.560603   -3.433953
     73          1           0       -3.798983   -2.886251   -2.773712
     74          7           0       -5.805494   -0.614922    0.579626
     75          6           0       -5.947811   -1.508572    1.724369
     76          6           0       -4.813215   -2.469234    2.044247
     77          8           0       -4.768086   -3.198601    3.029380
     78          1           0       -5.139044    0.147195    0.631789
     79          1           0       -6.865709   -2.075818    1.573722
     80          1           0       -6.101654   -0.763927    2.503109
     81          7           0       -3.809809   -2.431982    1.158364
     82          6           0       -2.693674   -3.353423    1.108483
     83          6           0       -1.352294   -2.632576    1.031161
     84          8           0       -1.296177   -1.583688    0.408597
     85          6           0       -2.892238   -4.403009    0.028048
     86          6           0       -4.180805   -5.151289    0.318345
     87          6           0       -4.219620   -6.263193    1.167027
     88          6           0       -5.303861   -4.711474   -0.376213
     89          6           0       -5.413506   -6.996818    1.220215
     90          6           0       -6.502304   -5.424739   -0.249781
     91          6           0       -6.574889   -6.612639    0.507336
     92          8           0       -7.616863   -7.486114    0.394498
     93          1           0       -3.942788   -1.854647    0.338363
     94          1           0       -2.622016   -3.740967    2.124492
     95          1           0       -2.122215   -5.165469   -0.108039
     96          1           0       -3.087202   -3.900900   -0.919621
     97          1           0       -3.375366   -6.516954    1.787060
     98          1           0       -5.302226   -3.845085   -1.023799
     99          1           0       -5.424362   -7.895565    1.816148
    100          1           0       -7.377925   -5.022368   -0.742412
    101          1           0       -8.310524   -7.246566   -0.229963
    102          7           0       -0.346120   -3.125559    1.760531
    103          6           0        0.998758   -2.589467    1.740245
    104          6           0        1.722055   -3.690224    0.988064
    105          8           0        1.721089   -4.892395    1.245714
    106          6           0        1.738999   -2.362519    3.061205
    107          6           0        0.974450   -1.493227    4.056743
    108          6           0        3.093347   -1.766491    2.719021
    109          6           0        1.401867   -1.632387    5.511889
    110          1           0       -0.512096   -3.956097    2.304644
    111          1           0        1.070520   -1.675956    1.135805
    112          1           0        1.868437   -3.368297    3.464884
    113          1           0       -0.095744   -1.682432    4.130130
    114          1           0        1.136034   -0.425875    3.845197
    115          1           0        3.599136   -1.572049    3.668531
    116          1           0        3.780339   -2.460087    2.225495
    117          1           0        2.998689   -0.898610    2.066395
    118          1           0        0.973157   -0.822453    6.105196
    119          1           0        1.049464   -2.627423    5.799319
    120          1           0        2.464240   -1.720540    5.724002
    121          7           0        2.553531   -3.238273    0.037649
    122          6           0        3.418551   -4.050034   -0.796968
    123          6           0        4.840463   -3.564757   -0.518452
    124          8           0        5.010030   -2.458776   -0.017998
    125          6           0        3.043240   -3.843240   -2.255384
    126          8           0        1.734013   -4.313139   -2.499762
    127          1           0        2.576502   -2.247677   -0.147533
    128          1           0        3.285963   -5.091078   -0.496725
    129          1           0        3.807164   -4.288244   -2.895142
    130          1           0        3.023777   -2.769057   -2.458249
    131          1           0        1.682857   -4.655339   -3.389471
    132          7           0        5.844504   -4.352106   -0.926598
    133          6           0        7.259504   -4.141375   -0.656844
    134          6           0        7.788292   -2.757300   -1.004579
    135          8           0        8.457782   -2.146590   -0.182438
    136          6           0        8.172426   -5.136969   -1.350002
    137          1           0        5.652491   -5.151697   -1.502692
    138          1           0        7.309511   -4.140583    0.431457
    139          1           0        8.090363   -6.143298   -0.933388
    140          1           0        7.830814   -5.135128   -2.382086
    141          1           0        9.180328   -4.745356   -1.165414
    142          7           0        7.574476   -2.191455   -2.188218
    143          6           0        8.153355   -0.912762   -2.571808
    144          6           0        7.459212    0.140973   -1.715999
    145          8           0        8.061662    1.179543   -1.430646
    146          6           0        7.811156   -0.605207   -4.017944
    147          1           0        6.925362   -2.527771   -2.881936
    148          1           0        9.231224   -0.849287   -2.432280
    149          1           0        8.443252    0.227823   -4.300283
    150          1           0        8.055750   -1.373239   -4.751770
    151          1           0        6.748448   -0.349162   -4.035090
    152          7           0        6.198138   -0.043188   -1.307740
    153          6           0        5.495670    0.843431   -0.401900
    154          6           0        5.998519    0.883280    1.034120
    155          8           0        6.131401    1.951113    1.628909
    156          6           0        3.997030    0.573329   -0.480135
    157          6           0        3.414880    0.383701   -1.873994
    158          6           0        1.896333    0.302719   -1.813531
    159          8           0        1.165971    0.436058   -0.816088
    160          8           0        1.296273    0.047873   -2.884550
    161          1           0        5.785405   -0.958389   -1.431268
    162          1           0        5.651715    1.812783   -0.893741
    163          1           0        3.582707    1.440795    0.033907
    164          1           0        3.737737   -0.308994    0.105333
    165          1           0        3.878995   -0.546426   -2.187301
    166          1           0        3.845875    1.174994   -2.493106
    167          7           0        6.363512   -0.285678    1.571540
    168          6           0        7.004857   -0.455827    2.858833
    169          1           0        7.923364   -1.029502    2.733438
    170          1           0        7.241509    0.521126    3.279454
    171          1           0        6.333878   -0.988327    3.532522
    172          1           0        6.161713   -1.074654    0.967310
    173         20           0       -1.119674    0.243978   -1.668103
    174          8           0       -0.432028   -2.427540   -2.204325
    175          1           0       -1.082165   -3.136123   -2.234857
    176          1           0        0.410182   -2.881356   -2.298837
 ---------------------------------------------------------------------

 SCF Done:  E(RB3LYP) =  -5333.56081630     A.U. after   18 cycles

 The electronic state is 1-A.
 Alpha  occ. eigenvalues -- -145.33758 -19.19003 -19.16111 -19.14530 -19.14047
 Alpha  occ. eigenvalues --  -19.12261 -19.11147 -19.10815 -19.10263 -19.09843
 Alpha  occ. eigenvalues --  -19.09664 -19.09089 -19.08136 -19.06505 -19.05634
 Alpha  occ. eigenvalues --  -19.05366 -19.05076 -19.04612 -19.03727 -19.03653
 Alpha  occ. eigenvalues --  -19.03508 -19.03170 -19.02737 -19.01973 -15.39508
 Alpha  occ. eigenvalues --  -14.57973 -14.41508 -14.38731 -14.36849 -14.36695
 Alpha  occ. eigenvalues --  -14.36394 -14.36353 -14.35964 -14.35136 -14.33681
 Alpha  occ. eigenvalues --  -14.31817 -14.31596 -14.29519 -14.29327 -14.28729
 Alpha  occ. eigenvalues --  -12.53140 -12.53092 -12.53050 -10.35316 -10.34162
 Alpha  occ. eigenvalues --  -10.31199 -10.29508 -10.29182 -10.29143 -10.28768
 Alpha  occ. eigenvalues --  -10.28509 -10.28089 -10.27772 -10.27724 -10.27613
 Alpha  occ. eigenvalues --  -10.27026 -10.26792 -10.25640 -10.25257 -10.24805
 Alpha  occ. eigenvalues --  -10.24659 -10.24469 -10.24079 -10.23992 -10.23535
 Alpha  occ. eigenvalues --  -10.23472 -10.23355 -10.22733 -10.22666 -10.22502
 Alpha  occ. eigenvalues --  -10.22349 -10.22079 -10.21992 -10.21605 -10.21546
 Alpha  occ. eigenvalues --  -10.21388 -10.21378 -10.21358 -10.19928 -10.19773
 Alpha  occ. eigenvalues --  -10.19435 -10.19183 -10.18240 -10.18096 -10.17817
 Alpha  occ. eigenvalues --  -10.17816 -10.17808 -10.17725 -10.17565 -10.17265
 Alpha  occ. eigenvalues --  -10.17040 -10.17040 -10.17030 -10.16885 -10.16131
 Alpha  occ. eigenvalues --  -10.15422 -10.15302  -1.76382  -1.13494  -1.09251
 Alpha  occ. eigenvalues --   -1.07088  -1.06236  -1.04571  -1.04335  -1.04061
 Alpha  occ. eigenvalues --   -1.03853  -1.03682  -1.03121  -1.03072  -1.02767
 Alpha  occ. eigenvalues --   -1.02255  -1.02235  -1.00696  -1.00110  -0.99974
 Alpha  occ. eigenvalues --   -0.99900  -0.98970  -0.98742  -0.98255  -0.98076
 Alpha  occ. eigenvalues --   -0.97574  -0.96483  -0.95552  -0.95289  -0.93790
 Alpha  occ. eigenvalues --   -0.93358  -0.93270  -0.92601  -0.91985  -0.91535
 Alpha  occ. eigenvalues --   -0.89736  -0.89287  -0.89277  -0.89130  -0.88501
 Alpha  occ. eigenvalues --   -0.87912  -0.87585  -0.87392  -0.85918  -0.85191
 Alpha  occ. eigenvalues --   -0.83863  -0.83142  -0.82782  -0.82345  -0.80248
 Alpha  occ. eigenvalues --   -0.79411  -0.78491  -0.78144  -0.77462  -0.76640
 Alpha  occ. eigenvalues --   -0.75929  -0.75083  -0.74652  -0.74146  -0.73190
 Alpha  occ. eigenvalues --   -0.72599  -0.72559  -0.72219  -0.70962  -0.70622
 Alpha  occ. eigenvalues --   -0.70496  -0.69313  -0.68897  -0.68420  -0.68409
 Alpha  occ. eigenvalues --   -0.67428  -0.66682  -0.65712  -0.65666  -0.64846
 Alpha  occ. eigenvalues --   -0.63887  -0.63619  -0.63247  -0.63005  -0.62167
 Alpha  occ. eigenvalues --   -0.61760  -0.61134  -0.60378  -0.60316  -0.60102
 Alpha  occ. eigenvalues --   -0.59948  -0.59657  -0.59271  -0.59126  -0.58910
 Alpha  occ. eigenvalues --   -0.57973  -0.57581  -0.56794  -0.56418  -0.56334
 Alpha  occ. eigenvalues --   -0.56226  -0.55497  -0.55150  -0.55006  -0.54793
 Alpha  occ. eigenvalues --   -0.54559  -0.54264  -0.53968  -0.53780  -0.53576
 Alpha  occ. eigenvalues --   -0.53298  -0.52999  -0.52871  -0.52821  -0.52003
 Alpha  occ. eigenvalues --   -0.51954  -0.51700  -0.51412  -0.51291  -0.50640
 Alpha  occ. eigenvalues --   -0.50451  -0.49718  -0.49420  -0.49167  -0.49044
 Alpha  occ. eigenvalues --   -0.48804  -0.48421  -0.48114  -0.48032  -0.47779
 Alpha  occ. eigenvalues --   -0.47556  -0.47358  -0.47238  -0.47146  -0.47056
 Alpha  occ. eigenvalues --   -0.46936  -0.46326  -0.46111  -0.45964  -0.45746
 Alpha  occ. eigenvalues --   -0.45653  -0.45429  -0.45253  -0.44972  -0.44805
 Alpha  occ. eigenvalues --   -0.44703  -0.44641  -0.44273  -0.44057  -0.43816
 Alpha  occ. eigenvalues --   -0.43721  -0.43366  -0.43083  -0.42953  -0.42848
 Alpha  occ. eigenvalues --   -0.42653  -0.42640  -0.42452  -0.42391  -0.42284
 Alpha  occ. eigenvalues --   -0.41977  -0.41518  -0.41471  -0.41381  -0.41296
 Alpha  occ. eigenvalues --   -0.41290  -0.41166  -0.41021  -0.40965  -0.40824
 Alpha  occ. eigenvalues --   -0.40777  -0.40749  -0.40546  -0.40413  -0.40341
 Alpha  occ. eigenvalues --   -0.40253  -0.39968  -0.39715  -0.39408  -0.39366
 Alpha  occ. eigenvalues --   -0.39321  -0.39184  -0.39042  -0.38865  -0.38771
 Alpha  occ. eigenvalues --   -0.38636  -0.38360  -0.38289  -0.38085  -0.37937
 Alpha  occ. eigenvalues --   -0.37927  -0.37897  -0.37778  -0.37684  -0.37623
 Alpha  occ. eigenvalues --   -0.37467  -0.37273  -0.37036  -0.36996  -0.36838
 Alpha  occ. eigenvalues --   -0.36501  -0.36403  -0.36093  -0.36075  -0.35504
 Alpha  occ. eigenvalues --   -0.35141  -0.34822  -0.34762  -0.34404  -0.34272
 Alpha  occ. eigenvalues --   -0.34221  -0.34092  -0.33966  -0.33618  -0.33554
 Alpha  occ. eigenvalues --   -0.33321  -0.33301  -0.33252  -0.32951  -0.32895
 Alpha  occ. eigenvalues --   -0.32781  -0.32477  -0.32373  -0.32262  -0.32216
 Alpha  occ. eigenvalues --   -0.31940  -0.31613  -0.31459  -0.31203  -0.30930
 Alpha  occ. eigenvalues --   -0.30150  -0.29869  -0.29281  -0.28146  -0.28054
 Alpha  occ. eigenvalues --   -0.27922  -0.27680  -0.27341  -0.27203  -0.26749
 Alpha  occ. eigenvalues --   -0.25848  -0.25691  -0.25446  -0.24888  -0.24431
 Alpha  occ. eigenvalues --   -0.24218  -0.24174  -0.24070  -0.23918  -0.23453
 Alpha  occ. eigenvalues --   -0.23167  -0.23010  -0.22635  -0.22568  -0.22242
 Alpha  occ. eigenvalues --   -0.22017  -0.21912  -0.21031  -0.20799  -0.20683
 Alpha  occ. eigenvalues --   -0.20343  -0.20103  -0.19453  -0.19034  -0.18873
 Alpha  occ. eigenvalues --   -0.18569  -0.18092  -0.17724
 Alpha virt. eigenvalues --   -0.09919  -0.05203  -0.04430  -0.03423  -0.01720
 Alpha virt. eigenvalues --   -0.01256  -0.01230  -0.00463  -0.00291   0.00120
 Alpha virt. eigenvalues --    0.00525   0.00678   0.01370   0.01502   0.01755

 Mulliken charges:
               1
     1  C    0.085237
     2  C    0.008527
     3  O   -0.284674
     4  H   -0.004499
     5  H    0.054161
     6  H   -0.022970
     7  N   -0.100771
     8  C    0.036317
     9  C    0.062486
    10  O   -0.246557
    11  C    0.156717
    12  C    0.127625
    13  O   -0.456226
    14  O   -0.387490
    15  H    0.123709
    16  H    0.025196
    17  H   -0.017093
    18  H    0.028613
    19  N   -0.161844
    20  C    0.196609
    21  C    0.045477
    22  O   -0.283113
    23  C   -0.044453
    24  C    0.038186
    25  C   -0.056237
    26  C    0.049885
    27  N    0.079878
    28  H    0.147102
    29  H    0.004250
    30  H    0.028545
    31  H    0.009564
    32  H   -0.016534
    33  H    0.003744
    34  H    0.051803
    35  H    0.043931
    36  H    0.077020
    37  H    0.063161
    38  H    0.185404
    39  H    0.211825
    40  H    0.200850
    41  N   -0.136510
    42  C    0.068585
    43  C    0.092888
    44  O   -0.281329
    45  C    0.167632
    46  C    0.081781
    47  O   -0.411904
    48  O   -0.437326
    49  H    0.113646
    50  H    0.013499
    51  H   -0.010609
    52  H    0.014964
    53  N   -0.168744
    54  C    0.200587
    55  C    0.037880
    56  O   -0.284501
    57  H    0.145761
    58  H    0.021688
    59  H    0.044647
    60  N   -0.165233
    61  C    0.115517
    62  C    0.039893
    63  O   -0.304830
    64  C    0.127799
    65  C    0.004361
    66  N   -0.022900
    67  O   -0.328869
    68  H    0.160639
    69  H    0.028469
    70  H    0.071545
    71  H   -0.015964
    72  H    0.147208
    73  H    0.126088
    74  N   -0.195434
    75  C    0.225985
    76  C    0.060007
    77  O   -0.283932
    78  H    0.156192
    79  H    0.038965
    80  H    0.044637
    81  N   -0.174680
    82  C    0.108062
    83  C    0.129457
    84  O   -0.314608
    85  C    0.188290
    86  C   -0.037430
    87  C    0.033782
    88  C   -0.003889
    89  C   -0.031827
    90  C   -0.064666
    91  C    0.205075
    92  O   -0.212159
    93  H    0.151322
    94  H   -0.010998
    95  H   -0.003285
    96  H   -0.067598
    97  H   -0.040064
    98  H   -0.067082
    99  H   -0.030841
   100  H   -0.030064
   101  H    0.178844
   102  N   -0.117281
   103  C    0.090030
   104  C    0.063026
   105  O   -0.288329
   106  C   -0.038151
   107  C    0.034831
   108  C    0.023285
   109  C    0.010702
   110  H    0.130137
   111  H    0.033486
   112  H   -0.024731
   113  H    0.010897
   114  H    0.007384
   115  H   -0.005556
   116  H    0.007767
   117  H    0.059372
   118  H    0.013664
   119  H    0.001542
   120  H   -0.005470
   121  N   -0.144131
   122  C    0.097956
   123  C    0.085792
   124  O   -0.282247
   125  C    0.229700
   126  O   -0.297400
   127  H    0.144600
   128  H    0.035271
   129  H   -0.014165
   130  H    0.021878
   131  H    0.182210
   132  N   -0.106373
   133  C    0.104143
   134  C    0.021405
   135  O   -0.255065
   136  C    0.049443
   137  H    0.117550
   138  H    0.019165
   139  H    0.039061
   140  H    0.010646
   141  H    0.060451
   142  N   -0.134073
   143  C    0.082288
   144  C    0.062968
   145  O   -0.279009
   146  C    0.053451
   147  H    0.102950
   148  H    0.022527
   149  H    0.037030
   150  H    0.017974
   151  H    0.018590
   152  N   -0.171351
   153  C    0.131168
   154  C    0.094706
   155  O   -0.319448
   156  C   -0.046468
   157  C    0.096902
   158  C    0.157357
   159  O   -0.442287
   160  O   -0.424611
   161  H    0.121285
   162  H   -0.027527
   163  H    0.027309
   164  H   -0.004646
   165  H   -0.053176
   166  H    0.008162
   167  N   -0.166072
   168  C    0.137556
   169  H    0.027940
   170  H    0.023955
   171  H    0.010402
   172  H    0.132959
   173  Ca   1.287613
   174  O   -0.290085
   175  H    0.151644
   176  H    0.153742
 Sum of Mulliken charges =  -0.00000

 Dipole moment (field-independent basis, Debye):
    X=             36.8382    Y=              0.5031    Z=             -0.5421  Tot=             36.8456
 Quadrupole moment (field-independent basis, Debye-Ang):
   XX=           -631.7495   YY=           -417.2284   ZZ=           -521.8690
   XY=            113.1288   XZ=             28.8269   YZ=            118.7034

 ESP charges:
               1
     1  C   -0.380813
     2  C    0.741073
     3  O   -0.597837
     4  H    0.080900
     5  H    0.128679
     6  H    0.071603
     7  N   -0.819063
     8  C    0.437275
     9  C    0.509037
    10  O   -0.487990
    11  C   -0.428507
    12  C    0.534237
    13  O   -0.666145
    14  O   -0.557252
    15  H    0.387464
    16  H    0.007780
    17  H    0.115905
    18  H    0.142334
    19  N   -0.467172
    20  C   -0.170172
    21  C    0.537919
    22  O   -0.555304
    23  C   -0.062370
    24  C    0.252289
    25  C   -0.150159
    26  C    0.053507
    27  N   -0.416974
    28  H    0.336779
    29  H    0.158503
    30  H    0.061927
    31  H    0.031083
    32  H   -0.095679
    33  H   -0.027663
    34  H    0.051317
    35  H    0.078521
    36  H    0.086710
    37  H    0.072112
    38  H    0.337003
    39  H    0.356132
    40  H    0.377596
    41  N   -0.380342
    42  C    0.144398
    43  C    0.341131
    44  O   -0.537189
    45  C   -0.374293
    46  C    0.812198
    47  O   -0.764923
    48  O   -0.769429
    49  H    0.230451
    50  H    0.092034
    51  H    0.097387
    52  H    0.124285
    53  N    0.200975
    54  C   -0.446618
    55  C    0.737337
    56  O   -0.588760
    57  H   -0.009988
    58  H    0.141043
    59  H    0.189526
    60  N   -0.457966
    61  C    0.071666
    62  C    0.271362
    63  O   -0.551428
    64  C   -0.174545
    65  C    0.612864
    66  N   -0.835991
    67  O   -0.501146
    68  H    0.187983
    69  H    0.112322
    70  H    0.126048
    71  H    0.037728
    72  H    0.405797
    73  H    0.382815
    74  N    0.267889
    75  C   -0.596257
    76  C    0.773195
    77  O   -0.582148
    78  H   -0.015524
    79  H    0.201575
    80  H    0.177277
    81  N   -0.602465
    82  C    0.264809
    83  C    0.524128
    84  O   -0.537150
    85  C   -0.273540
    86  C    0.088349
    87  C   -0.175368
    88  C   -0.126822
    89  C   -0.251934
    90  C   -0.389395
    91  C    0.460070
    92  O   -0.593380
    93  H    0.494327
    94  H    0.021043
    95  H    0.087708
    96  H    0.027328
    97  H    0.141477
    98  H    0.128107
    99  H    0.149448
   100  H    0.160227
   101  H    0.426104
   102  N   -0.490869
   103  C   -0.375425
   104  C    0.543690
   105  O   -0.553326
   106  C    0.540166
   107  C   -0.052855
   108  C   -0.665802
   109  C   -0.332235
   110  H    0.319408
   111  H    0.180891
   112  H   -0.030591
   113  H    0.053101
   114  H    0.110604
   115  H    0.149169
   116  H    0.133416
   117  H    0.138066
   118  H    0.091096
   119  H    0.066639
   120  H    0.065801
   121  N   -0.077070
   122  C   -0.155724
   123  C    0.409241
   124  O   -0.310622
   125  C    0.302230
   126  O   -0.623397
   127  H    0.177986
   128  H    0.116292
   129  H   -0.016646
   130  H   -0.017622
   131  H    0.413481
   132  N   -0.483472
   133  C    0.214411
   134  C    0.542409
   135  O   -0.537216
   136  C   -0.457652
   137  H    0.317944
   138  H    0.053197
   139  H    0.144188
   140  H    0.112188
   141  H    0.159866
   142  N   -0.523408
   143  C    0.191297
   144  C    0.308365
   145  O   -0.509095
   146  C   -0.251607
   147  H    0.270095
   148  H    0.087846
   149  H    0.097000
   150  H    0.078613
   151  H    0.050034
   152  N    0.064748
   153  C   -0.529216
   154  C    0.646521
   155  O   -0.626387
   156  C    0.367384
   157  C   -0.508221
   158  C    0.945455
   159  O   -0.806013
   160  O   -0.764046
   161  H    0.102151
   162  H    0.158491
   163  H    0.029710
   164  H   -0.144935
   165  H    0.085322
   166  H    0.119903
   167  N   -0.099151
   168  C   -0.197137
   169  H    0.085852
   170  H    0.103020
   171  H    0.059023
   172  H    0.132093
   173  Ca   1.612518
   174  O   -0.893821
   175  H    0.380250
   176  H    0.461992
 Sum of ESP charges =  -0.00000

 Normal termination of Gaussian 16 at Sat Sep 14 23:27:45 2019.
