 Gaussian 09, Revision D.01,
 Gaussian 09:  ES64L-G09RevD.01 24-Apr-2013

 ----------------------------------------------------------------------
 #maxdisk=50GB #B3LYP/SVP Density=Current scf=(tight) #IOP(5/87=12)Pop=
 (MK,readradii) iop(6/33=2) iop(6/42=6)
 ----------------------------------------------------------------------

 ------------
 SOL molecule
 ------------
 Symbolic Z-matrix:
 Charge =  0 Multiplicity = 1

                         Standard orientation:
 ---------------------------------------------------------------------
 Center     Atomic      Atomic             Coordinates (Angstroms)
 Number     Number       Type             X           Y           Z
 ---------------------------------------------------------------------
      1          6           0        2.653509    1.989152    5.299598
      2          6           0        1.978442    2.065061    3.937679
      3          8           0        2.689878    2.137770    2.942504
      4          1           0        1.913412    2.157294    6.081655
      5          1           0        3.100935    1.003315    5.429439
      6          1           0        3.429429    2.752709    5.364355
      7          7           0        0.639941    2.078019    3.919074
      8          6           0       -0.086744    2.286947    2.686931
      9          6           0       -0.038805    3.747389    2.249312
     10          8           0       -0.086746    4.639303    3.105287
     11          6           0       -1.468326    1.685898    2.889098
     12          6           0       -2.373402    1.755198    1.665932
     13          8           0       -3.618622    1.798045    1.804824
     14          8           0       -1.856406    1.828352    0.534400
     15          1           0        0.186753    2.158760    4.813446
     16          1           0        0.418271    1.668222    1.951581
     17          1           0       -1.827154    2.195230    3.780851
     18          1           0       -1.285745    0.623007    3.074103
     19          7           0        0.221869    3.885300    0.952536
     20          6           0        0.530379    5.170980    0.356928
     21          6           0       -0.703462    5.777193   -0.295943
     22          8           0       -0.651365    6.982722   -0.527644
     23          6           0        1.733372    5.149167   -0.572391
     24          6           0        3.087280    4.999697    0.113168
     25          6           0        4.344487    4.988565   -0.742349
     26          6           0        4.784913    6.329277   -1.324942
     27          7           0        6.025931    6.240427   -2.118025
     28          1           0        0.241438    3.036950    0.399707
     29          1           0        0.755408    5.770081    1.236325
     30          1           0        1.729121    6.098640   -1.094197
     31          1           0        1.589101    4.432343   -1.388388
     32          1           0        3.046083    4.099743    0.724875
     33          1           0        3.141643    5.852859    0.795267
     34          1           0        4.357653    4.268353   -1.556978
     35          1           0        5.097701    4.686708   -0.016229
     36          1           0        5.022375    6.918685   -0.438370
     37          1           0        3.955480    6.847256   -1.808200
     38          1           0        6.203783    7.128421   -2.550617
     39          1           0        6.789271    5.777089   -1.641548
     40          1           0        5.820418    5.596752   -2.868456
     41          7           0       -1.676435    4.905022   -0.568782
     42          6           0       -2.761233    5.188666   -1.483637
     43          6           0       -4.167147    4.938537   -0.974283
     44          8           0       -5.102787    5.633737   -1.368585
     45          6           0       -2.491069    4.508493   -2.828879
     46          6           0       -2.142555    3.030501   -2.739566
     47          8           0       -0.981663    2.672410   -3.018851
     48          8           0       -2.940542    2.239868   -2.188007
     49          1           0       -1.459172    3.945256   -0.318490
     50          1           0       -2.701597    6.281575   -1.546046
     51          1           0       -1.715631    5.014233   -3.391748
     52          1           0       -3.399141    4.573178   -3.425890
     53          7           0       -4.287495    4.058609    0.024638
     54          6           0       -5.551604    3.987100    0.738653
     55          6           0       -6.465082    2.921686    0.157402
     56          8           0       -7.673467    3.037129    0.330543
     57          1           0       -3.515631    3.519948    0.356707
     58          1           0       -6.110802    4.919137    0.736778
     59          1           0       -5.378547    3.646333    1.762434
     60          7           0       -5.878777    1.880543   -0.453227
     61          6           0       -6.579939    0.759451   -1.045531
     62          6           0       -6.723492   -0.366334   -0.031924
     63          8           0       -7.403479   -1.365113   -0.272673
     64          6           0       -6.053303    0.412474   -2.426857
     65          6           0       -4.800379   -0.448874   -2.555934
     66          7           0       -4.673117   -1.226367   -3.631717
     67          8           0       -3.956673   -0.495050   -1.669070
     68          1           0       -4.875149    1.864385   -0.499811
     69          1           0       -7.626433    1.004303   -1.201091
     70          1           0       -6.049972    1.333749   -3.013834
     71          1           0       -6.849435   -0.173424   -2.898128
     72          1           0       -5.402426   -1.281033   -4.337352
     73          1           0       -3.855949   -1.816702   -3.670967
     74          7           0       -6.059414   -0.268895    1.123284
     75          6           0       -6.186608   -1.182517    2.241861
     76          6           0       -5.214661   -2.364686    2.221988
     77          8           0       -5.280955   -3.188218    3.133745
     78          1           0       -5.522946    0.551923    1.358361
     79          1           0       -7.240363   -1.433029    2.279851
     80          1           0       -5.947649   -0.584603    3.123393
     81          7           0       -4.247265   -2.349722    1.304589
     82          6           0       -3.158400   -3.274476    1.039629
     83          6           0       -1.754307   -2.700990    0.956347
     84          8           0       -1.613600   -1.818095    0.107349
     85          6           0       -3.471339   -3.950085   -0.292558
     86          6           0       -4.851927   -4.537771   -0.464316
     87          6           0       -5.042707   -5.854884   -0.045489
     88          6           0       -5.887004   -3.836832   -1.096693
     89          6           0       -6.245189   -6.522886   -0.299875
     90          6           0       -7.079479   -4.523781   -1.380077
     91          6           0       -7.262958   -5.884940   -1.033407
     92          8           0       -8.403076   -6.562702   -1.325416
     93          1           0       -4.324801   -1.624258    0.621077
     94          1           0       -3.235693   -4.104821    1.738237
     95          1           0       -2.662202   -4.662514   -0.441026
     96          1           0       -3.313454   -3.167811   -1.028505
     97          1           0       -4.226821   -6.450494    0.342426
     98          1           0       -5.730197   -2.817029   -1.412309
     99          1           0       -6.444705   -7.563810   -0.092100
    100          1           0       -7.865721   -3.930128   -1.822005
    101          1           0       -8.979796   -6.003035   -1.841813
    102          7           0       -0.761023   -3.170334    1.709211
    103          6           0        0.612126   -2.768789    1.544820
    104          6           0        1.450056   -3.723275    0.698872
    105          8           0        1.343745   -4.939485    0.856770
    106          6           0        1.325350   -2.670010    2.895433
    107          6           0        0.404706   -2.152399    3.991377
    108          6           0        2.671749   -1.950734    2.941831
    109          6           0        0.891362   -2.733251    5.318170
    110          1           0       -0.952812   -4.033205    2.199894
    111          1           0        0.684433   -1.766545    1.114961
    112          1           0        1.545782   -3.706351    3.176159
    113          1           0       -0.663426   -2.347920    3.919507
    114          1           0        0.568567   -1.071736    4.038455
    115          1           0        3.348511   -2.424819    2.243663
    116          1           0        2.532454   -0.882899    2.758187
    117          1           0        3.271252   -2.066051    3.837877
    118          1           0        0.747219   -3.819784    5.326561
    119          1           0        1.954407   -2.703299    5.565429
    120          1           0        0.307521   -2.222266    6.086365
    121          7           0        2.290333   -3.157556   -0.160137
    122          6           0        3.122513   -3.794906   -1.166994
    123          6           0        4.610753   -3.640518   -0.861207
    124          8           0        4.977918   -2.786464   -0.064853
    125          6           0        2.802559   -3.150561   -2.515679
    126          8           0        3.234202   -1.809782   -2.525452
    127          1           0        2.425291   -2.160764   -0.064786
    128          1           0        3.009512   -4.874889   -1.217657
    129          1           0        1.734821   -3.244736   -2.674318
    130          1           0        3.292235   -3.823398   -3.227864
    131          1           0        2.489715   -1.315650   -2.170667
    132          7           0        5.467320   -4.567443   -1.298019
    133          6           0        6.860739   -4.535872   -0.910224
    134          6           0        7.546897   -3.200858   -1.131869
    135          8           0        8.272823   -2.856353   -0.196055
    136          6           0        7.560817   -5.734564   -1.554529
    137          1           0        5.199557   -5.115859   -2.104581
    138          1           0        6.871783   -4.647876    0.173719
    139          1           0        8.537806   -5.971325   -1.128223
    140          1           0        6.913791   -6.605622   -1.470776
    141          1           0        7.829121   -5.551970   -2.595093
    142          7           0        7.340222   -2.516645   -2.260602
    143          6           0        7.834726   -1.178945   -2.494962
    144          6           0        7.327924   -0.128507   -1.507779
    145          8           0        7.998271    0.858272   -1.210789
    146          6           0        7.677354   -0.755604   -3.950062
    147          1           0        6.583578   -2.849698   -2.848960
    148          1           0        8.894967   -1.307462   -2.317557
    149          1           0        8.121616    0.229927   -4.099260
    150          1           0        8.040453   -1.434350   -4.729653
    151          1           0        6.627688   -0.638275   -4.202720
    152          7           0        6.168719   -0.323101   -0.890951
    153          6           0        5.559057    0.506362    0.129247
    154          6           0        6.124446    0.308076    1.529825
    155          8           0        6.545499    1.288180    2.138275
    156          6           0        4.042901    0.317798    0.174105
    157          6           0        3.297156    1.129789   -0.879287
    158          6           0        1.819624    0.786206   -0.985349
    159          8           0        0.942146    1.654534   -0.772656
    160          8           0        1.431782   -0.386720   -1.214964
    161          1           0        5.755360   -1.233508   -1.042254
    162          1           0        5.763714    1.557704   -0.059421
    163          1           0        3.690517    0.783413    1.093197
    164          1           0        3.717088   -0.713188    0.321459
    165          1           0        3.783534    0.915634   -1.830220
    166          1           0        3.373796    2.215664   -0.869161
    167          7           0        6.344082   -0.907020    2.044315
    168          6           0        7.066931   -1.180501    3.265584
    169          1           0        8.009653   -0.634110    3.259428
    170          1           0        6.469770   -0.863935    4.120344
    171          1           0        7.267629   -2.249701    3.338197
    172          1           0        6.123563   -1.744111    1.518529
    173         20           0       -1.302623    0.400728   -1.531590
    174          8           0       -1.533861   -1.927820   -2.910863
    175          1           0       -1.285543   -2.834244   -2.739881
    176          1           0       -1.818025   -1.920957   -3.816900
 ---------------------------------------------------------------------

 SCF Done:  E(RB3LYP) =  -5333.61629874     A.U. after   15 cycles

 The electronic state is 1-A.
 Alpha  occ. eigenvalues -- -145.37635 -19.21051 -19.15404 -19.14244 -19.13614
 Alpha  occ. eigenvalues --  -19.12563 -19.12050 -19.11362 -19.10490 -19.09788
 Alpha  occ. eigenvalues --  -19.08890 -19.08307 -19.07924 -19.07210 -19.06761
 Alpha  occ. eigenvalues --  -19.06609 -19.06595 -19.06439 -19.05498 -19.04824
 Alpha  occ. eigenvalues --  -19.04810 -19.04696 -19.04668 -19.03997 -15.43364
 Alpha  occ. eigenvalues --  -14.58128 -14.40040 -14.38469 -14.38240 -14.38037
 Alpha  occ. eigenvalues --  -14.36685 -14.34580 -14.33877 -14.33448 -14.32817
 Alpha  occ. eigenvalues --  -14.32459 -14.32026 -14.31706 -14.30899 -14.30014
 Alpha  occ. eigenvalues --  -12.56984 -12.56945 -12.56924 -10.33585 -10.32263
 Alpha  occ. eigenvalues --  -10.31045 -10.30846 -10.30310 -10.29220 -10.28047
 Alpha  occ. eigenvalues --  -10.27997 -10.26666 -10.26325 -10.26131 -10.26001
 Alpha  occ. eigenvalues --  -10.25872 -10.25859 -10.25842 -10.25555 -10.25200
 Alpha  occ. eigenvalues --  -10.25014 -10.24983 -10.24522 -10.23947 -10.23794
 Alpha  occ. eigenvalues --  -10.23725 -10.23388 -10.23366 -10.23272 -10.22359
 Alpha  occ. eigenvalues --  -10.22330 -10.21640 -10.21439 -10.21244 -10.20433
 Alpha  occ. eigenvalues --  -10.20290 -10.20270 -10.20252 -10.20000 -10.19413
 Alpha  occ. eigenvalues --  -10.19300 -10.18878 -10.18681 -10.18516 -10.18213
 Alpha  occ. eigenvalues --  -10.17917 -10.17800 -10.17792 -10.17750 -10.17745
 Alpha  occ. eigenvalues --  -10.17723 -10.17449 -10.17284 -10.17284 -10.17277
 Alpha  occ. eigenvalues --  -10.16489 -10.15009  -1.80137  -1.13306  -1.08046
 Alpha  occ. eigenvalues --   -1.08002  -1.07646  -1.07520  -1.06841  -1.05359
 Alpha  occ. eigenvalues --   -1.05075  -1.04367  -1.04283  -1.04076  -1.03393
 Alpha  occ. eigenvalues --   -1.02319  -1.02230  -1.01033  -1.00446  -0.99993
 Alpha  occ. eigenvalues --   -0.99888  -0.99744  -0.99483  -0.99308  -0.98611
 Alpha  occ. eigenvalues --   -0.97980  -0.97188  -0.96831  -0.95076  -0.94776
 Alpha  occ. eigenvalues --   -0.93476  -0.93106  -0.92527  -0.91258  -0.90869
 Alpha  occ. eigenvalues --   -0.90777  -0.90505  -0.89641  -0.89363  -0.89207
 Alpha  occ. eigenvalues --   -0.88680  -0.88635  -0.88010  -0.87217  -0.86293
 Alpha  occ. eigenvalues --   -0.83486  -0.82655  -0.81722  -0.79760  -0.79663
 Alpha  occ. eigenvalues --   -0.78670  -0.78371  -0.77892  -0.77377  -0.76724
 Alpha  occ. eigenvalues --   -0.75244  -0.74638  -0.74344  -0.72950  -0.72566
 Alpha  occ. eigenvalues --   -0.72507  -0.72466  -0.71226  -0.70966  -0.70819
 Alpha  occ. eigenvalues --   -0.70276  -0.69766  -0.68668  -0.68389  -0.67534
 Alpha  occ. eigenvalues --   -0.67307  -0.66479  -0.66022  -0.64848  -0.64338
 Alpha  occ. eigenvalues --   -0.63422  -0.62667  -0.62557  -0.62421  -0.61625
 Alpha  occ. eigenvalues --   -0.61487  -0.61173  -0.60996  -0.60663  -0.60426
 Alpha  occ. eigenvalues --   -0.60184  -0.59977  -0.58962  -0.58850  -0.58009
 Alpha  occ. eigenvalues --   -0.57931  -0.57715  -0.57248  -0.56732  -0.56457
 Alpha  occ. eigenvalues --   -0.56236  -0.56214  -0.56132  -0.55789  -0.55427
 Alpha  occ. eigenvalues --   -0.54982  -0.54358  -0.54301  -0.54172  -0.53621
 Alpha  occ. eigenvalues --   -0.53382  -0.53110  -0.53023  -0.52035  -0.51746
 Alpha  occ. eigenvalues --   -0.51094  -0.50761  -0.50591  -0.49991  -0.49707
 Alpha  occ. eigenvalues --   -0.49431  -0.49144  -0.48989  -0.48890  -0.48465
 Alpha  occ. eigenvalues --   -0.48183  -0.48067  -0.48024  -0.47640  -0.47477
 Alpha  occ. eigenvalues --   -0.47294  -0.47162  -0.46999  -0.46720  -0.46361
 Alpha  occ. eigenvalues --   -0.46153  -0.45910  -0.45762  -0.45604  -0.45335
 Alpha  occ. eigenvalues --   -0.45250  -0.45173  -0.44942  -0.44826  -0.44637
 Alpha  occ. eigenvalues --   -0.44567  -0.44366  -0.44315  -0.44100  -0.43774
 Alpha  occ. eigenvalues --   -0.43642  -0.43633  -0.43595  -0.43344  -0.43100
 Alpha  occ. eigenvalues --   -0.42966  -0.42735  -0.42565  -0.42389  -0.42252
 Alpha  occ. eigenvalues --   -0.42118  -0.42027  -0.41949  -0.41802  -0.41472
 Alpha  occ. eigenvalues --   -0.41454  -0.41290  -0.41187  -0.41141  -0.40784
 Alpha  occ. eigenvalues --   -0.40709  -0.40501  -0.40386  -0.40302  -0.40252
 Alpha  occ. eigenvalues --   -0.40143  -0.40008  -0.39952  -0.39678  -0.39612
 Alpha  occ. eigenvalues --   -0.39418  -0.39313  -0.39165  -0.39084  -0.38943
 Alpha  occ. eigenvalues --   -0.38861  -0.38761  -0.38614  -0.38495  -0.38483
 Alpha  occ. eigenvalues --   -0.38375  -0.38199  -0.38171  -0.37934  -0.37633
 Alpha  occ. eigenvalues --   -0.37438  -0.37323  -0.37062  -0.37020  -0.36452
 Alpha  occ. eigenvalues --   -0.36356  -0.36263  -0.35956  -0.35780  -0.35762
 Alpha  occ. eigenvalues --   -0.35658  -0.35483  -0.35280  -0.35115  -0.35026
 Alpha  occ. eigenvalues --   -0.34783  -0.34541  -0.34305  -0.34170  -0.34082
 Alpha  occ. eigenvalues --   -0.33754  -0.33626  -0.33460  -0.32859  -0.32701
 Alpha  occ. eigenvalues --   -0.32657  -0.32333  -0.32181  -0.32121  -0.32011
 Alpha  occ. eigenvalues --   -0.31873  -0.31717  -0.31424  -0.31375  -0.30377
 Alpha  occ. eigenvalues --   -0.30150  -0.29724  -0.29579  -0.29171  -0.28482
 Alpha  occ. eigenvalues --   -0.27834  -0.27538  -0.27063  -0.26702  -0.26565
 Alpha  occ. eigenvalues --   -0.26287  -0.25949  -0.25780  -0.25486  -0.25092
 Alpha  occ. eigenvalues --   -0.24923  -0.24600  -0.24342  -0.24170  -0.24108
 Alpha  occ. eigenvalues --   -0.23914  -0.23605  -0.23512  -0.23237  -0.23108
 Alpha  occ. eigenvalues --   -0.22947  -0.22663  -0.22234  -0.21959  -0.21765
 Alpha  occ. eigenvalues --   -0.21557  -0.21169  -0.21061  -0.21049  -0.20575
 Alpha  occ. eigenvalues --   -0.19942  -0.19609  -0.19066
 Alpha virt. eigenvalues --   -0.09750  -0.03959  -0.03700  -0.03340  -0.02748
 Alpha virt. eigenvalues --   -0.01118  -0.00553  -0.00313  -0.00276   0.00006
 Alpha virt. eigenvalues --    0.00078   0.01184   0.01399   0.01632   0.02491

 Mulliken charges:
               1
     1  C    0.073149
     2  C    0.028458
     3  O   -0.291549
     4  H   -0.011119
     5  H    0.033047
     6  H    0.041960
     7  N   -0.127552
     8  C    0.104305
     9  C    0.088527
    10  O   -0.293109
    11  C    0.069393
    12  C    0.141660
    13  O   -0.378314
    14  O   -0.471958
    15  H    0.119079
    16  H   -0.008633
    17  H    0.004038
    18  H    0.012833
    19  N   -0.191112
    20  C    0.126117
    21  C    0.075325
    22  O   -0.296259
    23  C    0.055153
    24  C    0.010184
    25  C   -0.023585
    26  C   -0.005743
    27  N    0.093001
    28  H    0.182276
    29  H    0.002825
    30  H   -0.027933
    31  H    0.014799
    32  H    0.064058
    33  H   -0.000636
    34  H    0.014484
    35  H    0.048550
    36  H    0.064004
    37  H    0.094404
    38  H    0.196423
    39  H    0.203767
    40  H    0.182085
    41  N   -0.168238
    42  C    0.095565
    43  C    0.088343
    44  O   -0.289524
    45  C    0.178078
    46  C    0.044691
    47  O   -0.405783
    48  O   -0.436267
    49  H    0.173826
    50  H    0.019125
    51  H   -0.022262
    52  H   -0.001946
    53  N   -0.168540
    54  C    0.254945
    55  C   -0.004298
    56  O   -0.285764
    57  H    0.132092
    58  H    0.024836
    59  H    0.028591
    60  N   -0.168851
    61  C    0.170904
    62  C    0.035645
    63  O   -0.294351
    64  C    0.067021
    65  C    0.097730
    66  N   -0.052485
    67  O   -0.318410
    68  H    0.144868
    69  H    0.023031
    70  H    0.060169
    71  H    0.000687
    72  H    0.132789
    73  H    0.092269
    74  N   -0.175434
    75  C    0.199103
    76  C    0.047135
    77  O   -0.291706
    78  H    0.146007
    79  H    0.038793
    80  H    0.038064
    81  N   -0.128459
    82  C    0.161079
    83  C    0.130946
    84  O   -0.354382
    85  C    0.067495
    86  C    0.015004
    87  C    0.007979
    88  C    0.028936
    89  C   -0.020151
    90  C   -0.051395
    91  C    0.158025
    92  O   -0.183767
    93  H    0.133142
    94  H   -0.018780
    95  H   -0.025507
    96  H   -0.016355
    97  H   -0.034543
    98  H   -0.058859
    99  H   -0.030314
   100  H   -0.039928
   101  H    0.170518
   102  N   -0.082665
   103  C    0.146024
   104  C    0.047681
   105  O   -0.287426
   106  C   -0.133811
   107  C    0.046754
   108  C    0.034131
   109  C    0.006891
   110  H    0.139914
   111  H    0.011928
   112  H   -0.018454
   113  H    0.010629
   114  H   -0.003380
   115  H    0.003573
   116  H    0.043648
   117  H    0.003868
   118  H   -0.001510
   119  H    0.001199
   120  H    0.012485
   121  N   -0.120013
   122  C    0.074697
   123  C    0.088857
   124  O   -0.293733
   125  C    0.291801
   126  O   -0.338174
   127  H    0.154028
   128  H    0.009748
   129  H   -0.013627
   130  H   -0.032430
   131  H    0.172393
   132  N   -0.122303
   133  C    0.105765
   134  C    0.043820
   135  O   -0.261594
   136  C    0.038182
   137  H    0.118828
   138  H    0.023702
   139  H    0.041164
   140  H    0.029026
   141  H    0.007337
   142  N   -0.146977
   143  C    0.128921
   144  C    0.043785
   145  O   -0.294405
   146  C    0.035059
   147  H    0.111359
   148  H    0.023333
   149  H    0.026415
   150  H    0.021264
   151  H    0.005393
   152  N   -0.113259
   153  C    0.186340
   154  C    0.049074
   155  O   -0.284289
   156  C   -0.039842
   157  C    0.113998
   158  C    0.150780
   159  O   -0.378175
   160  O   -0.452339
   161  H    0.124645
   162  H   -0.036832
   163  H    0.051572
   164  H   -0.001750
   165  H   -0.019735
   166  H   -0.023488
   167  N   -0.168250
   168  C    0.142537
   169  H    0.026868
   170  H    0.016390
   171  H    0.007970
   172  H    0.129877
   173  Ca   1.281801
   174  O   -0.257989
   175  H    0.191634
   176  H    0.171830
 Sum of Mulliken charges =   0.00000

 Dipole moment (field-independent basis, Debye):
    X=             28.3785    Y=             -2.5772    Z=            -19.7214  Tot=             34.6542
 Quadrupole moment (field-independent basis, Debye-Ang):
   XX=           -588.6818   YY=           -509.2570   ZZ=           -497.7218
   XY=            132.1673   XZ=            -39.5254   YZ=             -6.2489

 ESP charges:
               1
     1  C   -0.428160
     2  C    0.868408
     3  O   -0.657883
     4  H    0.073301
     5  H    0.115419
     6  H    0.130319
     7  N   -0.815487
     8  C    0.549587
     9  C    0.426664
    10  O   -0.546764
    11  C   -0.499773
    12  C    0.894275
    13  O   -0.667536
    14  O   -0.880665
    15  H    0.373592
    16  H    0.014902
    17  H    0.113323
    18  H    0.087236
    19  N   -0.304711
    20  C   -0.190909
    21  C    0.706125
    22  O   -0.582034
    23  C    0.098051
    24  C   -0.176231
    25  C   -0.116362
    26  C    0.123618
    27  N   -0.442006
    28  H    0.137450
    29  H    0.110309
    30  H   -0.001919
    31  H    0.027460
    32  H    0.127200
    33  H    0.078029
    34  H    0.049814
    35  H    0.077470
    36  H    0.063632
    37  H    0.071243
    38  H    0.351749
    39  H    0.364738
    40  H    0.334332
    41  N   -0.675058
    42  C    0.154486
    43  C    0.483582
    44  O   -0.555577
    45  C   -0.289620
    46  C    0.778388
    47  O   -0.756406
    48  O   -0.781689
    49  H    0.546185
    50  H    0.070617
    51  H    0.080923
    52  H    0.067157
    53  N   -0.082571
    54  C   -0.321826
    55  C    0.641911
    56  O   -0.585686
    57  H    0.082068
    58  H    0.146661
    59  H    0.140995
    60  N   -0.356489
    61  C    0.060913
    62  C    0.240364
    63  O   -0.457802
    64  C   -0.290898
    65  C    0.652324
    66  N   -0.837303
    67  O   -0.413908
    68  H    0.178964
    69  H    0.119745
    70  H    0.150889
    71  H    0.079231
    72  H    0.382145
    73  H    0.379789
    74  N    0.089619
    75  C   -0.527962
    76  C    0.891650
    77  O   -0.614201
    78  H    0.165752
    79  H    0.186012
    80  H    0.160127
    81  N   -0.583547
    82  C    0.098130
    83  C    0.671358
    84  O   -0.528202
    85  C    0.167336
    86  C   -0.105140
    87  C   -0.111238
    88  C   -0.062599
    89  C   -0.187783
    90  C   -0.343089
    91  C    0.356837
    92  O   -0.537322
    93  H    0.180204
    94  H    0.051776
    95  H   -0.024028
    96  H   -0.129449
    97  H    0.101724
    98  H    0.139881
    99  H    0.129122
   100  H    0.142799
   101  H    0.408717
   102  N   -0.573005
   103  C   -0.263318
   104  C    0.788209
   105  O   -0.587971
   106  C    0.450851
   107  C    0.229888
   108  C   -0.552663
   109  C   -0.355843
   110  H    0.306781
   111  H    0.105191
   112  H   -0.053025
   113  H   -0.029359
   114  H   -0.048638
   115  H    0.095936
   116  H    0.101870
   117  H    0.144639
   118  H    0.063503
   119  H    0.078022
   120  H    0.074301
   121  N   -0.748627
   122  C    0.241450
   123  C    0.516813
   124  O   -0.474654
   125  C    0.243688
   126  O   -0.624901
   127  H    0.519718
   128  H   -0.007607
   129  H   -0.018979
   130  H   -0.039138
   131  H    0.388134
   132  N   -0.432877
   133  C    0.004149
   134  C    0.657099
   135  O   -0.561667
   136  C   -0.285363
   137  H    0.278209
   138  H    0.108050
   139  H    0.114537
   140  H    0.101499
   141  H    0.066451
   142  N   -0.497089
   143  C    0.059856
   144  C    0.425552
   145  O   -0.542567
   146  C   -0.249172
   147  H    0.298155
   148  H    0.111414
   149  H    0.083956
   150  H    0.085170
   151  H    0.074780
   152  N   -0.217194
   153  C    0.110439
   154  C    0.470869
   155  O   -0.544503
   156  C    0.051847
   157  C   -0.099099
   158  C    0.730041
   159  O   -0.626772
   160  O   -0.793335
   161  H    0.114745
   162  H    0.005038
   163  H    0.030238
   164  H   -0.119325
   165  H   -0.007319
   166  H    0.035451
   167  N   -0.143573
   168  C   -0.249430
   169  H    0.115756
   170  H    0.085286
   171  H    0.095709
   172  H    0.211914
   173  Ca   1.557194
   174  O   -0.773454
   175  H    0.431758
   176  H    0.379520
 Sum of ESP charges =   0.00000

 Normal termination of Gaussian 09 at Mon Sep 16 14:25:47 2019.
