 Gaussian 16, Revision A.03,
 Gaussian 16:  ES64L-G16RevA.03 25-Dec-2016

 ----------------------------------------------------------------------
 #b3lyp/svp scf=(tight,noincore) Test #IOP(5/87=12) Density=Current Pop
 =(MK,readradii) iop(6/33=2) iop(6/42=6)
 ----------------------------------------------------------------------

 -----------------
 CaMKII_loop3_31.0
 -----------------
 Symbolic Z-matrix:
 Charge =  0 Multiplicity = 1

                         Standard orientation:
 ---------------------------------------------------------------------
 Center     Atomic      Atomic             Coordinates (Angstroms)
 Number     Number       Type             X           Y           Z
 ---------------------------------------------------------------------
      1          6           0        2.694648    1.382881    5.011413
      2          6           0        2.088945    1.568140    3.626421
      3          8           0        2.800383    1.629493    2.632946
      4          1           0        3.777755    1.296568    4.925491
      5          1           0        2.447648    2.242253    5.634690
      6          1           0        2.293465    0.477247    5.465394
      7          7           0        0.780576    1.827733    3.549723
      8          6           0       -0.046690    1.964757    2.367667
      9          6           0       -0.239161    3.462695    2.158776
     10          8           0       -1.209477    4.128279    2.501831
     11          6           0       -1.318155    1.138594    2.559059
     12          6           0       -2.367814    1.370463    1.490343
     13          8           0       -2.031607    1.530410    0.293940
     14          8           0       -3.572384    1.372782    1.808786
     15          1           0        0.281131    1.850117    4.429412
     16          1           0        0.438745    1.641310    1.445965
     17          1           0       -1.735990    1.367577    3.542462
     18          1           0       -1.144549    0.064465    2.500687
     19          7           0        0.693963    4.048263    1.412191
     20          6           0        0.830359    5.430401    0.978497
     21          6           0       -0.186998    5.870314   -0.051823
     22          8           0       -0.683422    6.992965    0.056889
     23          6           0        2.234320    5.725877    0.451820
     24          6           0        2.536500    7.221902    0.498695
     25          6           0        3.976336    7.569183    0.148169
     26          6           0        4.348772    9.041971    0.014421
     27          7           0        5.718029    9.245887   -0.489614
     28          1           0        1.472562    3.465771    1.142217
     29          1           0        0.585229    6.121466    1.789695
     30          1           0        2.551223    5.379034   -0.526889
     31          1           0        2.888562    5.264057    1.177072
     32          1           0        2.251717    7.566155    1.485249
     33          1           0        1.923623    7.784727   -0.209620
     34          1           0        4.284246    7.002570   -0.726040
     35          1           0        4.582530    7.288555    1.002496
     36          1           0        4.198342    9.479171    1.004182
     37          1           0        3.695162    9.517240   -0.721726
     38          1           0        6.436369    8.975770    0.163933
     39          1           0        5.799937    8.751210   -1.370742
     40          1           0        5.714365   10.248947   -0.564167
     41          7           0       -0.578564    5.074492   -1.056783
     42          6           0       -1.644113    5.435743   -1.966729
     43          6           0       -3.053165    5.310265   -1.414076
     44          8           0       -3.980231    6.025813   -1.805278
     45          6           0       -1.551513    4.519757   -3.183691
     46          6           0       -1.435562    3.026440   -2.927648
     47          8           0       -2.400222    2.261894   -3.156344
     48          8           0       -0.441421    2.664904   -2.260808
     49          1           0       -0.129825    4.173084   -1.152160
     50          1           0       -1.538610    6.439853   -2.373218
     51          1           0       -0.628430    4.791703   -3.712238
     52          1           0       -2.392361    4.755877   -3.831242
     53          7           0       -3.196553    4.363478   -0.489341
     54          6           0       -4.286114    4.306874    0.460529
     55          6           0       -5.417589    3.348644    0.111587
     56          8           0       -6.547824    3.624242    0.496314
     57          1           0       -2.448363    3.690619   -0.358679
     58          1           0       -4.765655    5.278122    0.539369
     59          1           0       -3.834946    4.004008    1.406901
     60          7           0       -5.239517    2.317623   -0.728464
     61          6           0       -6.282897    1.440324   -1.220199
     62          6           0       -6.773714    0.500588   -0.132544
     63          8           0       -7.842518   -0.032679   -0.393855
     64          6           0       -5.860221    0.776300   -2.520014
     65          6           0       -4.551743   -0.012172   -2.554613
     66          7           0       -4.244498   -0.695863   -3.655961
     67          8           0       -3.793863   -0.167222   -1.591557
     68          1           0       -4.295057    2.129982   -1.024585
     69          1           0       -7.177988    2.046278   -1.396072
     70          1           0       -5.713945    1.513046   -3.309196
     71          1           0       -6.692098    0.153625   -2.850402
     72          1           0       -4.761642   -0.535473   -4.506689
     73          1           0       -3.543739   -1.416503   -3.614558
     74          7           0       -6.003846    0.207606    0.927110
     75          6           0       -6.323856   -0.767132    1.953940
     76          6           0       -5.370805   -1.943192    2.099471
     77          8           0       -5.580492   -2.970688    2.746373
     78          1           0       -5.142446    0.719487    1.049044
     79          1           0       -7.323436   -1.175065    1.832983
     80          1           0       -6.164486   -0.244799    2.901553
     81          7           0       -4.304448   -1.869674    1.288437
     82          6           0       -3.450339   -2.981076    0.929855
     83          6           0       -1.985064   -2.582555    0.772531
     84          8           0       -1.646172   -1.560835    0.181058
     85          6           0       -3.945415   -3.685020   -0.334804
     86          6           0       -5.245444   -4.450520   -0.299631
     87          6           0       -5.362517   -5.845880   -0.229876
     88          6           0       -6.442914   -3.736523   -0.387223
     89          6           0       -6.566707   -6.551890   -0.134073
     90          6           0       -7.673952   -4.399308   -0.294691
     91          6           0       -7.758815   -5.806124   -0.182144
     92          8           0       -8.938213   -6.488398   -0.129026
     93          1           0       -4.167364   -1.043319    0.719450
     94          1           0       -3.458416   -3.732197    1.709311
     95          1           0       -3.175212   -4.424613   -0.533022
     96          1           0       -4.037817   -3.020576   -1.190360
     97          1           0       -4.451192   -6.402372   -0.359110
     98          1           0       -6.388583   -2.667685   -0.588305
     99          1           0       -6.680386   -7.629018   -0.075150
    100          1           0       -8.570073   -3.797632   -0.365775
    101          1           0       -9.675337   -5.877044   -0.032103
    102          7           0       -1.070548   -3.347579    1.377262
    103          6           0        0.359553   -3.161373    1.332121
    104          6           0        0.982609   -4.081876    0.287193
    105          8           0        0.662229   -5.265382    0.239539
    106          6           0        0.927339   -3.317421    2.741791
    107          6           0        0.307695   -2.445849    3.845831
    108          6           0        2.427278   -3.082006    2.834856
    109          6           0        0.573534   -2.780612    5.311083
    110          1           0       -1.439575   -4.106862    1.923805
    111          1           0        0.573767   -2.110065    1.146210
    112          1           0        0.654569   -4.318029    3.069480
    113          1           0       -0.765697   -2.356364    3.719646
    114          1           0        0.622624   -1.438095    3.602827
    115          1           0        2.984049   -3.763463    2.191255
    116          1           0        2.633386   -2.049307    2.561264
    117          1           0        2.778471   -3.247162    3.853624
    118          1           0        0.253875   -3.806687    5.503668
    119          1           0        1.630874   -2.633407    5.517392
    120          1           0       -0.064667   -2.095121    5.881522
    121          7           0        1.967553   -3.533532   -0.428911
    122          6           0        2.899395   -4.359125   -1.164415
    123          6           0        4.337472   -4.247259   -0.667606
    124          8           0        4.646670   -3.385029    0.148394
    125          6           0        2.648632   -3.996609   -2.631249
    126          8           0        2.926384   -2.637120   -2.873617
    127          1           0        2.100877   -2.531391   -0.478297
    128          1           0        2.559569   -5.395803   -1.160459
    129          1           0        1.597738   -4.067413   -2.889725
    130          1           0        3.249784   -4.541303   -3.360443
    131          1           0        2.334407   -2.043240   -2.395214
    132          7           0        5.208446   -5.142901   -1.126004
    133          6           0        6.603046   -5.105432   -0.705187
    134          6           0        7.341094   -3.813421   -1.031673
    135          8           0        8.241417   -3.414234   -0.303203
    136          6           0        7.329901   -6.283209   -1.354975
    137          1           0        4.825743   -5.811903   -1.781195
    138          1           0        6.661556   -5.256136    0.369506
    139          1           0        6.710390   -7.147445   -1.117694
    140          1           0        7.490895   -6.092827   -2.423028
    141          1           0        8.262166   -6.478463   -0.826054
    142          7           0        6.976919   -3.107096   -2.099091
    143          6           0        7.557593   -1.833333   -2.475584
    144          6           0        7.240401   -0.711509   -1.494819
    145          8           0        8.036564    0.133270   -1.085095
    146          6           0        7.165544   -1.393760   -3.873859
    147          1           0        6.337482   -3.504394   -2.773387
    148          1           0        8.636547   -1.972060   -2.464917
    149          1           0        6.094680   -1.250479   -4.043630
    150          1           0        7.537167   -0.373423   -3.987915
    151          1           0        7.556221   -2.035950   -4.653001
    152          7           0        6.064176   -0.778417   -0.856370
    153          6           0        5.527951    0.196118    0.067559
    154          6           0        6.027612   -0.026576    1.491970
    155          8           0        6.339032    0.965270    2.137693
    156          6           0        4.003455    0.187954    0.060829
    157          6           0        3.381303    0.237856   -1.326988
    158          6           0        1.881290    0.025364   -1.208217
    159          8           0        1.324599   -1.069340   -1.444474
    160          8           0        1.153696    0.956135   -0.789920
    161          1           0        5.444705   -1.540837   -1.108306
    162          1           0        5.858301    1.182101   -0.284018
    163          1           0        3.655067    1.158608    0.431042
    164          1           0        3.492600   -0.516587    0.721775
    165          1           0        3.782127   -0.542260   -1.963745
    166          1           0        3.791984    1.161117   -1.760498
    167          7           0        6.148564   -1.299807    1.863930
    168          6           0        6.753131   -1.722901    3.111324
    169          1           0        7.836810   -1.634441    3.037410
    170          1           0        6.391821   -1.091909    3.923316
    171          1           0        6.486419   -2.761104    3.311283
    172          1           0        5.803452   -2.087291    1.321651
    173         20           0       -1.204965    0.292308   -1.727710
    174          8           0       -1.719091   -2.025404   -2.975420
    175          1           0       -2.361694   -2.716502   -2.828636
    176          1           0       -0.944517   -2.482840   -3.302358
 ---------------------------------------------------------------------

 SCF Done:  E(RB3LYP) =  -5333.59328717     A.U. after   17 cycles

 The electronic state is 1-A.
 Alpha  occ. eigenvalues -- -145.35409 -19.20478 -19.14685 -19.12838 -19.10792
 Alpha  occ. eigenvalues --  -19.10708 -19.10675 -19.09877 -19.09781 -19.08731
 Alpha  occ. eigenvalues --  -19.07554 -19.07081 -19.06763 -19.06450 -19.05835
 Alpha  occ. eigenvalues --  -19.05805 -19.05441 -19.05345 -19.05249 -19.04758
 Alpha  occ. eigenvalues --  -19.03913 -19.03098 -19.02601 -19.01873 -15.41171
 Alpha  occ. eigenvalues --  -14.60116 -14.38825 -14.36416 -14.35932 -14.35634
 Alpha  occ. eigenvalues --  -14.34720 -14.33801 -14.33193 -14.32463 -14.31688
 Alpha  occ. eigenvalues --  -14.31487 -14.31253 -14.29998 -14.29095 -14.28776
 Alpha  occ. eigenvalues --  -12.54785 -12.54750 -12.54722 -10.36129 -10.31038
 Alpha  occ. eigenvalues --  -10.29709 -10.28988 -10.28867 -10.28114 -10.27954
 Alpha  occ. eigenvalues --  -10.26683 -10.26197 -10.26083 -10.25479 -10.25422
 Alpha  occ. eigenvalues --  -10.25044 -10.24786 -10.24586 -10.24189 -10.24119
 Alpha  occ. eigenvalues --  -10.24091 -10.23606 -10.23404 -10.23382 -10.23153
 Alpha  occ. eigenvalues --  -10.22977 -10.22590 -10.22509 -10.22367 -10.22331
 Alpha  occ. eigenvalues --  -10.21879 -10.21501 -10.21467 -10.20338 -10.19914
 Alpha  occ. eigenvalues --  -10.19635 -10.19608 -10.19448 -10.19190 -10.19153
 Alpha  occ. eigenvalues --  -10.18836 -10.18784 -10.18782 -10.18051 -10.17600
 Alpha  occ. eigenvalues --  -10.17368 -10.17191 -10.17120 -10.16897 -10.16884
 Alpha  occ. eigenvalues --  -10.16779 -10.16716 -10.16510 -10.16114 -10.16033
 Alpha  occ. eigenvalues --  -10.15382 -10.15188  -1.78115  -1.15518  -1.06960
 Alpha  occ. eigenvalues --   -1.06099  -1.05787  -1.05709  -1.05232  -1.03732
 Alpha  occ. eigenvalues --   -1.03560  -1.03362  -1.03165  -1.02827  -1.02413
 Alpha  occ. eigenvalues --   -1.01072  -1.00355  -1.00299  -1.00094  -1.00001
 Alpha  occ. eigenvalues --   -0.99343  -0.98826  -0.98156  -0.97990  -0.97338
 Alpha  occ. eigenvalues --   -0.96497  -0.95808  -0.95516  -0.92902  -0.92730
 Alpha  occ. eigenvalues --   -0.92007  -0.91321  -0.90599  -0.90483  -0.90279
 Alpha  occ. eigenvalues --   -0.90126  -0.89420  -0.89325  -0.89212  -0.88200
 Alpha  occ. eigenvalues --   -0.87677  -0.87305  -0.86881  -0.85959  -0.85254
 Alpha  occ. eigenvalues --   -0.82926  -0.82406  -0.81469  -0.80897  -0.78203
 Alpha  occ. eigenvalues --   -0.77759  -0.77487  -0.76722  -0.76378  -0.75968
 Alpha  occ. eigenvalues --   -0.75613  -0.75218  -0.74659  -0.73863  -0.73143
 Alpha  occ. eigenvalues --   -0.72299  -0.71711  -0.70853  -0.70796  -0.69951
 Alpha  occ. eigenvalues --   -0.68830  -0.68272  -0.68269  -0.67612  -0.66786
 Alpha  occ. eigenvalues --   -0.66056  -0.65064  -0.64706  -0.64337  -0.63867
 Alpha  occ. eigenvalues --   -0.63695  -0.63284  -0.62520  -0.61707  -0.61327
 Alpha  occ. eigenvalues --   -0.60815  -0.60303  -0.60103  -0.59560  -0.59035
 Alpha  occ. eigenvalues --   -0.58763  -0.58662  -0.58278  -0.58081  -0.57135
 Alpha  occ. eigenvalues --   -0.56917  -0.56721  -0.56529  -0.56393  -0.55778
 Alpha  occ. eigenvalues --   -0.55632  -0.55271  -0.54987  -0.54405  -0.54155
 Alpha  occ. eigenvalues --   -0.53748  -0.53354  -0.52766  -0.52745  -0.52646
 Alpha  occ. eigenvalues --   -0.52338  -0.52037  -0.51840  -0.51608  -0.50927
 Alpha  occ. eigenvalues --   -0.50451  -0.50204  -0.49857  -0.49619  -0.49194
 Alpha  occ. eigenvalues --   -0.48967  -0.48572  -0.48494  -0.48157  -0.48021
 Alpha  occ. eigenvalues --   -0.47646  -0.47509  -0.47269  -0.47042  -0.46938
 Alpha  occ. eigenvalues --   -0.46894  -0.46429  -0.46342  -0.45966  -0.45905
 Alpha  occ. eigenvalues --   -0.45610  -0.45250  -0.45211  -0.44710  -0.44427
 Alpha  occ. eigenvalues --   -0.44396  -0.44240  -0.44061  -0.43696  -0.43628
 Alpha  occ. eigenvalues --   -0.43562  -0.43409  -0.43323  -0.43019  -0.42811
 Alpha  occ. eigenvalues --   -0.42609  -0.42545  -0.42446  -0.42199  -0.42080
 Alpha  occ. eigenvalues --   -0.41920  -0.41826  -0.41620  -0.41533  -0.41347
 Alpha  occ. eigenvalues --   -0.41249  -0.41243  -0.40732  -0.40583  -0.40522
 Alpha  occ. eigenvalues --   -0.40470  -0.40308  -0.40135  -0.40108  -0.39995
 Alpha  occ. eigenvalues --   -0.39819  -0.39754  -0.39629  -0.39523  -0.39407
 Alpha  occ. eigenvalues --   -0.39344  -0.39257  -0.39156  -0.39035  -0.38837
 Alpha  occ. eigenvalues --   -0.38694  -0.38523  -0.38363  -0.38256  -0.38137
 Alpha  occ. eigenvalues --   -0.38095  -0.37996  -0.37856  -0.37690  -0.37549
 Alpha  occ. eigenvalues --   -0.37502  -0.37453  -0.37267  -0.37252  -0.36954
 Alpha  occ. eigenvalues --   -0.36785  -0.36619  -0.36482  -0.36196  -0.36047
 Alpha  occ. eigenvalues --   -0.36018  -0.35692  -0.35563  -0.35460  -0.35221
 Alpha  occ. eigenvalues --   -0.34968  -0.34812  -0.34647  -0.34500  -0.34215
 Alpha  occ. eigenvalues --   -0.34155  -0.33400  -0.33340  -0.33098  -0.33015
 Alpha  occ. eigenvalues --   -0.32856  -0.32705  -0.32336  -0.32176  -0.32073
 Alpha  occ. eigenvalues --   -0.32001  -0.31812  -0.31747  -0.31019  -0.30873
 Alpha  occ. eigenvalues --   -0.30484  -0.30341  -0.30201  -0.29833  -0.28905
 Alpha  occ. eigenvalues --   -0.28308  -0.27655  -0.27444  -0.27219  -0.26915
 Alpha  occ. eigenvalues --   -0.26637  -0.26204  -0.25772  -0.25614  -0.25472
 Alpha  occ. eigenvalues --   -0.25121  -0.24897  -0.24733  -0.24528  -0.23995
 Alpha  occ. eigenvalues --   -0.23702  -0.23462  -0.23449  -0.23204  -0.23012
 Alpha  occ. eigenvalues --   -0.22783  -0.22739  -0.22401  -0.22093  -0.21917
 Alpha  occ. eigenvalues --   -0.21855  -0.21680  -0.21600  -0.21203  -0.20646
 Alpha  occ. eigenvalues --   -0.20340  -0.20325  -0.20226  -0.19945  -0.19173
 Alpha  occ. eigenvalues --   -0.18700  -0.17633  -0.17573
 Alpha virt. eigenvalues --   -0.11855  -0.05821  -0.05503  -0.02498  -0.02385
 Alpha virt. eigenvalues --   -0.00964   0.00548   0.00773   0.00796   0.00958
 Alpha virt. eigenvalues --    0.01244   0.01355   0.01641   0.02186   0.02462

 Mulliken charges:
               1
     1  C    0.037305
     2  C    0.011614
     3  O   -0.272950
     4  H    0.045454
     5  H    0.024479
     6  H    0.022921
     7  N   -0.123649
     8  C    0.053841
     9  C    0.067319
    10  O   -0.265095
    11  C    0.124329
    12  C    0.134341
    13  O   -0.478691
    14  O   -0.374305
    15  H    0.112005
    16  H    0.051513
    17  H   -0.014343
    18  H    0.012332
    19  N   -0.104232
    20  C    0.145951
    21  C    0.039008
    22  O   -0.295073
    23  C    0.037547
    24  C    0.006340
    25  C   -0.030109
    26  C   -0.009832
    27  N    0.090283
    28  H    0.132558
    29  H    0.009552
    30  H    0.015567
    31  H    0.013027
    32  H    0.013669
    33  H    0.026897
    34  H    0.017986
    35  H    0.016418
    36  H    0.089554
    37  H    0.072294
    38  H    0.197065
    39  H    0.206443
    40  H    0.199174
    41  N   -0.118789
    42  C    0.100842
    43  C    0.069892
    44  O   -0.278680
    45  C    0.117218
    46  C    0.090510
    47  O   -0.408763
    48  O   -0.431267
    49  H    0.133170
    50  H   -0.009627
    51  H   -0.014063
    52  H    0.000859
    53  N   -0.191171
    54  C    0.246675
    55  C    0.031800
    56  O   -0.300605
    57  H    0.160785
    58  H    0.019379
    59  H    0.048386
    60  N   -0.162489
    61  C    0.173873
    62  C    0.065037
    63  O   -0.305944
    64  C    0.053159
    65  C    0.078256
    66  N   -0.034666
    67  O   -0.354775
    68  H    0.126649
    69  H    0.017465
    70  H    0.044182
    71  H    0.035388
    72  H    0.120538
    73  H    0.082660
    74  N   -0.186296
    75  C    0.251461
    76  C    0.011064
    77  O   -0.289012
    78  H    0.160895
    79  H    0.040924
    80  H    0.030121
    81  N   -0.161377
    82  C    0.172186
    83  C    0.114152
    84  O   -0.336026
    85  C    0.116100
    86  C   -0.016393
    87  C   -0.003662
    88  C   -0.008306
    89  C   -0.008941
    90  C   -0.037841
    91  C    0.156561
    92  O   -0.200584
    93  H    0.154827
    94  H   -0.018451
    95  H   -0.030470
    96  H   -0.014209
    97  H   -0.046216
    98  H   -0.018899
    99  H   -0.029602
   100  H   -0.031779
   101  H    0.176459
   102  N   -0.116280
   103  C    0.150422
   104  C    0.103929
   105  O   -0.285459
   106  C   -0.102356
   107  C   -0.033562
   108  C    0.064548
   109  C    0.052890
   110  H    0.127040
   111  H    0.018229
   112  H   -0.027957
   113  H   -0.008118
   114  H   -0.010199
   115  H    0.012906
   116  H    0.022889
   117  H   -0.004270
   118  H    0.010272
   119  H    0.017357
   120  H    0.018392
   121  N   -0.141368
   122  C    0.051374
   123  C    0.124107
   124  O   -0.279441
   125  C    0.270023
   126  O   -0.373380
   127  H    0.138278
   128  H    0.017578
   129  H   -0.025833
   130  H   -0.022988
   131  H    0.169457
   132  N   -0.122340
   133  C    0.096220
   134  C    0.059754
   135  O   -0.251388
   136  C    0.038340
   137  H    0.121561
   138  H    0.021527
   139  H    0.020582
   140  H    0.020285
   141  H    0.041580
   142  N   -0.129850
   143  C    0.113355
   144  C    0.047142
   145  O   -0.274339
   146  C    0.026430
   147  H    0.107978
   148  H    0.013319
   149  H    0.024889
   150  H    0.025356
   151  H    0.017508
   152  N   -0.153959
   153  C    0.145526
   154  C    0.107519
   155  O   -0.278154
   156  C   -0.052856
   157  C    0.097691
   158  C    0.144703
   159  O   -0.454433
   160  O   -0.372993
   161  H    0.129199
   162  H   -0.018578
   163  H    0.041533
   164  H    0.012483
   165  H   -0.038638
   166  H   -0.015137
   167  N   -0.180599
   168  C    0.136841
   169  H    0.026380
   170  H    0.017164
   171  H    0.003517
   172  H    0.135851
   173  Ca   1.290520
   174  O   -0.270193
   175  H    0.185863
   176  H    0.193286
 Sum of Mulliken charges =  -0.00000

 Dipole moment (field-independent basis, Debye):
    X=             31.7563    Y=             14.1484    Z=            -11.0082  Tot=             36.4667
 Quadrupole moment (field-independent basis, Debye-Ang):
   XX=           -619.4126   YY=           -277.3060   ZZ=           -516.2861
   XY=            232.5158   XZ=             -4.2032   YZ=             18.2287

 ESP charges:
               1
     1  C   -0.473043
     2  C    0.882681
     3  O   -0.649058
     4  H    0.143005
     5  H    0.114319
     6  H    0.105485
     7  N   -0.889923
     8  C    0.560982
     9  C    0.509336
    10  O   -0.528994
    11  C   -0.657125
    12  C    0.804578
    13  O   -0.783698
    14  O   -0.612214
    15  H    0.376927
    16  H    0.041665
    17  H    0.133079
    18  H    0.204837
    19  N   -0.479942
    20  C    0.207793
    21  C    0.440923
    22  O   -0.570576
    23  C   -0.124720
    24  C   -0.032271
    25  C    0.052082
    26  C    0.093541
    27  N   -0.523245
    28  H    0.259450
    29  H    0.060820
    30  H    0.060658
    31  H    0.047231
    32  H    0.028863
    33  H    0.026991
    34  H    0.011240
    35  H    0.008386
    36  H    0.075076
    37  H    0.060210
    38  H    0.376142
    39  H    0.383986
    40  H    0.367003
    41  N   -0.399283
    42  C    0.175048
    43  C    0.402421
    44  O   -0.553236
    45  C   -0.343260
    46  C    0.718937
    47  O   -0.726054
    48  O   -0.730986
    49  H    0.279540
    50  H    0.057377
    51  H    0.072786
    52  H    0.102039
    53  N    0.078118
    54  C   -0.367041
    55  C    0.677754
    56  O   -0.589247
    57  H    0.102303
    58  H    0.152749
    59  H    0.141726
    60  N   -0.482774
    61  C    0.209690
    62  C    0.363175
    63  O   -0.544198
    64  C   -0.458180
    65  C    0.972916
    66  N   -0.966080
    67  O   -0.739265
    68  H    0.186629
    69  H    0.093839
    70  H    0.158435
    71  H    0.113551
    72  H    0.384953
    73  H    0.452663
    74  N    0.011941
    75  C   -0.434293
    76  C    0.702696
    77  O   -0.570476
    78  H    0.156636
    79  H    0.180880
    80  H    0.139161
    81  N   -0.673375
    82  C    0.494714
    83  C    0.613532
    84  O   -0.670736
    85  C    0.056337
    86  C   -0.006903
    87  C   -0.211652
    88  C   -0.101684
    89  C   -0.180299
    90  C   -0.295544
    91  C    0.357810
    92  O   -0.557435
    93  H    0.336645
    94  H   -0.039012
    95  H   -0.028160
    96  H   -0.037104
    97  H    0.114954
    98  H    0.135450
    99  H    0.144845
   100  H    0.135751
   101  H    0.416387
   102  N   -0.807584
   103  C    0.199489
   104  C    0.600990
   105  O   -0.561644
   106  C    0.004107
   107  C    0.374590
   108  C   -0.297087
   109  C   -0.404770
   110  H    0.356926
   111  H    0.091192
   112  H   -0.004439
   113  H   -0.062748
   114  H   -0.075104
   115  H    0.066536
   116  H    0.060773
   117  H    0.089984
   118  H    0.091113
   119  H    0.087512
   120  H    0.096142
   121  N   -0.308749
   122  C   -0.262623
   123  C    0.709058
   124  O   -0.525314
   125  C    0.210567
   126  O   -0.613440
   127  H    0.309495
   128  H    0.102132
   129  H    0.003573
   130  H    0.028692
   131  H    0.374271
   132  N   -0.585079
   133  C    0.275433
   134  C    0.401761
   135  O   -0.521445
   136  C   -0.317648
   137  H    0.307233
   138  H    0.051107
   139  H    0.092942
   140  H    0.071481
   141  H    0.112395
   142  N   -0.289907
   143  C    0.047634
   144  C    0.299770
   145  O   -0.519430
   146  C   -0.350328
   147  H    0.262066
   148  H    0.109569
   149  H    0.097620
   150  H    0.117888
   151  H    0.096766
   152  N    0.289857
   153  C   -0.514282
   154  C    0.646293
   155  O   -0.555574
   156  C   -0.000752
   157  C   -0.372007
   158  C    0.786140
   159  O   -0.735753
   160  O   -0.717159
   161  H   -0.014719
   162  H    0.169924
   163  H    0.165127
   164  H    0.015301
   165  H    0.039933
   166  H    0.116733
   167  N   -0.230354
   168  C   -0.263273
   169  H    0.113548
   170  H    0.093170
   171  H    0.098103
   172  H    0.228171
   173  Ca   1.664625
   174  O   -0.902559
   175  H    0.396814
   176  H    0.488635
 Sum of ESP charges =   0.00000

 Normal termination of Gaussian 16 at Wed Sep 18 16:08:38 2019.
