 Gaussian 16, Revision A.03,
 Gaussian 16:  ES64L-G16RevA.03 25-Dec-2016

 ----------------------------------------------------------------------
 #b3lyp/svp scf=(tight,noincore) Test #IOP(5/87=12) Density=Current Pop
 =(MK,readradii) iop(6/33=2) iop(6/42=6)
 ----------------------------------------------------------------------

 ------------------
 CaMKII_loop3_107.0
 ------------------
 Symbolic Z-matrix:
 Charge =  0 Multiplicity = 1

                         Standard orientation:
 ---------------------------------------------------------------------
 Center     Atomic      Atomic             Coordinates (Angstroms)
 Number     Number       Type             X           Y           Z
 ---------------------------------------------------------------------
      1          6           0        2.244599    1.952159    5.656433
      2          6           0        1.465834    1.709872    4.377088
      3          8           0        2.133233    1.419267    3.392493
      4          1           0        1.552931    2.202196    6.460630
      5          1           0        2.798503    1.051481    5.921726
      6          1           0        2.941292    2.777319    5.507454
      7          7           0        0.172271    2.015022    4.269023
      8          6           0       -0.628813    1.862761    3.077981
      9          6           0       -0.760249    3.094039    2.183566
     10          8           0       -1.719590    3.864587    2.258533
     11          6           0       -1.981753    1.324275    3.534144
     12          6           0       -2.924449    1.022415    2.364697
     13          8           0       -4.158581    1.036080    2.530319
     14          8           0       -2.427726    0.754934    1.249968
     15          1           0       -0.279779    2.419141    5.085869
     16          1           0       -0.236101    1.141519    2.365598
     17          1           0       -2.544810    1.914013    4.256000
     18          1           0       -1.765946    0.394578    4.051823
     19          7           0        0.103506    3.256350    1.178687
     20          6           0        0.491008    4.570151    0.711816
     21          6           0       -0.621198    5.329516   -0.006002
     22          8           0       -0.705470    6.547512   -0.025603
     23          6           0        1.613153    4.459460   -0.323142
     24          6           0        2.448177    5.697429   -0.635825
     25          6           0        3.719362    5.322884   -1.386762
     26          6           0        4.414888    6.621881   -1.756154
     27          7           0        5.749801    6.413818   -2.343621
     28          1           0        0.786181    2.541783    1.001633
     29          1           0        0.791802    5.201644    1.543766
     30          1           0        1.248108    4.017011   -1.248551
     31          1           0        2.276825    3.691799    0.067800
     32          1           0        2.593375    6.210443    0.313824
     33          1           0        1.873748    6.357813   -1.291206
     34          1           0        3.447012    4.730617   -2.260573
     35          1           0        4.322641    4.766480   -0.669288
     36          1           0        4.451698    7.197116   -0.836182
     37          1           0        3.784081    7.079613   -2.522681
     38          1           0        6.266019    5.696827   -1.874002
     39          1           0        5.705516    6.139517   -3.316348
     40          1           0        6.254779    7.285299   -2.404595
     41          7           0       -1.411656    4.525759   -0.718148
     42          6           0       -2.510492    5.051957   -1.518758
     43          6           0       -3.909167    4.776849   -0.973484
     44          8           0       -4.852356    5.452581   -1.375329
     45          6           0       -2.313809    4.374146   -2.873080
     46          6           0       -2.423401    2.871754   -3.024755
     47          8           0       -2.576209    2.186346   -1.986359
     48          8           0       -2.175183    2.342806   -4.130514
     49          1           0       -1.115997    3.560866   -0.731020
     50          1           0       -2.373463    6.122605   -1.631172
     51          1           0       -1.417358    4.866822   -3.264291
     52          1           0       -3.163794    4.775860   -3.418196
     53          7           0       -3.940367    3.926799    0.050597
     54          6           0       -5.107799    3.753113    0.883865
     55          6           0       -6.103906    2.684943    0.445934
     56          8           0       -7.259189    2.653336    0.852042
     57          1           0       -3.054658    3.518583    0.303341
     58          1           0       -5.618760    4.717012    0.811624
     59          1           0       -4.854041    3.454997    1.899706
     60          7           0       -5.593914    1.803741   -0.420259
     61          6           0       -6.349171    0.752342   -1.065819
     62          6           0       -6.608485   -0.473884   -0.202844
     63          8           0       -7.367274   -1.369593   -0.566361
     64          6           0       -5.830846    0.436056   -2.469601
     65          6           0       -4.815395   -0.692683   -2.412087
     66          7           0       -5.124901   -1.792674   -3.106078
     67          8           0       -3.814353   -0.748841   -1.700917
     68          1           0       -4.623849    1.928431   -0.669108
     69          1           0       -7.312336    1.220698   -1.243173
     70          1           0       -5.543499    1.399773   -2.883462
     71          1           0       -6.686486    0.084958   -3.052705
     72          1           0       -5.972433   -1.721801   -3.639432
     73          1           0       -4.665281   -2.618284   -2.755197
     74          7           0       -6.009372   -0.485632    0.991110
     75          6           0       -6.316053   -1.374970    2.089803
     76          6           0       -5.318195   -2.509126    2.304673
     77          8           0       -5.621654   -3.448179    3.024529
     78          1           0       -5.390246    0.263663    1.244366
     79          1           0       -7.292478   -1.845910    1.935824
     80          1           0       -6.429163   -0.756411    2.984337
     81          7           0       -4.203261   -2.537376    1.566619
     82          6           0       -3.139995   -3.493196    1.801933
     83          6           0       -1.769928   -2.922397    1.468906
     84          8           0       -1.684925   -1.870757    0.832725
     85          6           0       -3.388074   -4.768968    0.996910
     86          6           0       -4.034858   -4.674043   -0.364105
     87          6           0       -5.434652   -4.762863   -0.462022
     88          6           0       -3.315809   -4.639400   -1.563049
     89          6           0       -6.022970   -4.958188   -1.718458
     90          6           0       -3.877771   -4.872109   -2.822274
     91          6           0       -5.280189   -5.020201   -2.903460
     92          8           0       -5.913870   -5.176929   -4.101995
     93          1           0       -4.020389   -1.736392    0.984226
     94          1           0       -3.079458   -3.766799    2.850397
     95          1           0       -3.840779   -5.581457    1.550009
     96          1           0       -2.458444   -5.316015    0.872298
     97          1           0       -6.058004   -4.903006    0.402091
     98          1           0       -2.241543   -4.525980   -1.572492
     99          1           0       -7.104469   -4.913361   -1.711366
    100          1           0       -3.281313   -4.677245   -3.705940
    101          1           0       -6.860707   -5.064248   -3.982822
    102          7           0       -0.607332   -3.480628    1.831328
    103          6           0        0.710222   -2.907596    1.725100
    104          6           0        1.430788   -3.665206    0.618524
    105          8           0        1.219587   -4.871388    0.555927
    106          6           0        1.474790   -2.926995    3.043417
    107          6           0        0.698838   -2.239254    4.168722
    108          6           0        2.852683   -2.290900    2.913060
    109          6           0        1.047843   -2.874453    5.511525
    110          1           0       -0.671456   -4.207322    2.540133
    111          1           0        0.630737   -1.876693    1.390106
    112          1           0        1.611651   -3.982150    3.313452
    113          1           0       -0.379506   -2.308009    4.007026
    114          1           0        0.973395   -1.184168    4.202061
    115          1           0        2.853918   -1.467159    2.209463
    116          1           0        3.041466   -1.999067    3.940676
    117          1           0        3.540979   -3.111702    2.671334
    118          1           0        0.803342   -3.942325    5.503349
    119          1           0        2.127441   -2.837100    5.639870
    120          1           0        0.453966   -2.343227    6.260331
    121          7           0        2.315361   -3.059145   -0.185727
    122          6           0        3.187108   -3.735964   -1.125819
    123          6           0        4.640794   -3.430339   -0.807240
    124          8           0        4.904615   -2.551117    0.011946
    125          6           0        2.779053   -3.448055   -2.566618
    126          8           0        2.398282   -2.098205   -2.709518
    127          1           0        2.408930   -2.059233   -0.119235
    128          1           0        3.150400   -4.818596   -0.980359
    129          1           0        1.934052   -4.085305   -2.834915
    130          1           0        3.502844   -3.767331   -3.315209
    131          1           0        2.219784   -1.903399   -3.637251
    132          7           0        5.644042   -4.108394   -1.384419
    133          6           0        7.046999   -4.004793   -1.024449
    134          6           0        7.590168   -2.590110   -1.049743
    135          8           0        8.081222   -2.097600   -0.034805
    136          6           0        7.853090   -4.899933   -1.953342
    137          1           0        5.420727   -4.875833   -1.992504
    138          1           0        7.263710   -4.274562    0.014281
    139          1           0        7.341001   -5.850776   -2.150730
    140          1           0        8.018174   -4.391518   -2.905583
    141          1           0        8.802279   -5.181651   -1.505487
    142          7           0        7.459517   -1.878542   -2.177395
    143          6           0        7.823716   -0.479137   -2.255000
    144          6           0        7.134734    0.408287   -1.227486
    145          8           0        7.755418    1.407046   -0.861246
    146          6           0        7.680719   -0.169645   -3.739138
    147          1           0        7.099288   -2.428375   -2.944545
    148          1           0        8.888772   -0.344673   -2.095704
    149          1           0        6.638257   -0.220132   -4.057610
    150          1           0        8.002318    0.858697   -3.906726
    151          1           0        8.336051   -0.769787   -4.381766
    152          7           0        5.896828    0.150818   -0.797720
    153          6           0        5.260560    0.963473    0.224215
    154          6           0        5.884638    0.845165    1.612390
    155          8           0        5.929597    1.772219    2.411296
    156          6           0        3.753446    0.719528    0.223349
    157          6           0        2.990298    0.914967   -1.074768
    158          6           0        1.508061    0.576404   -0.970619
    159          8           0        0.682972    1.404357   -1.400411
    160          8           0        1.086838   -0.459673   -0.421697
    161          1           0        5.305650   -0.639221   -1.029554
    162          1           0        5.433333    1.978965   -0.137759
    163          1           0        3.326016    1.403039    0.969951
    164          1           0        3.482012   -0.250625    0.622880
    165          1           0        3.430280    0.228466   -1.806090
    166          1           0        3.246873    1.905536   -1.458100
    167          7           0        6.428652   -0.324181    1.918295
    168          6           0        7.072674   -0.551802    3.203256
    169          1           0        6.390395   -0.271472    4.005670
    170          1           0        7.331134   -1.606390    3.298925
    171          1           0        7.978085    0.052212    3.268847
    172          1           0        6.323321   -1.061476    1.232291
    173         20           0       -1.408807   -0.010787   -0.980138
    174          8           0       -1.517846   -0.013090   -3.521694
    175          1           0       -1.788412    0.817459   -3.909098
    176          1           0       -1.623398   -0.656352   -4.215288
 ---------------------------------------------------------------------

 SCF Done:  E(RB3LYP) =  -5333.59779147     A.U. after   18 cycles

 The electronic state is 1-A.
 Alpha  occ. eigenvalues -- -145.34459 -19.16214 -19.15883 -19.13713 -19.12083
 Alpha  occ. eigenvalues --  -19.10610 -19.10364 -19.09161 -19.09085 -19.08733
 Alpha  occ. eigenvalues --  -19.08222 -19.08101 -19.07945 -19.07086 -19.06856
 Alpha  occ. eigenvalues --  -19.06786 -19.05531 -19.04794 -19.04378 -19.03795
 Alpha  occ. eigenvalues --  -19.03552 -19.03525 -19.03205 -19.02065 -15.40251
 Alpha  occ. eigenvalues --  -14.58869 -14.40232 -14.38495 -14.36216 -14.35468
 Alpha  occ. eigenvalues --  -14.35144 -14.34884 -14.34035 -14.33110 -14.32623
 Alpha  occ. eigenvalues --  -14.31795 -14.30996 -14.29511 -14.29382 -14.29180
 Alpha  occ. eigenvalues --  -12.53883 -12.53813 -12.53802 -10.34911 -10.32263
 Alpha  occ. eigenvalues --  -10.30621 -10.29764 -10.29091 -10.27573 -10.27433
 Alpha  occ. eigenvalues --  -10.27279 -10.27035 -10.26996 -10.26881 -10.26879
 Alpha  occ. eigenvalues --  -10.26629 -10.26224 -10.25912 -10.25627 -10.24959
 Alpha  occ. eigenvalues --  -10.24561 -10.24317 -10.23497 -10.23357 -10.23274
 Alpha  occ. eigenvalues --  -10.23065 -10.22946 -10.22725 -10.22609 -10.22560
 Alpha  occ. eigenvalues --  -10.22509 -10.22482 -10.22107 -10.21833 -10.21433
 Alpha  occ. eigenvalues --  -10.20391 -10.20206 -10.19456 -10.18665 -10.18660
 Alpha  occ. eigenvalues --  -10.18534 -10.18414 -10.18397 -10.18344 -10.18333
 Alpha  occ. eigenvalues --  -10.18194 -10.17998 -10.17875 -10.17815 -10.17741
 Alpha  occ. eigenvalues --  -10.17637 -10.17479 -10.17360 -10.16690 -10.16287
 Alpha  occ. eigenvalues --  -10.15380 -10.14375  -1.77167  -1.14213  -1.07280
 Alpha  occ. eigenvalues --   -1.05299  -1.05248  -1.04908  -1.04626  -1.04481
 Alpha  occ. eigenvalues --   -1.04265  -1.03646  -1.03492  -1.02576  -1.01978
 Alpha  occ. eigenvalues --   -1.01917  -1.01711  -1.01247  -1.00193  -0.99757
 Alpha  occ. eigenvalues --   -0.99149  -0.98637  -0.97738  -0.97517  -0.97140
 Alpha  occ. eigenvalues --   -0.96674  -0.96236  -0.95778  -0.95146  -0.92927
 Alpha  occ. eigenvalues --   -0.92333  -0.92097  -0.91520  -0.91450  -0.91252
 Alpha  occ. eigenvalues --   -0.89253  -0.89112  -0.88974  -0.88643  -0.88493
 Alpha  occ. eigenvalues --   -0.87990  -0.87757  -0.87390  -0.86327  -0.85405
 Alpha  occ. eigenvalues --   -0.83950  -0.82976  -0.81399  -0.81372  -0.79994
 Alpha  occ. eigenvalues --   -0.78828  -0.78108  -0.77522  -0.77090  -0.75658
 Alpha  occ. eigenvalues --   -0.75447  -0.74331  -0.74145  -0.73386  -0.73084
 Alpha  occ. eigenvalues --   -0.72788  -0.72290  -0.71927  -0.71435  -0.70273
 Alpha  occ. eigenvalues --   -0.69784  -0.68907  -0.68759  -0.67864  -0.67761
 Alpha  occ. eigenvalues --   -0.67642  -0.66813  -0.65005  -0.64389  -0.63932
 Alpha  occ. eigenvalues --   -0.63723  -0.63132  -0.62235  -0.61944  -0.61749
 Alpha  occ. eigenvalues --   -0.61330  -0.60838  -0.60622  -0.60548  -0.59954
 Alpha  occ. eigenvalues --   -0.59137  -0.58720  -0.58546  -0.57501  -0.57097
 Alpha  occ. eigenvalues --   -0.56990  -0.56931  -0.56280  -0.55967  -0.55504
 Alpha  occ. eigenvalues --   -0.55047  -0.54920  -0.54746  -0.54639  -0.54255
 Alpha  occ. eigenvalues --   -0.54032  -0.53892  -0.53555  -0.53310  -0.53142
 Alpha  occ. eigenvalues --   -0.52587  -0.52527  -0.52352  -0.52044  -0.51014
 Alpha  occ. eigenvalues --   -0.50932  -0.50452  -0.50193  -0.50067  -0.49686
 Alpha  occ. eigenvalues --   -0.49509  -0.49421  -0.48602  -0.48449  -0.48221
 Alpha  occ. eigenvalues --   -0.48124  -0.47901  -0.47706  -0.47497  -0.47314
 Alpha  occ. eigenvalues --   -0.47176  -0.47059  -0.46989  -0.46729  -0.46378
 Alpha  occ. eigenvalues --   -0.46084  -0.45850  -0.45684  -0.45604  -0.45370
 Alpha  occ. eigenvalues --   -0.45209  -0.44795  -0.44722  -0.44596  -0.44374
 Alpha  occ. eigenvalues --   -0.44295  -0.44082  -0.43831  -0.43625  -0.43252
 Alpha  occ. eigenvalues --   -0.43041  -0.42988  -0.42830  -0.42752  -0.42690
 Alpha  occ. eigenvalues --   -0.42309  -0.42238  -0.42087  -0.41895  -0.41625
 Alpha  occ. eigenvalues --   -0.41564  -0.41487  -0.41274  -0.41225  -0.40972
 Alpha  occ. eigenvalues --   -0.40901  -0.40767  -0.40666  -0.40528  -0.40465
 Alpha  occ. eigenvalues --   -0.40410  -0.40245  -0.40124  -0.39928  -0.39816
 Alpha  occ. eigenvalues --   -0.39687  -0.39575  -0.39454  -0.39273  -0.39064
 Alpha  occ. eigenvalues --   -0.38919  -0.38832  -0.38704  -0.38640  -0.38463
 Alpha  occ. eigenvalues --   -0.38426  -0.38201  -0.38147  -0.38022  -0.37659
 Alpha  occ. eigenvalues --   -0.37504  -0.37341  -0.37296  -0.37214  -0.37114
 Alpha  occ. eigenvalues --   -0.36775  -0.36741  -0.36649  -0.36504  -0.36254
 Alpha  occ. eigenvalues --   -0.36184  -0.36124  -0.35816  -0.35523  -0.35281
 Alpha  occ. eigenvalues --   -0.34976  -0.34776  -0.34666  -0.34652  -0.34401
 Alpha  occ. eigenvalues --   -0.34231  -0.34146  -0.33975  -0.33616  -0.33073
 Alpha  occ. eigenvalues --   -0.32970  -0.32868  -0.32639  -0.32369  -0.32171
 Alpha  occ. eigenvalues --   -0.32149  -0.32085  -0.31702  -0.31416  -0.31238
 Alpha  occ. eigenvalues --   -0.31194  -0.30826  -0.30762  -0.30056  -0.29708
 Alpha  occ. eigenvalues --   -0.28734  -0.28141  -0.27966  -0.27560  -0.27206
 Alpha  occ. eigenvalues --   -0.26896  -0.26671  -0.26298  -0.26259  -0.26043
 Alpha  occ. eigenvalues --   -0.25937  -0.25713  -0.25194  -0.24996  -0.24612
 Alpha  occ. eigenvalues --   -0.24406  -0.24051  -0.23878  -0.23492  -0.23342
 Alpha  occ. eigenvalues --   -0.23211  -0.23028  -0.22859  -0.22696  -0.22635
 Alpha  occ. eigenvalues --   -0.22392  -0.22184  -0.21775  -0.21375  -0.21239
 Alpha  occ. eigenvalues --   -0.20704  -0.20447  -0.19787  -0.19683  -0.19286
 Alpha  occ. eigenvalues --   -0.18978  -0.18189  -0.18132
 Alpha virt. eigenvalues --   -0.10730  -0.05274  -0.03765  -0.02540  -0.01374
 Alpha virt. eigenvalues --   -0.01217  -0.00942  -0.00720  -0.00116   0.00307
 Alpha virt. eigenvalues --    0.00592   0.00873   0.01459   0.01991   0.02289

 Mulliken charges:
               1
     1  C    0.078695
     2  C    0.008664
     3  O   -0.300736
     4  H   -0.014176
     5  H    0.036207
     6  H    0.051706
     7  N   -0.109003
     8  C    0.115468
     9  C    0.070261
    10  O   -0.265481
    11  C    0.084341
    12  C    0.136665
    13  O   -0.369089
    14  O   -0.469205
    15  H    0.126924
    16  H    0.010916
    17  H    0.002207
    18  H   -0.005704
    19  N   -0.124652
    20  C    0.096733
    21  C    0.063407
    22  O   -0.278240
    23  C    0.012993
    24  C    0.008507
    25  C   -0.069672
    26  C    0.026337
    27  N    0.101057
    28  H    0.138276
    29  H   -0.006888
    30  H    0.029531
    31  H   -0.001093
    32  H    0.017918
    33  H    0.024275
    34  H    0.047111
    35  H    0.051657
    36  H    0.083161
    37  H    0.075134
    38  H    0.196659
    39  H    0.185558
    40  H    0.189871
    41  N   -0.166191
    42  C    0.139844
    43  C    0.066756
    44  O   -0.281035
    45  C    0.048894
    46  C    0.172657
    47  O   -0.454270
    48  O   -0.394083
    49  H    0.145678
    50  H    0.008146
    51  H   -0.009283
    52  H    0.009867
    53  N   -0.164812
    54  C    0.228626
    55  C    0.025624
    56  O   -0.285690
    57  H    0.147058
    58  H    0.018851
    59  H    0.048991
    60  N   -0.177396
    61  C    0.110930
    62  C    0.060637
    63  O   -0.303182
    64  C    0.093653
    65  C    0.075359
    66  N   -0.043468
    67  O   -0.357396
    68  H    0.148727
    69  H    0.020600
    70  H    0.053699
    71  H   -0.007761
    72  H    0.117440
    73  H    0.154548
    74  N   -0.173014
    75  C    0.230180
    76  C    0.027072
    77  O   -0.303410
    78  H    0.153907
    79  H    0.024443
    80  H    0.042336
    81  N   -0.127372
    82  C    0.190003
    83  C    0.085274
    84  O   -0.349639
    85  C    0.139733
    86  C   -0.029831
    87  C    0.014790
    88  C   -0.026464
    89  C   -0.042683
    90  C   -0.048354
    91  C    0.138661
    92  O   -0.201589
    93  H    0.151238
    94  H   -0.001561
    95  H    0.001049
    96  H   -0.022106
    97  H    0.000264
    98  H   -0.023855
    99  H   -0.020597
   100  H   -0.022598
   101  H    0.176158
   102  N   -0.091423
   103  C    0.124660
   104  C    0.066926
   105  O   -0.298971
   106  C   -0.161369
   107  C    0.011587
   108  C    0.115166
   109  C    0.033165
   110  H    0.119456
   111  H    0.031083
   112  H   -0.023533
   113  H   -0.006063
   114  H    0.019593
   115  H    0.041697
   116  H   -0.007928
   117  H    0.004846
   118  H   -0.000554
   119  H    0.001911
   120  H    0.017918
   121  N   -0.113037
   122  C    0.116246
   123  C    0.073977
   124  O   -0.281064
   125  C    0.238265
   126  O   -0.283935
   127  H    0.155052
   128  H    0.022317
   129  H    0.001092
   130  H   -0.037875
   131  H    0.178268
   132  N   -0.109768
   133  C    0.084461
   134  C    0.037007
   135  O   -0.254988
   136  C    0.033285
   137  H    0.111693
   138  H    0.025273
   139  H    0.019698
   140  H    0.007920
   141  H    0.044062
   142  N   -0.137939
   143  C    0.142512
   144  C    0.087881
   145  O   -0.292280
   146  C    0.017619
   147  H    0.105818
   148  H    0.016801
   149  H    0.008183
   150  H    0.007889
   151  H    0.029981
   152  N   -0.162213
   153  C    0.144602
   154  C    0.070868
   155  O   -0.288442
   156  C   -0.066750
   157  C    0.129055
   158  C    0.135731
   159  O   -0.412952
   160  O   -0.424683
   161  H    0.139585
   162  H   -0.045256
   163  H    0.032047
   164  H    0.020125
   165  H   -0.034715
   166  H   -0.048402
   167  N   -0.163171
   168  C    0.159227
   169  H    0.023017
   170  H    0.007451
   171  H    0.019308
   172  H    0.140318
   173  Ca   1.308329
   174  O   -0.331630
   175  H    0.154548
   176  H    0.151069
 Sum of Mulliken charges =  -0.00000

 Dipole moment (field-independent basis, Debye):
    X=             37.9580    Y=              2.5293    Z=            -16.2311  Tot=             41.3601
 Quadrupole moment (field-independent basis, Debye-Ang):
   XX=           -563.9898   YY=           -456.3277   ZZ=           -503.7220
   XY=            136.8200   XZ=            -72.6590   YZ=            -22.6392

 ESP charges:
               1
     1  C   -0.422836
     2  C    0.778421
     3  O   -0.600644
     4  H    0.068564
     5  H    0.129273
     6  H    0.140842
     7  N   -0.724514
     8  C    0.128836
     9  C    0.618750
    10  O   -0.528861
    11  C   -0.240642
    12  C    0.748010
    13  O   -0.668536
    14  O   -0.809120
    15  H    0.372586
    16  H    0.055662
    17  H    0.073961
    18  H    0.073455
    19  N   -0.191420
    20  C   -0.423329
    21  C    0.678221
    22  O   -0.593520
    23  C    0.329875
    24  C   -0.275651
    25  C    0.129743
    26  C   -0.064763
    27  N   -0.325174
    28  H    0.192397
    29  H    0.140279
    30  H   -0.010607
    31  H   -0.013413
    32  H    0.076476
    33  H    0.065924
    34  H    0.023410
    35  H    0.027873
    36  H    0.110361
    37  H    0.104552
    38  H    0.322965
    39  H    0.316576
    40  H    0.325801
    41  N   -0.456928
    42  C    0.181576
    43  C    0.364479
    44  O   -0.538954
    45  C   -0.412303
    46  C    0.856301
    47  O   -0.701955
    48  O   -0.734873
    49  H    0.290928
    50  H    0.082075
    51  H    0.093480
    52  H    0.090427
    53  N    0.127099
    54  C   -0.442422
    55  C    0.678830
    56  O   -0.588378
    57  H   -0.015610
    58  H    0.142868
    59  H    0.186828
    60  N   -0.389611
    61  C    0.103590
    62  C    0.295258
    63  O   -0.530321
    64  C   -0.393221
    65  C    0.777471
    66  N   -0.856522
    67  O   -0.707716
    68  H    0.191697
    69  H    0.105436
    70  H    0.163661
    71  H    0.108571
    72  H    0.375227
    73  H    0.425204
    74  N    0.063886
    75  C   -0.401790
    76  C    0.620853
    77  O   -0.574216
    78  H    0.176139
    79  H    0.156259
    80  H    0.159119
    81  N   -0.326126
    82  C   -0.127633
    83  C    0.782952
    84  O   -0.608680
    85  C   -0.055926
    86  C    0.011201
    87  C   -0.015328
    88  C   -0.173994
    89  C   -0.416878
    90  C   -0.256993
    91  C    0.440774
    92  O   -0.566011
    93  H    0.242621
    94  H    0.099573
    95  H    0.064544
    96  H    0.048292
    97  H    0.140451
    98  H    0.126909
    99  H    0.167542
   100  H    0.140118
   101  H    0.409722
   102  N   -0.579999
   103  C   -0.299877
   104  C    0.734426
   105  O   -0.586692
   106  C    0.340037
   107  C    0.216199
   108  C   -0.439842
   109  C   -0.384195
   110  H    0.297286
   111  H    0.170258
   112  H   -0.017150
   113  H   -0.035187
   114  H   -0.010674
   115  H    0.040423
   116  H    0.114495
   117  H    0.092501
   118  H    0.073416
   119  H    0.078700
   120  H    0.091359
   121  N   -0.441316
   122  C   -0.123442
   123  C    0.739982
   124  O   -0.548379
   125  C    0.191948
   126  O   -0.569259
   127  H    0.434211
   128  H    0.087776
   129  H    0.040410
   130  H   -0.016952
   131  H    0.399568
   132  N   -0.718034
   133  C    0.403209
   134  C    0.421547
   135  O   -0.513460
   136  C   -0.355606
   137  H    0.330973
   138  H    0.014200
   139  H    0.100428
   140  H    0.076927
   141  H    0.111899
   142  N   -0.463716
   143  C    0.225682
   144  C    0.327522
   145  O   -0.516430
   146  C   -0.295686
   147  H    0.269521
   148  H    0.074720
   149  H    0.065485
   150  H    0.077115
   151  H    0.100533
   152  N   -0.089008
   153  C   -0.351312
   154  C    0.578964
   155  O   -0.558812
   156  C    0.020294
   157  C    0.085819
   158  C    0.702611
   159  O   -0.749698
   160  O   -0.831187
   161  H    0.164891
   162  H    0.107165
   163  H    0.063655
   164  H    0.042122
   165  H   -0.040829
   166  H   -0.078765
   167  N   -0.105349
   168  C   -0.252612
   169  H    0.094645
   170  H    0.099510
   171  H    0.104857
   172  H    0.189814
   173  Ca   1.682421
   174  O   -0.908033
   175  H    0.467015
   176  H    0.395611
 Sum of ESP charges =   0.00000

 Normal termination of Gaussian 16 at Sat Sep 14 23:49:12 2019.
