 Gaussian 16, Revision A.03,
 Gaussian 16:  ES64L-G16RevA.03 25-Dec-2016

 ----------------------------------------------------------------------
 #b3lyp/svp scf=(tight,noincore) Test #IOP(5/87=12) Density=Current Pop
 =(MK,readradii) iop(6/33=2) iop(6/42=6)
 ----------------------------------------------------------------------

 -----------------
 CaMKII_loop3_91.0
 -----------------
 Symbolic Z-matrix:
 Charge =  0 Multiplicity = 1

                         Standard orientation:
 ---------------------------------------------------------------------
 Center     Atomic      Atomic             Coordinates (Angstroms)
 Number     Number       Type             X           Y           Z
 ---------------------------------------------------------------------
      1          6           0        2.436758    1.565665    5.354079
      2          6           0        1.661476    1.434699    4.061955
      3          8           0        2.201444    1.067381    3.013665
      4          1           0        3.157994    0.751480    5.428390
      5          1           0        2.963502    2.519799    5.367009
      6          1           0        1.748688    1.518316    6.198232
      7          7           0        0.332892    1.557253    4.103729
      8          6           0       -0.464434    1.736316    2.905394
      9          6           0       -0.404197    3.190104    2.435317
     10          8           0       -1.096230    4.068181    2.941942
     11          6           0       -1.906120    1.369238    3.242581
     12          6           0       -2.890173    1.016353    2.130641
     13          8           0       -4.081197    0.776507    2.439892
     14          8           0       -2.494014    0.991539    0.947407
     15          1           0       -0.085849    1.756285    4.993640
     16          1           0        0.006958    1.091769    2.169901
     17          1           0       -2.319580    2.089507    3.951428
     18          1           0       -1.922293    0.476370    3.856279
     19          7           0        0.434375    3.538185    1.464732
     20          6           0        0.726528    4.892185    1.038899
     21          6           0       -0.245142    5.466095    0.024411
     22          8           0       -0.203264    6.692236   -0.107968
     23          6           0        2.152868    4.766144    0.501715
     24          6           0        2.869517    6.102765    0.322663
     25          6           0        4.267170    6.030221   -0.271223
     26          6           0        4.303866    6.336730   -1.774788
     27          7           0        5.676246    6.125979   -2.283470
     28          1           0        0.866654    2.794458    0.925283
     29          1           0        0.743595    5.566143    1.895398
     30          1           0        2.209482    4.139838   -0.389428
     31          1           0        2.660850    4.123648    1.206381
     32          1           0        2.917133    6.468565    1.345611
     33          1           0        2.218803    6.694505   -0.322407
     34          1           0        4.807204    5.109702   -0.065532
     35          1           0        4.891632    6.792237    0.197050
     36          1           0        3.966944    7.363157   -1.902188
     37          1           0        3.647553    5.589910   -2.209083
     38          1           0        6.458842    6.539527   -1.793651
     39          1           0        5.859805    5.154479   -2.100729
     40          1           0        5.674929    6.321627   -3.272773
     41          7           0       -0.989298    4.623666   -0.684916
     42          6           0       -2.163623    5.170770   -1.341756
     43          6           0       -3.506600    4.986763   -0.652515
     44          8           0       -4.459575    5.619489   -1.098944
     45          6           0       -2.195811    4.689916   -2.793219
     46          6           0       -2.397897    3.190324   -2.941835
     47          8           0       -2.581557    2.430193   -1.973553
     48          8           0       -2.440681    2.773582   -4.114053
     49          1           0       -0.921127    3.626729   -0.540106
     50          1           0       -2.077391    6.258635   -1.376604
     51          1           0       -1.298104    4.972860   -3.343732
     52          1           0       -3.060272    5.211505   -3.212922
     53          7           0       -3.576816    4.119813    0.363933
     54          6           0       -4.769192    3.818932    1.134783
     55          6           0       -5.727587    3.036159    0.256805
     56          8           0       -6.833017    3.547342    0.086754
     57          1           0       -2.742575    3.565746    0.475526
     58          1           0       -5.246806    4.727753    1.493155
     59          1           0       -4.592551    3.201620    2.023784
     60          7           0       -5.394530    1.792129   -0.122484
     61          6           0       -6.330394    0.899728   -0.771389
     62          6           0       -6.779452   -0.362628   -0.050969
     63          8           0       -7.731644   -1.056449   -0.403734
     64          6           0       -5.832168    0.596196   -2.175754
     65          6           0       -4.584960   -0.283584   -2.208272
     66          7           0       -4.107358   -0.536458   -3.430954
     67          8           0       -4.011722   -0.726179   -1.213983
     68          1           0       -4.466962    1.429210    0.014657
     69          1           0       -7.215454    1.523349   -0.814575
     70          1           0       -5.510842    1.432218   -2.801707
     71          1           0       -6.700844    0.128896   -2.633937
     72          1           0       -4.558479   -0.085394   -4.214492
     73          1           0       -3.369254   -1.209102   -3.580124
     74          7           0       -6.103654   -0.646277    1.062557
     75          6           0       -6.365284   -1.694926    2.039688
     76          6           0       -5.354444   -2.829201    2.034785
     77          8           0       -5.686317   -3.833038    2.678812
     78          1           0       -5.397317   -0.014667    1.424573
     79          1           0       -7.362583   -2.100435    1.886526
     80          1           0       -6.422074   -1.089093    2.939822
     81          7           0       -4.225954   -2.755664    1.323376
     82          6           0       -3.084817   -3.636375    1.297790
     83          6           0       -1.719511   -2.968961    1.231461
     84          8           0       -1.535566   -2.080275    0.400196
     85          6           0       -3.104045   -4.658752    0.159513
     86          6           0       -4.286930   -4.616398   -0.768167
     87          6           0       -5.498024   -5.190338   -0.363635
     88          6           0       -4.111993   -3.906964   -1.963282
     89          6           0       -6.576020   -5.024746   -1.242216
     90          6           0       -5.143802   -3.855476   -2.900576
     91          6           0       -6.393584   -4.337998   -2.455473
     92          8           0       -7.441402   -4.335620   -3.326950
     93          1           0       -4.099888   -1.839954    0.908428
     94          1           0       -3.028313   -4.171473    2.249303
     95          1           0       -2.949178   -5.646680    0.593464
     96          1           0       -2.172324   -4.540128   -0.397464
     97          1           0       -5.608481   -5.698619    0.590069
     98          1           0       -3.147229   -3.521245   -2.267340
     99          1           0       -7.495040   -5.529279   -1.018725
    100          1           0       -5.073583   -3.318733   -3.845868
    101          1           0       -7.082783   -4.015079   -4.158303
    102          7           0       -0.750785   -3.462420    1.995312
    103          6           0        0.636605   -3.076681    1.810780
    104          6           0        1.356767   -3.958177    0.796417
    105          8           0        1.375821   -5.183711    0.909124
    106          6           0        1.401476   -3.121412    3.136401
    107          6           0        0.650932   -2.548680    4.336886
    108          6           0        2.799722   -2.555266    2.940227
    109          6           0        1.233036   -3.041403    5.662095
    110          1           0       -0.989248   -4.218402    2.616059
    111          1           0        0.587258   -2.033277    1.527454
    112          1           0        1.417019   -4.188931    3.375278
    113          1           0       -0.391841   -2.851140    4.295137
    114          1           0        0.610307   -1.454579    4.280394
    115          1           0        3.237158   -2.263397    3.902548
    116          1           0        3.441732   -3.318134    2.505881
    117          1           0        2.704345   -1.688941    2.275032
    118          1           0        2.288218   -2.825789    5.795517
    119          1           0        0.620321   -2.614038    6.456412
    120          1           0        1.163619   -4.127447    5.723662
    121          7           0        2.136852   -3.301065   -0.061121
    122          6           0        3.017496   -3.854949   -1.071556
    123          6           0        4.484993   -3.613985   -0.727767
    124          8           0        4.826900   -2.825024    0.152256
    125          6           0        2.711724   -3.357693   -2.481144
    126          8           0        2.961790   -1.976386   -2.523072
    127          1           0        2.277643   -2.317551    0.090135
    128          1           0        2.893665   -4.937468   -1.092004
    129          1           0        1.732620   -3.648972   -2.874349
    130          1           0        3.457002   -3.809800   -3.140129
    131          1           0        2.199320   -1.618420   -2.067661
    132          7           0        5.472767   -4.206973   -1.402502
    133          6           0        6.879945   -4.178697   -1.043685
    134          6           0        7.436769   -2.785945   -1.309371
    135          8           0        8.365918   -2.299729   -0.673465
    136          6           0        7.691604   -5.223426   -1.805099
    137          1           0        5.197029   -4.902578   -2.079778
    138          1           0        6.959855   -4.390853    0.020789
    139          1           0        8.754036   -5.200623   -1.543336
    140          1           0        7.332676   -6.221439   -1.559862
    141          1           0        7.754963   -4.992041   -2.867476
    142          7           0        6.886829   -2.128490   -2.336706
    143          6           0        7.282816   -0.774089   -2.659495
    144          6           0        6.941733    0.198413   -1.530601
    145          8           0        7.786320    0.972667   -1.096892
    146          6           0        6.735740   -0.351205   -4.020699
    147          1           0        6.320103   -2.649367   -2.999964
    148          1           0        8.373010   -0.772631   -2.668239
    149          1           0        7.075793    0.664931   -4.191670
    150          1           0        7.215116   -0.985373   -4.776893
    151          1           0        5.655901   -0.349638   -4.127209
    152          7           0        5.678366    0.162307   -1.103634
    153          6           0        5.203934    1.020951   -0.025281
    154          6           0        5.922067    0.647325    1.262347
    155          8           0        6.304193    1.593713    1.956630
    156          6           0        3.703291    0.906821    0.208264
    157          6           0        2.911651    1.253268   -1.053711
    158          6           0        1.443581    0.852607   -1.038201
    159          8           0        1.074567   -0.331531   -0.972284
    160          8           0        0.551164    1.728294   -1.030314
    161          1           0        4.995526   -0.349934   -1.638273
    162          1           0        5.485736    2.041718   -0.264702
    163          1           0        3.413284    1.719613    0.885512
    164          1           0        3.370184   -0.077455    0.518651
    165          1           0        3.403643    0.674027   -1.840301
    166          1           0        3.042728    2.305846   -1.301500
    167          7           0        6.147996   -0.623061    1.577270
    168          6           0        6.935999   -1.063893    2.713236
    169          1           0        7.548758   -1.916055    2.420898
    170          1           0        7.581045   -0.250663    3.046054
    171          1           0        6.270824   -1.356898    3.525667
    172          1           0        5.746868   -1.306182    0.959336
    173         20           0       -1.582742    0.036875   -1.304238
    174          8           0       -1.230444   -2.039570   -2.900126
    175          1           0       -0.867024   -1.891271   -3.767670
    176          1           0       -1.178292   -2.992673   -2.778163
 ---------------------------------------------------------------------

 SCF Done:  E(RB3LYP) =  -5333.58705405     A.U. after   19 cycles

 The electronic state is 1-A.
 Alpha  occ. eigenvalues -- -145.39215 -19.23255 -19.16768 -19.14903 -19.14185
 Alpha  occ. eigenvalues --  -19.12565 -19.12201 -19.11759 -19.11735 -19.10811
 Alpha  occ. eigenvalues --  -19.10678 -19.09349 -19.09196 -19.07657 -19.07542
 Alpha  occ. eigenvalues --  -19.06864 -19.06051 -19.05873 -19.04734 -19.03928
 Alpha  occ. eigenvalues --  -19.03598 -19.03481 -19.03335 -19.00340 -15.44929
 Alpha  occ. eigenvalues --  -14.58617 -14.40151 -14.38098 -14.37826 -14.37824
 Alpha  occ. eigenvalues --  -14.36789 -14.36455 -14.35381 -14.33772 -14.33141
 Alpha  occ. eigenvalues --  -14.33108 -14.32511 -14.29754 -14.29308 -14.29043
 Alpha  occ. eigenvalues --  -12.58555 -12.58504 -12.58496 -10.34772 -10.32899
 Alpha  occ. eigenvalues --  -10.30736 -10.30388 -10.30322 -10.30311 -10.29125
 Alpha  occ. eigenvalues --  -10.29080 -10.28324 -10.28299 -10.27351 -10.27082
 Alpha  occ. eigenvalues --  -10.27055 -10.26321 -10.26054 -10.25984 -10.25422
 Alpha  occ. eigenvalues --  -10.25122 -10.24657 -10.24223 -10.24011 -10.23637
 Alpha  occ. eigenvalues --  -10.23549 -10.23523 -10.23103 -10.22588 -10.22583
 Alpha  occ. eigenvalues --  -10.22480 -10.22428 -10.22112 -10.21975 -10.21096
 Alpha  occ. eigenvalues --  -10.20726 -10.20566 -10.20290 -10.20073 -10.19808
 Alpha  occ. eigenvalues --  -10.19567 -10.19035 -10.18961 -10.18917 -10.18673
 Alpha  occ. eigenvalues --  -10.18602 -10.18565 -10.18247 -10.18219 -10.18112
 Alpha  occ. eigenvalues --  -10.18028 -10.17945 -10.17931 -10.17379 -10.16874
 Alpha  occ. eigenvalues --  -10.16329 -10.13530  -1.81708  -1.13942  -1.09833
 Alpha  occ. eigenvalues --   -1.09325  -1.09095  -1.08389  -1.07958  -1.05939
 Alpha  occ. eigenvalues --   -1.05544  -1.05433  -1.05034  -1.04730  -1.04272
 Alpha  occ. eigenvalues --   -1.04081  -1.03520  -1.02496  -1.01311  -1.00150
 Alpha  occ. eigenvalues --   -0.99906  -0.99491  -0.98953  -0.97541  -0.97159
 Alpha  occ. eigenvalues --   -0.96767  -0.96678  -0.95873  -0.94862  -0.94561
 Alpha  occ. eigenvalues --   -0.94556  -0.94260  -0.93118  -0.91844  -0.91834
 Alpha  occ. eigenvalues --   -0.91226  -0.90147  -0.89464  -0.89389  -0.89388
 Alpha  occ. eigenvalues --   -0.88457  -0.87445  -0.86477  -0.86143  -0.85641
 Alpha  occ. eigenvalues --   -0.84124  -0.83351  -0.82470  -0.81199  -0.81116
 Alpha  occ. eigenvalues --   -0.79674  -0.78730  -0.78425  -0.77585  -0.76333
 Alpha  occ. eigenvalues --   -0.75607  -0.75253  -0.74053  -0.74026  -0.73688
 Alpha  occ. eigenvalues --   -0.72703  -0.72677  -0.72289  -0.71410  -0.70710
 Alpha  occ. eigenvalues --   -0.70485  -0.69598  -0.69095  -0.68585  -0.67974
 Alpha  occ. eigenvalues --   -0.67845  -0.67347  -0.65126  -0.64995  -0.64479
 Alpha  occ. eigenvalues --   -0.64271  -0.63539  -0.63282  -0.62687  -0.62373
 Alpha  occ. eigenvalues --   -0.62275  -0.61715  -0.61585  -0.61395  -0.61023
 Alpha  occ. eigenvalues --   -0.60707  -0.60637  -0.59335  -0.59287  -0.58952
 Alpha  occ. eigenvalues --   -0.58395  -0.57871  -0.57418  -0.56683  -0.56606
 Alpha  occ. eigenvalues --   -0.56099  -0.56041  -0.55767  -0.55658  -0.55347
 Alpha  occ. eigenvalues --   -0.54984  -0.54374  -0.54086  -0.53907  -0.53770
 Alpha  occ. eigenvalues --   -0.53605  -0.53357  -0.52909  -0.52604  -0.52009
 Alpha  occ. eigenvalues --   -0.51963  -0.51593  -0.51013  -0.50482  -0.50390
 Alpha  occ. eigenvalues --   -0.50349  -0.50066  -0.49810  -0.49541  -0.49455
 Alpha  occ. eigenvalues --   -0.49174  -0.49109  -0.48596  -0.48342  -0.47930
 Alpha  occ. eigenvalues --   -0.47762  -0.47569  -0.47308  -0.47032  -0.46820
 Alpha  occ. eigenvalues --   -0.46765  -0.46569  -0.46473  -0.46408  -0.46353
 Alpha  occ. eigenvalues --   -0.46279  -0.46048  -0.45588  -0.45456  -0.45323
 Alpha  occ. eigenvalues --   -0.45213  -0.44957  -0.44915  -0.44648  -0.44452
 Alpha  occ. eigenvalues --   -0.44184  -0.43907  -0.43828  -0.43694  -0.43505
 Alpha  occ. eigenvalues --   -0.43423  -0.43183  -0.43085  -0.43007  -0.42886
 Alpha  occ. eigenvalues --   -0.42657  -0.42565  -0.42524  -0.42280  -0.42077
 Alpha  occ. eigenvalues --   -0.41870  -0.41811  -0.41711  -0.41526  -0.41463
 Alpha  occ. eigenvalues --   -0.41179  -0.41106  -0.40951  -0.40672  -0.40608
 Alpha  occ. eigenvalues --   -0.40432  -0.40304  -0.40218  -0.40054  -0.40020
 Alpha  occ. eigenvalues --   -0.39820  -0.39530  -0.39492  -0.39333  -0.39168
 Alpha  occ. eigenvalues --   -0.39058  -0.38883  -0.38717  -0.38650  -0.38603
 Alpha  occ. eigenvalues --   -0.38467  -0.38445  -0.38195  -0.38053  -0.37895
 Alpha  occ. eigenvalues --   -0.37516  -0.37442  -0.37269  -0.37106  -0.36832
 Alpha  occ. eigenvalues --   -0.36792  -0.36708  -0.36412  -0.36179  -0.36016
 Alpha  occ. eigenvalues --   -0.35721  -0.35466  -0.35310  -0.35046  -0.34871
 Alpha  occ. eigenvalues --   -0.34827  -0.34563  -0.34331  -0.34246  -0.34033
 Alpha  occ. eigenvalues --   -0.33963  -0.33691  -0.33521  -0.33180  -0.32999
 Alpha  occ. eigenvalues --   -0.32642  -0.32625  -0.32488  -0.32299  -0.32161
 Alpha  occ. eigenvalues --   -0.31977  -0.31838  -0.31638  -0.30584  -0.30171
 Alpha  occ. eigenvalues --   -0.29939  -0.29871  -0.29723  -0.29295  -0.29212
 Alpha  occ. eigenvalues --   -0.28458  -0.28013  -0.27931  -0.27733  -0.27603
 Alpha  occ. eigenvalues --   -0.27159  -0.26965  -0.26913  -0.25805  -0.25758
 Alpha  occ. eigenvalues --   -0.25331  -0.25194  -0.25163  -0.24667  -0.23655
 Alpha  occ. eigenvalues --   -0.23614  -0.23418  -0.23209  -0.23064  -0.22683
 Alpha  occ. eigenvalues --   -0.22656  -0.22385  -0.22204  -0.21620  -0.21025
 Alpha  occ. eigenvalues --   -0.20502  -0.20205  -0.19927  -0.19680  -0.19259
 Alpha  occ. eigenvalues --   -0.18964  -0.17695  -0.16538
 Alpha virt. eigenvalues --   -0.10435  -0.05298  -0.05093  -0.04209  -0.02877
 Alpha virt. eigenvalues --   -0.01284  -0.01104  -0.01014  -0.00805  -0.00561
 Alpha virt. eigenvalues --   -0.00048   0.00469   0.00724   0.00988   0.01339

 Mulliken charges:
               1
     1  C    0.079228
     2  C    0.028442
     3  O   -0.307333
     4  H    0.039598
     5  H    0.046035
     6  H    0.000251
     7  N   -0.136017
     8  C    0.146990
     9  C    0.045256
    10  O   -0.275364
    11  C    0.057431
    12  C    0.171041
    13  O   -0.387893
    14  O   -0.459901
    15  H    0.115931
    16  H   -0.008561
    17  H    0.019760
    18  H   -0.007144
    19  N   -0.146621
    20  C    0.161762
    21  C    0.084583
    22  O   -0.303527
    23  C   -0.067755
    24  C    0.061790
    25  C   -0.035953
    26  C    0.009079
    27  N    0.082210
    28  H    0.144315
    29  H    0.016283
    30  H   -0.003520
    31  H    0.029453
    32  H    0.019794
    33  H    0.031280
    34  H    0.023954
    35  H    0.013867
    36  H    0.094833
    37  H    0.089764
    38  H    0.190358
    39  H    0.188584
    40  H    0.199058
    41  N   -0.139579
    42  C    0.101441
    43  C    0.061588
    44  O   -0.277890
    45  C    0.075941
    46  C    0.097652
    47  O   -0.456798
    48  O   -0.389691
    49  H    0.149105
    50  H    0.015801
    51  H   -0.016701
    52  H    0.028165
    53  N   -0.149779
    54  C    0.246786
    55  C    0.037287
    56  O   -0.279803
    57  H    0.120076
    58  H    0.004430
    59  H    0.036043
    60  N   -0.166570
    61  C    0.130083
    62  C    0.066007
    63  O   -0.281507
    64  C    0.054131
    65  C    0.056054
    66  N   -0.040401
    67  O   -0.355602
    68  H    0.144826
    69  H    0.020758
    70  H    0.058359
    71  H    0.040968
    72  H    0.138048
    73  H    0.099997
    74  N   -0.201458
    75  C    0.217583
    76  C    0.048861
    77  O   -0.318356
    78  H    0.139782
    79  H    0.033181
    80  H    0.037974
    81  N   -0.114348
    82  C    0.163117
    83  C    0.082611
    84  O   -0.361915
    85  C    0.141627
    86  C   -0.029437
    87  C    0.035158
    88  C    0.043709
    89  C   -0.002745
    90  C   -0.044906
    91  C    0.157939
    92  O   -0.184156
    93  H    0.156406
    94  H   -0.020634
    95  H   -0.005855
    96  H   -0.031859
    97  H   -0.005423
    98  H   -0.126852
    99  H   -0.019739
   100  H   -0.058053
   101  H    0.161128
   102  N   -0.111468
   103  C    0.121870
   104  C    0.086409
   105  O   -0.275494
   106  C   -0.129596
   107  C    0.021129
   108  C    0.076614
   109  C    0.036836
   110  H    0.136560
   111  H    0.020521
   112  H   -0.019820
   113  H   -0.022510
   114  H    0.005960
   115  H    0.007649
   116  H    0.021418
   117  H    0.029097
   118  H    0.007249
   119  H    0.014247
   120  H    0.000700
   121  N   -0.123338
   122  C    0.081401
   123  C    0.097367
   124  O   -0.280131
   125  C    0.265161
   126  O   -0.329401
   127  H    0.145172
   128  H    0.018276
   129  H   -0.006291
   130  H   -0.029176
   131  H    0.157866
   132  N   -0.131943
   133  C    0.083397
   134  C    0.067084
   135  O   -0.249648
   136  C    0.047462
   137  H    0.112127
   138  H    0.025510
   139  H    0.043600
   140  H    0.037491
   141  H    0.002805
   142  N   -0.138521
   143  C    0.104016
   144  C    0.038566
   145  O   -0.254216
   146  C    0.040177
   147  H    0.105089
   148  H    0.009920
   149  H    0.009520
   150  H    0.025349
   151  H    0.022943
   152  N   -0.156098
   153  C    0.140452
   154  C    0.062506
   155  O   -0.301448
   156  C    0.026949
   157  C    0.079755
   158  C    0.146038
   159  O   -0.429975
   160  O   -0.393996
   161  H    0.122517
   162  H   -0.057419
   163  H    0.040015
   164  H    0.019631
   165  H   -0.036335
   166  H   -0.045967
   167  N   -0.148872
   168  C    0.142391
   169  H    0.020028
   170  H    0.034833
   171  H    0.012663
   172  H    0.127410
   173  Ca   1.265630
   174  O   -0.273665
   175  H    0.191513
   176  H    0.212536
 Sum of Mulliken charges =  -0.00000

 Dipole moment (field-independent basis, Debye):
    X=             36.2330    Y=             -2.0709    Z=            -15.1143  Tot=             39.3136
 Quadrupole moment (field-independent basis, Debye-Ang):
   XX=           -653.2476   YY=           -495.3167   ZZ=           -492.7776
   XY=            129.6337   XZ=            -65.9051   YZ=             -0.6210

 ESP charges:
               1
     1  C   -0.440332
     2  C    0.771051
     3  O   -0.654494
     4  H    0.135777
     5  H    0.133157
     6  H    0.092281
     7  N   -0.655278
     8  C    0.096322
     9  C    0.569152
    10  O   -0.546976
    11  C   -0.096578
    12  C    0.705086
    13  O   -0.660223
    14  O   -0.853561
    15  H    0.346956
    16  H    0.121871
    17  H    0.053787
    18  H    0.024479
    19  N   -0.347148
    20  C   -0.287825
    21  C    0.607644
    22  O   -0.560845
    23  C    0.387898
    24  C   -0.502667
    25  C    0.386892
    26  C   -0.072707
    27  N   -0.332810
    28  H    0.196163
    29  H    0.170174
    30  H   -0.051463
    31  H   -0.019685
    32  H    0.124295
    33  H    0.117750
    34  H   -0.083159
    35  H   -0.044596
    36  H    0.111997
    37  H    0.091817
    38  H    0.321353
    39  H    0.308879
    40  H    0.335221
    41  N   -0.504786
    42  C    0.205226
    43  C    0.419624
    44  O   -0.525352
    45  C   -0.257704
    46  C    0.870258
    47  O   -0.894675
    48  O   -0.744244
    49  H    0.325860
    50  H    0.046286
    51  H    0.043472
    52  H    0.077130
    53  N   -0.166714
    54  C   -0.222483
    55  C    0.717695
    56  O   -0.575708
    57  H    0.117510
    58  H    0.113051
    59  H    0.098346
    60  N   -0.831347
    61  C    0.290603
    62  C    0.194824
    63  O   -0.504556
    64  C   -0.364359
    65  C    0.786289
    66  N   -0.918531
    67  O   -0.536460
    68  H    0.777106
    69  H    0.077475
    70  H    0.144378
    71  H    0.082832
    72  H    0.400810
    73  H    0.387304
    74  N    0.160360
    75  C   -0.379051
    76  C    0.686142
    77  O   -0.590262
    78  H    0.016765
    79  H    0.154238
    80  H    0.136657
    81  N   -0.339700
    82  C   -0.107966
    83  C    0.959724
    84  O   -0.702913
    85  C    0.099742
    86  C   -0.178296
    87  C   -0.121350
    88  C    0.086198
    89  C   -0.225721
    90  C   -0.502905
    91  C    0.489994
    92  O   -0.561006
    93  H    0.162524
    94  H    0.054757
    95  H    0.021963
    96  H   -0.015860
    97  H    0.174145
    98  H    0.019185
    99  H    0.153675
   100  H    0.167717
   101  H    0.400541
   102  N   -0.920641
   103  C   -0.000561
   104  C    0.712810
   105  O   -0.564125
   106  C    0.436442
   107  C    0.149350
   108  C   -0.475412
   109  C   -0.348755
   110  H    0.410701
   111  H    0.112316
   112  H   -0.081971
   113  H   -0.015297
   114  H   -0.019437
   115  H    0.140593
   116  H    0.096446
   117  H    0.039031
   118  H    0.072124
   119  H    0.085411
   120  H    0.077280
   121  N   -0.572368
   122  C    0.137762
   123  C    0.422664
   124  O   -0.411904
   125  C    0.158997
   126  O   -0.543180
   127  H    0.309407
   128  H    0.031191
   129  H    0.013415
   130  H    0.009462
   131  H    0.336357
   132  N   -0.329484
   133  C    0.060445
   134  C    0.451575
   135  O   -0.503268
   136  C   -0.301227
   137  H    0.224561
   138  H    0.093723
   139  H    0.125842
   140  H    0.102958
   141  H    0.072161
   142  N   -0.297810
   143  C    0.116437
   144  C    0.326139
   145  O   -0.492167
   146  C   -0.354325
   147  H    0.235585
   148  H    0.076210
   149  H    0.101959
   150  H    0.099614
   151  H    0.093336
   152  N   -0.054767
   153  C   -0.295273
   154  C    0.475780
   155  O   -0.560435
   156  C   -0.135554
   157  C   -0.271113
   158  C    0.884781
   159  O   -0.775226
   160  O   -0.792818
   161  H    0.201257
   162  H    0.149682
   163  H    0.146176
   164  H    0.127069
   165  H    0.003370
   166  H    0.082140
   167  N   -0.040685
   168  C   -0.125929
   169  H    0.058099
   170  H    0.092906
   171  H    0.040806
   172  H    0.097275
   173  Ca   1.577899
   174  O   -0.785491
   175  H    0.415467
   176  H    0.436101
 Sum of ESP charges =   0.00000

 Normal termination of Gaussian 16 at Sun Sep 15 01:09:48 2019.
