 Gaussian 09, Revision D.01,
 Gaussian 09:  ES64L-G09RevD.01 24-Apr-2013

 ----------------------------------------------------------------------
 #maxdisk=50GB #B3LYP/SVP Density=Current scf=(tight) #IOP(5/87=12)Pop=
 (MK,readradii) iop(6/33=2) iop(6/42=6)
 ----------------------------------------------------------------------

 ------------
 SOL molecule
 ------------
 Symbolic Z-matrix:
 Charge =  0 Multiplicity = 1

                         Standard orientation:
 ---------------------------------------------------------------------
 Center     Atomic      Atomic             Coordinates (Angstroms)
 Number     Number       Type             X           Y           Z
 ---------------------------------------------------------------------
      1          6           0        2.025487    1.505136    5.758718
      2          6           0        1.430305    1.567236    4.359182
      3          8           0        2.180655    1.553392    3.391823
      4          1           0        3.017531    1.055946    5.711030
      5          1           0        2.101942    2.513186    6.166150
      6          1           0        1.384793    0.900830    6.400218
      7          7           0        0.110779    1.703526    4.195858
      8          6           0       -0.547607    1.748539    2.908184
      9          6           0       -0.358643    3.135495    2.298884
     10          8           0       -1.020154    4.119967    2.626174
     11          6           0       -2.018274    1.405922    3.154865
     12          6           0       -2.870335    1.473635    1.904262
     13          8           0       -2.271009    1.662016    0.830614
     14          8           0       -4.068274    1.133984    2.039092
     15          1           0       -0.401560    1.672606    5.069157
     16          1           0       -0.122475    0.960165    2.285986
     17          1           0       -2.322390    2.162918    3.872826
     18          1           0       -2.128667    0.377255    3.512857
     19          7           0        0.639184    3.309595    1.424968
     20          6           0        1.224799    4.555647    0.969983
     21          6           0        0.231686    5.476943    0.267104
     22          8           0        0.343757    6.679730    0.469450
     23          6           0        2.359891    4.231124    0.009852
     24          6           0        3.376005    5.371319   -0.046429
     25          6           0        4.474325    4.989795   -1.028892
     26          6           0        5.328014    6.205382   -1.346006
     27          7           0        6.414548    5.889792   -2.298238
     28          1           0        0.986580    2.472705    0.987441
     29          1           0        1.609648    4.990970    1.893988
     30          1           0        1.913481    4.171167   -0.982783
     31          1           0        2.914544    3.325833    0.265409
     32          1           0        3.738845    5.621774    0.951328
     33          1           0        2.902230    6.322369   -0.274331
     34          1           0        4.006640    4.508057   -1.890576
     35          1           0        5.139109    4.210359   -0.631096
     36          1           0        5.713416    6.627678   -0.416527
     37          1           0        4.673354    6.957968   -1.790455
     38          1           0        6.904078    6.687497   -2.659659
     39          1           0        7.034024    5.139035   -2.046814
     40          1           0        5.918332    5.494668   -3.078781
     41          7           0       -0.712533    4.921230   -0.503242
     42          6           0       -1.760025    5.538378   -1.285092
     43          6           0       -3.137091    5.466061   -0.642083
     44          8           0       -4.072655    6.002066   -1.226479
     45          6           0       -1.865721    4.974396   -2.689639
     46          6           0       -2.070737    3.468982   -2.817298
     47          8           0       -1.774122    2.758005   -1.835753
     48          8           0       -2.480319    3.006433   -3.913196
     49          1           0       -0.802194    3.923751   -0.420200
     50          1           0       -1.586238    6.601365   -1.494750
     51          1           0       -0.951252    5.193726   -3.228285
     52          1           0       -2.718931    5.471928   -3.154713
     53          7           0       -3.262501    4.696785    0.444327
     54          6           0       -4.557891    4.363316    1.023864
     55          6           0       -5.567721    3.556360    0.210253
     56          8           0       -6.608884    4.112023   -0.134013
     57          1           0       -2.457944    4.199568    0.787201
     58          1           0       -5.058458    5.236068    1.416084
     59          1           0       -4.387342    3.750407    1.904464
     60          7           0       -5.287461    2.339395   -0.248170
     61          6           0       -6.169426    1.496408   -1.032586
     62          6           0       -6.568124    0.120367   -0.522242
     63          8           0       -7.257769   -0.694415   -1.131110
     64          6           0       -5.522226    1.332616   -2.401164
     65          6           0       -4.496333    0.217135   -2.492525
     66          7           0       -4.271992   -0.314728   -3.689602
     67          8           0       -3.847146   -0.247939   -1.545973
     68          1           0       -4.429660    1.945291    0.115507
     69          1           0       -7.055409    2.081452   -1.304353
     70          1           0       -5.033015    2.253087   -2.726134
     71          1           0       -6.343761    1.096037   -3.082052
     72          1           0       -4.637028    0.117641   -4.523512
     73          1           0       -3.433055   -0.854654   -3.871983
     74          7           0       -6.121461   -0.141476    0.709233
     75          6           0       -6.558760   -1.218905    1.568778
     76          6           0       -5.641289   -2.434735    1.468770
     77          8           0       -5.776975   -3.370927    2.250329
     78          1           0       -5.646352    0.577586    1.221601
     79          1           0       -7.538927   -1.535734    1.206160
     80          1           0       -6.629568   -0.753164    2.556438
     81          7           0       -4.512939   -2.235834    0.786814
     82          6           0       -3.473342   -3.240063    0.666552
     83          6           0       -2.107939   -2.638873    0.936263
     84          8           0       -1.906684   -1.543942    0.416242
     85          6           0       -3.537056   -3.875117   -0.728707
     86          6           0       -4.858748   -4.535903   -1.016794
     87          6           0       -5.169893   -5.674867   -0.261645
     88          6           0       -5.741584   -3.911813   -1.908371
     89          6           0       -6.485023   -6.138925   -0.301427
     90          6           0       -7.022186   -4.493849   -1.994938
     91          6           0       -7.438008   -5.535885   -1.144671
     92          8           0       -8.667146   -6.090872   -1.299940
     93          1           0       -4.371069   -1.434332    0.195572
     94          1           0       -3.628522   -4.104462    1.310395
     95          1           0       -2.739454   -4.617417   -0.657837
     96          1           0       -3.362688   -3.094334   -1.463875
     97          1           0       -4.400341   -6.018433    0.413894
     98          1           0       -5.441908   -3.098715   -2.542773
     99          1           0       -6.859395   -6.983998    0.264433
    100          1           0       -7.752682   -4.094833   -2.670336
    101          1           0       -9.326012   -5.634479   -1.827767
    102          7           0       -1.126010   -3.294202    1.560811
    103          6           0        0.280671   -2.944821    1.482832
    104          6           0        0.964820   -3.813565    0.442243
    105          8           0        0.757715   -5.031160    0.470004
    106          6           0        0.974698   -3.013308    2.838906
    107          6           0        0.094559   -2.616437    4.018502
    108          6           0        2.210089   -2.124941    2.782233
    109          6           0        0.547999   -3.202529    5.354462
    110          1           0       -1.338906   -4.101520    2.127125
    111          1           0        0.365415   -1.900090    1.202196
    112          1           0        1.188542   -4.067931    3.029277
    113          1           0       -0.868860   -3.102422    3.836178
    114          1           0       -0.194344   -1.563528    4.014312
    115          1           0        1.982565   -1.075039    2.563744
    116          1           0        2.823021   -2.214480    3.676268
    117          1           0        2.930426   -2.506006    2.058283
    118          1           0       -0.246413   -3.084941    6.098224
    119          1           0        0.749263   -4.260012    5.192224
    120          1           0        1.482794   -2.787021    5.719033
    121          7           0        1.939938   -3.239768   -0.263662
    122          6           0        2.902016   -3.978473   -1.059415
    123          6           0        4.365820   -3.914122   -0.615863
    124          8           0        4.775702   -3.142801    0.246668
    125          6           0        2.726165   -3.621814   -2.531037
    126          8           0        3.050893   -2.259514   -2.682997
    127          1           0        2.184595   -2.258057   -0.198963
    128          1           0        2.642434   -5.039969   -1.075006
    129          1           0        1.704295   -3.813805   -2.848087
    130          1           0        3.381979   -4.266150   -3.126049
    131          1           0        2.574924   -1.915121   -3.441051
    132          7           0        5.324121   -4.701489   -1.088633
    133          6           0        6.719690   -4.601563   -0.699656
    134          6           0        7.385400   -3.285901   -1.070147
    135          8           0        8.155895   -2.800925   -0.249638
    136          6           0        7.500843   -5.779710   -1.262478
    137          1           0        5.119063   -5.464389   -1.714361
    138          1           0        6.900865   -4.674197    0.369596
    139          1           0        7.424715   -5.862181   -2.346131
    140          1           0        8.577606   -5.764808   -1.116676
    141          1           0        7.064183   -6.685160   -0.834005
    142          7           0        7.073280   -2.599738   -2.182245
    143          6           0        7.490251   -1.264023   -2.534666
    144          6           0        7.012285   -0.168730   -1.596859
    145          8           0        7.721693    0.804416   -1.362064
    146          6           0        7.083284   -0.923226   -3.965867
    147          1           0        6.466525   -3.034483   -2.863233
    148          1           0        8.577414   -1.342765   -2.484899
    149          1           0        7.286616   -1.688517   -4.711645
    150          1           0        5.999447   -0.802092   -3.878550
    151          1           0        7.517253    0.070008   -4.130357
    152          7           0        5.957614   -0.421543   -0.831448
    153          6           0        5.407097    0.539104    0.103800
    154          6           0        6.012495    0.338212    1.482545
    155          8           0        6.242887    1.328372    2.171604
    156          6           0        3.901366    0.313465    0.230536
    157          6           0        3.259186    0.860978   -1.032014
    158          6           0        1.736249    0.826139   -0.960947
    159          8           0        1.045026    1.673404   -1.559990
    160          8           0        1.145269   -0.109897   -0.370457
    161          1           0        5.377322   -1.235094   -1.010037
    162          1           0        5.668053    1.535666   -0.254483
    163          1           0        3.451714    0.929344    1.010988
    164          1           0        3.671867   -0.747759    0.285620
    165          1           0        3.534375    0.290716   -1.923739
    166          1           0        3.593203    1.886655   -1.163992
    167          7           0        6.126988   -0.901441    1.955039
    168          6           0        6.763360   -1.251882    3.212227
    169          1           0        7.747657   -1.675936    3.015070
    170          1           0        6.870495   -0.358489    3.827770
    171          1           0        6.151656   -1.984878    3.738170
    172          1           0        5.656884   -1.631223    1.434923
    173         20           0       -1.153379    0.440051   -1.222264
    174          8           0       -0.464346   -1.885845   -2.205544
    175          1           0       -0.765658   -2.780560   -2.349754
    176          1           0        0.280132   -1.781092   -2.798737
 ---------------------------------------------------------------------

 SCF Done:  E(RB3LYP) =  -5333.56476704     A.U. after   19 cycles

 The electronic state is 1-A.
 Alpha  occ. eigenvalues -- -145.36534 -19.21100 -19.20558 -19.15021 -19.14072
 Alpha  occ. eigenvalues --  -19.11808 -19.11771 -19.10956 -19.10779 -19.10560
 Alpha  occ. eigenvalues --  -19.09255 -19.08364 -19.07752 -19.07180 -19.06984
 Alpha  occ. eigenvalues --  -19.05758 -19.05695 -19.05106 -19.05012 -19.03333
 Alpha  occ. eigenvalues --  -19.03165 -19.03102 -19.02399 -19.00613 -15.42324
 Alpha  occ. eigenvalues --  -14.58198 -14.41210 -14.38719 -14.38290 -14.36621
 Alpha  occ. eigenvalues --  -14.36448 -14.35477 -14.34210 -14.33267 -14.32533
 Alpha  occ. eigenvalues --  -14.31200 -14.30544 -14.29373 -14.29258 -14.28818
 Alpha  occ. eigenvalues --  -12.55965 -12.55892 -12.55858 -10.34404 -10.34163
 Alpha  occ. eigenvalues --  -10.30929 -10.30311 -10.30099 -10.29474 -10.29353
 Alpha  occ. eigenvalues --  -10.29027 -10.28506 -10.27855 -10.27381 -10.26812
 Alpha  occ. eigenvalues --  -10.26541 -10.26038 -10.25905 -10.25700 -10.24626
 Alpha  occ. eigenvalues --  -10.24114 -10.24104 -10.23528 -10.23185 -10.23168
 Alpha  occ. eigenvalues --  -10.23104 -10.23038 -10.22988 -10.21912 -10.21832
 Alpha  occ. eigenvalues --  -10.21775 -10.21691 -10.21486 -10.21079 -10.21050
 Alpha  occ. eigenvalues --  -10.20668 -10.19838 -10.19614 -10.19359 -10.19351
 Alpha  occ. eigenvalues --  -10.19328 -10.18419 -10.18380 -10.18223 -10.18118
 Alpha  occ. eigenvalues --  -10.17916 -10.17912 -10.17316 -10.17218 -10.17031
 Alpha  occ. eigenvalues --  -10.16983 -10.16982 -10.16875 -10.16607 -10.16580
 Alpha  occ. eigenvalues --  -10.15404 -10.12923  -1.79315  -1.13666  -1.09499
 Alpha  occ. eigenvalues --   -1.08530  -1.07734  -1.07378  -1.06868  -1.06065
 Alpha  occ. eigenvalues --   -1.05420  -1.04748  -1.04034  -1.03858  -1.03742
 Alpha  occ. eigenvalues --   -1.03089  -1.02651  -1.01452  -1.00352  -1.00196
 Alpha  occ. eigenvalues --   -0.98859  -0.98699  -0.98515  -0.98015  -0.97053
 Alpha  occ. eigenvalues --   -0.96604  -0.96203  -0.95619  -0.95334  -0.95010
 Alpha  occ. eigenvalues --   -0.93251  -0.93184  -0.93128  -0.90725  -0.90184
 Alpha  occ. eigenvalues --   -0.89951  -0.89502  -0.89413  -0.88934  -0.88224
 Alpha  occ. eigenvalues --   -0.87892  -0.87375  -0.86111  -0.85661  -0.85075
 Alpha  occ. eigenvalues --   -0.83678  -0.82895  -0.82057  -0.81228  -0.80791
 Alpha  occ. eigenvalues --   -0.80289  -0.79534  -0.77202  -0.76567  -0.75426
 Alpha  occ. eigenvalues --   -0.75069  -0.74817  -0.73471  -0.73446  -0.72324
 Alpha  occ. eigenvalues --   -0.72158  -0.71723  -0.71449  -0.71216  -0.71198
 Alpha  occ. eigenvalues --   -0.70300  -0.69555  -0.68961  -0.68522  -0.67415
 Alpha  occ. eigenvalues --   -0.67237  -0.67079  -0.65802  -0.64429  -0.63844
 Alpha  occ. eigenvalues --   -0.63753  -0.63565  -0.63242  -0.63026  -0.62788
 Alpha  occ. eigenvalues --   -0.62077  -0.61117  -0.60695  -0.60623  -0.60432
 Alpha  occ. eigenvalues --   -0.60199  -0.60063  -0.59575  -0.58507  -0.57928
 Alpha  occ. eigenvalues --   -0.57856  -0.57648  -0.57251  -0.56581  -0.56401
 Alpha  occ. eigenvalues --   -0.56090  -0.55755  -0.55012  -0.54909  -0.54719
 Alpha  occ. eigenvalues --   -0.54604  -0.53961  -0.53917  -0.53496  -0.53143
 Alpha  occ. eigenvalues --   -0.52954  -0.52901  -0.52485  -0.52323  -0.52261
 Alpha  occ. eigenvalues --   -0.51730  -0.51420  -0.51321  -0.50857  -0.50396
 Alpha  occ. eigenvalues --   -0.49744  -0.49567  -0.49248  -0.49182  -0.48745
 Alpha  occ. eigenvalues --   -0.48552  -0.48417  -0.48067  -0.47814  -0.47527
 Alpha  occ. eigenvalues --   -0.47309  -0.47234  -0.46965  -0.46711  -0.46474
 Alpha  occ. eigenvalues --   -0.46283  -0.46134  -0.45920  -0.45809  -0.45720
 Alpha  occ. eigenvalues --   -0.45521  -0.45425  -0.45092  -0.44812  -0.44659
 Alpha  occ. eigenvalues --   -0.44488  -0.44324  -0.44162  -0.43922  -0.43828
 Alpha  occ. eigenvalues --   -0.43741  -0.43656  -0.43384  -0.43270  -0.43036
 Alpha  occ. eigenvalues --   -0.42878  -0.42768  -0.42533  -0.42472  -0.42217
 Alpha  occ. eigenvalues --   -0.42059  -0.41885  -0.41760  -0.41654  -0.41494
 Alpha  occ. eigenvalues --   -0.41341  -0.41256  -0.41064  -0.40893  -0.40816
 Alpha  occ. eigenvalues --   -0.40637  -0.40596  -0.40468  -0.40380  -0.40146
 Alpha  occ. eigenvalues --   -0.39920  -0.39740  -0.39693  -0.39298  -0.39180
 Alpha  occ. eigenvalues --   -0.39138  -0.38961  -0.38872  -0.38734  -0.38593
 Alpha  occ. eigenvalues --   -0.38519  -0.38267  -0.38195  -0.38143  -0.38001
 Alpha  occ. eigenvalues --   -0.37768  -0.37496  -0.37428  -0.37367  -0.37089
 Alpha  occ. eigenvalues --   -0.37052  -0.36997  -0.36789  -0.36386  -0.36349
 Alpha  occ. eigenvalues --   -0.36084  -0.36004  -0.35814  -0.35699  -0.35607
 Alpha  occ. eigenvalues --   -0.35536  -0.35132  -0.34872  -0.34833  -0.34585
 Alpha  occ. eigenvalues --   -0.34550  -0.34444  -0.34217  -0.34099  -0.33594
 Alpha  occ. eigenvalues --   -0.33521  -0.33493  -0.33304  -0.32952  -0.32651
 Alpha  occ. eigenvalues --   -0.32373  -0.32324  -0.32191  -0.31927  -0.31678
 Alpha  occ. eigenvalues --   -0.31515  -0.30961  -0.30893  -0.30794  -0.30309
 Alpha  occ. eigenvalues --   -0.29777  -0.29636  -0.29034  -0.28251  -0.28184
 Alpha  occ. eigenvalues --   -0.28166  -0.27774  -0.27338  -0.27004  -0.26626
 Alpha  occ. eigenvalues --   -0.26337  -0.26277  -0.26252  -0.26232  -0.24569
 Alpha  occ. eigenvalues --   -0.24519  -0.24012  -0.23625  -0.23539  -0.23437
 Alpha  occ. eigenvalues --   -0.23296  -0.22885  -0.22585  -0.22402  -0.22183
 Alpha  occ. eigenvalues --   -0.21892  -0.21521  -0.20900  -0.20772  -0.20241
 Alpha  occ. eigenvalues --   -0.20116  -0.20055  -0.19650  -0.19368  -0.18775
 Alpha  occ. eigenvalues --   -0.18347  -0.17492  -0.16851
 Alpha virt. eigenvalues --   -0.09984  -0.05994  -0.03999  -0.03886  -0.03512
 Alpha virt. eigenvalues --   -0.01623  -0.01463  -0.00921  -0.00348  -0.00116
 Alpha virt. eigenvalues --   -0.00024   0.00486   0.00646   0.01330   0.02072

 Mulliken charges:
               1
     1  C    0.060393
     2  C    0.011690
     3  O   -0.292229
     4  H    0.034705
     5  H    0.043290
     6  H    0.007241
     7  N   -0.121948
     8  C    0.114138
     9  C    0.082864
    10  O   -0.288090
    11  C    0.063451
    12  C    0.177969
    13  O   -0.453546
    14  O   -0.401410
    15  H    0.115335
    16  H   -0.002944
    17  H    0.009558
    18  H    0.018856
    19  N   -0.127590
    20  C    0.139992
    21  C    0.055608
    22  O   -0.283398
    23  C    0.013862
    24  C   -0.005308
    25  C   -0.062912
    26  C    0.036024
    27  N    0.095513
    28  H    0.135475
    29  H    0.000441
    30  H    0.031493
    31  H    0.023027
    32  H    0.009875
    33  H    0.014042
    34  H    0.035982
    35  H    0.047999
    36  H    0.083975
    37  H    0.076332
    38  H    0.188619
    39  H    0.195805
    40  H    0.178435
    41  N   -0.135092
    42  C    0.142195
    43  C    0.058250
    44  O   -0.276179
    45  C    0.044145
    46  C    0.136218
    47  O   -0.471789
    48  O   -0.402326
    49  H    0.141881
    50  H    0.001037
    51  H   -0.018152
    52  H    0.029060
    53  N   -0.138112
    54  C    0.256860
    55  C    0.002132
    56  O   -0.288221
    57  H    0.146809
    58  H   -0.000863
    59  H    0.003422
    60  N   -0.142784
    61  C    0.138047
    62  C    0.057102
    63  O   -0.284279
    64  C    0.049652
    65  C    0.071845
    66  N   -0.020010
    67  O   -0.357085
    68  H    0.137900
    69  H    0.028723
    70  H    0.081638
    71  H    0.016770
    72  H    0.125712
    73  H    0.104809
    74  N   -0.178386
    75  C    0.225888
    76  C    0.058607
    77  O   -0.303439
    78  H    0.134096
    79  H    0.018354
    80  H    0.040249
    81  N   -0.144135
    82  C    0.105037
    83  C    0.139497
    84  O   -0.351380
    85  C    0.130640
    86  C   -0.047347
    87  C    0.051145
    88  C    0.036019
    89  C   -0.018984
    90  C   -0.043106
    91  C    0.179166
    92  O   -0.211821
    93  H    0.167712
    94  H   -0.015753
    95  H   -0.023750
    96  H   -0.037872
    97  H   -0.032806
    98  H   -0.041085
    99  H   -0.027792
   100  H   -0.048688
   101  H    0.180142
   102  N   -0.114614
   103  C    0.123112
   104  C    0.087731
   105  O   -0.290858
   106  C   -0.087994
   107  C    0.026526
   108  C    0.043289
   109  C    0.042053
   110  H    0.135207
   111  H    0.029111
   112  H   -0.030599
   113  H   -0.032242
   114  H    0.000816
   115  H    0.056691
   116  H   -0.010410
   117  H   -0.010175
   118  H    0.019953
   119  H   -0.003194
   120  H    0.008322
   121  N   -0.127599
   122  C    0.102985
   123  C    0.111891
   124  O   -0.279880
   125  C    0.203808
   126  O   -0.296982
   127  H    0.160450
   128  H    0.026602
   129  H   -0.010521
   130  H   -0.015607
   131  H    0.177003
   132  N   -0.107946
   133  C    0.117200
   134  C    0.045798
   135  O   -0.250800
   136  C    0.014115
   137  H    0.110349
   138  H    0.030096
   139  H   -0.001904
   140  H    0.047063
   141  H    0.034665
   142  N   -0.138909
   143  C    0.088272
   144  C    0.056615
   145  O   -0.292800
   146  C    0.036740
   147  H    0.094920
   148  H    0.025995
   149  H    0.028309
   150  H   -0.003715
   151  H    0.034544
   152  N   -0.128828
   153  C    0.101173
   154  C    0.094059
   155  O   -0.284069
   156  C   -0.006568
   157  C    0.092572
   158  C    0.070568
   159  O   -0.391727
   160  O   -0.440571
   161  H    0.125766
   162  H   -0.029996
   163  H    0.065224
   164  H   -0.000296
   165  H   -0.019588
   166  H   -0.040868
   167  N   -0.169938
   168  C    0.133381
   169  H    0.026875
   170  H    0.036742
   171  H    0.010156
   172  H    0.132242
   173  Ca   1.292979
   174  O   -0.277056
   175  H    0.191884
   176  H    0.160257
 Sum of Mulliken charges =   0.00000

 Dipole moment (field-independent basis, Debye):
    X=             37.0728    Y=             -5.8634    Z=            -16.5381  Tot=             41.0157
 Quadrupole moment (field-independent basis, Debye-Ang):
   XX=           -563.5308   YY=           -520.1924   ZZ=           -493.4103
   XY=            129.9713   XZ=            -84.9067   YZ=             -5.1644

 ESP charges:
               1
     1  C   -0.423023
     2  C    0.829859
     3  O   -0.648575
     4  H    0.124795
     5  H    0.124054
     6  H    0.083138
     7  N   -0.895897
     8  C    0.789111
     9  C    0.364506
    10  O   -0.524099
    11  C   -0.523017
    12  C    0.970697
    13  O   -0.942712
    14  O   -0.670817
    15  H    0.371920
    16  H   -0.077730
    17  H    0.089543
    18  H    0.106563
    19  N   -0.055056
    20  C   -0.281842
    21  C    0.672916
    22  O   -0.588897
    23  C   -0.001410
    24  C   -0.247428
    25  C    0.075793
    26  C    0.084737
    27  N   -0.356315
    28  H    0.055967
    29  H    0.142684
    30  H    0.063804
    31  H    0.138130
    32  H    0.085509
    33  H    0.089336
    34  H    0.018671
    35  H   -0.003461
    36  H    0.074727
    37  H    0.064088
    38  H    0.329326
    39  H    0.339665
    40  H    0.297316
    41  N   -0.483408
    42  C    0.183394
    43  C    0.374363
    44  O   -0.494626
    45  C   -0.203792
    46  C    0.839400
    47  O   -0.812022
    48  O   -0.748800
    49  H    0.331426
    50  H    0.041387
    51  H    0.028436
    52  H    0.059388
    53  N   -0.219336
    54  C    0.058699
    55  C    0.405820
    56  O   -0.560484
    57  H    0.128194
    58  H    0.053240
    59  H    0.025435
    60  N    0.033316
    61  C   -0.282124
    62  C    0.409050
    63  O   -0.508066
    64  C    0.002804
    65  C    0.471181
    66  N   -0.712661
    67  O   -0.438195
    68  H    0.044173
    69  H    0.166599
    70  H    0.098125
    71  H    0.039222
    72  H    0.353452
    73  H    0.330881
    74  N   -0.015320
    75  C   -0.471760
    76  C    0.794713
    77  O   -0.603654
    78  H    0.149505
    79  H    0.141033
    80  H    0.188258
    81  N   -0.569941
    82  C    0.062484
    83  C    0.713251
    84  O   -0.640220
    85  C   -0.078764
    86  C   -0.070949
    87  C   -0.174478
    88  C   -0.070807
    89  C   -0.196710
    90  C   -0.330277
    91  C    0.430362
    92  O   -0.602116
    93  H    0.371533
    94  H    0.075921
    95  H    0.038359
    96  H    0.018489
    97  H    0.152887
    98  H    0.139576
    99  H    0.138636
   100  H    0.137638
   101  H    0.433881
   102  N   -0.743539
   103  C    0.408813
   104  C    0.405656
   105  O   -0.549865
   106  C    0.067538
   107  C    0.246164
   108  C   -0.406237
   109  C   -0.325297
   110  H    0.329065
   111  H    0.034884
   112  H   -0.004134
   113  H   -0.039957
   114  H   -0.047802
   115  H    0.063557
   116  H    0.115587
   117  H    0.093356
   118  H    0.082617
   119  H    0.071321
   120  H    0.066304
   121  N   -0.174880
   122  C    0.040879
   123  C    0.474700
   124  O   -0.458363
   125  C    0.161719
   126  O   -0.536358
   127  H    0.106657
   128  H    0.060635
   129  H    0.009966
   130  H   -0.003158
   131  H    0.378178
   132  N   -0.426660
   133  C    0.191829
   134  C    0.464092
   135  O   -0.524650
   136  C   -0.343679
   137  H    0.271161
   138  H    0.076761
   139  H    0.067649
   140  H    0.134491
   141  H    0.100730
   142  N   -0.377542
   143  C    0.097305
   144  C    0.440136
   145  O   -0.552030
   146  C   -0.340427
   147  H    0.241473
   148  H    0.093282
   149  H    0.117802
   150  H    0.064841
   151  H    0.105075
   152  N   -0.073439
   153  C   -0.367084
   154  C    0.645642
   155  O   -0.577671
   156  C    0.125382
   157  C   -0.198763
   158  C    0.705523
   159  O   -0.748076
   160  O   -0.600814
   161  H    0.133313
   162  H    0.150217
   163  H    0.085137
   164  H   -0.110835
   165  H    0.049044
   166  H    0.010292
   167  N   -0.251408
   168  C   -0.181414
   169  H    0.081055
   170  H    0.106635
   171  H    0.074978
   172  H    0.244022
   173  Ca   1.563103
   174  O   -0.864648
   175  H    0.428440
   176  H    0.419147
 Sum of ESP charges =   0.00000

 Normal termination of Gaussian 09 at Mon Sep 16 16:16:06 2019.
