 Gaussian 16, Revision A.03,
 Gaussian 16:  ES64L-G16RevA.03 25-Dec-2016

 ----------------------------------------------------------------------
 #b3lyp/svp scf=(tight,noincore) Test #IOP(5/87=12) Density=Current Pop
 =(MK,readradii) iop(6/33=2) iop(6/42=6)
 ----------------------------------------------------------------------

 -----------------
 CaMKII_loop3_46.0
 -----------------
 Symbolic Z-matrix:
 Charge =  0 Multiplicity = 1

                         Standard orientation:
 ---------------------------------------------------------------------
 Center     Atomic      Atomic             Coordinates (Angstroms)
 Number     Number       Type             X           Y           Z
 ---------------------------------------------------------------------
      1          6           0        2.066356    3.371882    4.064732
      2          6           0        1.163374    2.966546    2.902697
      3          8           0        1.708382    2.632191    1.854187
      4          1           0        3.097796    3.437512    3.716848
      5          1           0        1.750278    4.341688    4.449398
      6          1           0        1.997107    2.625941    4.856177
      7          7           0       -0.158459    2.878801    3.092327
      8          6           0       -1.164633    2.631690    2.077315
      9          6           0       -1.989530    3.867551    1.761256
     10          8           0       -3.083348    4.106880    2.254089
     11          6           0       -2.032805    1.443375    2.476796
     12          6           0       -3.048429    0.986179    1.422102
     13          8           0       -2.792391    1.394725    0.279283
     14          8           0       -4.044412    0.307759    1.745622
     15          1           0       -0.487908    2.786643    4.041732
     16          1           0       -0.653653    2.313794    1.171533
     17          1           0       -2.468605    1.637780    3.453978
     18          1           0       -1.470784    0.511983    2.526219
     19          7           0       -1.245285    4.810786    1.169220
     20          6           0       -1.612198    6.093069    0.619289
     21          6           0       -2.621181    6.062606   -0.513860
     22          8           0       -3.445494    6.975146   -0.602623
     23          6           0       -0.414995    6.824181    0.004163
     24          6           0        0.750685    7.145330    0.934460
     25          6           0        1.958190    7.755324    0.222255
     26          6           0        3.012741    8.345259    1.154616
     27          7           0        3.818898    7.228056    1.676027
     28          1           0       -0.296525    4.540228    0.954385
     29          1           0       -1.991210    6.717395    1.428713
     30          1           0       -0.676830    7.762099   -0.478903
     31          1           0        0.042201    6.269761   -0.805893
     32          1           0        1.116350    6.253140    1.440510
     33          1           0        0.421419    7.853809    1.699798
     34          1           0        1.555737    8.547331   -0.409930
     35          1           0        2.457608    7.110150   -0.497907
     36          1           0        2.468813    8.837832    1.957432
     37          1           0        3.630866    9.016118    0.560419
     38          1           0        3.265601    6.538010    2.154772
     39          1           0        4.247915    6.724149    0.910179
     40          1           0        4.633380    7.539003    2.176958
     41          7           0       -2.571611    4.951869   -1.260256
     42          6           0       -3.493444    4.675710   -2.333084
     43          6           0       -4.818128    4.072834   -1.880144
     44          8           0       -5.786126    4.137206   -2.643121
     45          6           0       -2.906811    3.735432   -3.386573
     46          6           0       -2.225847    2.479361   -2.858677
     47          8           0       -2.788644    1.376324   -3.033804
     48          8           0       -1.234874    2.512301   -2.097240
     49          1           0       -1.884428    4.266058   -0.968294
     50          1           0       -3.638841    5.555015   -2.964496
     51          1           0       -2.244619    4.254522   -4.082380
     52          1           0       -3.696537    3.324103   -4.017160
     53          7           0       -4.775214    3.323870   -0.775331
     54          6           0       -5.978880    2.988736   -0.039957
     55          6           0       -6.745471    1.798378   -0.591307
     56          8           0       -7.956551    1.784618   -0.827305
     57          1           0       -3.891414    2.985227   -0.417675
     58          1           0       -6.587652    3.887431    0.004135
     59          1           0       -5.540689    2.750606    0.929931
     60          7           0       -5.972074    0.751778   -0.902087
     61          6           0       -6.486360   -0.453695   -1.501542
     62          6           0       -6.479444   -1.606711   -0.491836
     63          8           0       -7.087685   -2.627338   -0.812715
     64          6           0       -5.673299   -0.809263   -2.748539
     65          6           0       -4.466030   -1.687535   -2.443511
     66          7           0       -4.219685   -2.794911   -3.158796
     67          8           0       -3.571531   -1.323547   -1.682996
     68          1           0       -4.975901    0.819322   -0.733335
     69          1           0       -7.508626   -0.268897   -1.828225
     70          1           0       -5.373704    0.075191   -3.298978
     71          1           0       -6.311449   -1.404512   -3.389041
     72          1           0       -4.746269   -2.986059   -4.002165
     73          1           0       -3.372444   -3.276849   -2.920848
     74          7           0       -5.932489   -1.406523    0.707065
     75          6           0       -5.913878   -2.305343    1.849990
     76          6           0       -4.554813   -2.856038    2.262030
     77          8           0       -4.435180   -3.492483    3.309802
     78          1           0       -5.324226   -0.634548    0.900382
     79          1           0       -6.508615   -3.190091    1.615451
     80          1           0       -6.343442   -1.767256    2.689536
     81          7           0       -3.543955   -2.672590    1.402896
     82          6           0       -2.307919   -3.414235    1.549791
     83          6           0       -1.055224   -2.572812    1.330332
     84          8           0       -1.077384   -1.483105    0.767794
     85          6           0       -2.249330   -4.499388    0.476800
     86          6           0       -3.382277   -5.503050    0.412819
     87          6           0       -3.584907   -6.375294    1.492926
     88          6           0       -4.322922   -5.428714   -0.611028
     89          6           0       -4.661344   -7.269182    1.416446
     90          6           0       -5.390004   -6.328576   -0.665672
     91          6           0       -5.638691   -7.220911    0.405772
     92          8           0       -6.580563   -8.208481    0.442941
     93          1           0       -3.667480   -1.955642    0.708542
     94          1           0       -2.281344   -3.997794    2.473292
     95          1           0       -1.325257   -5.065416    0.443592
     96          1           0       -2.257429   -4.048679   -0.513854
     97          1           0       -2.883867   -6.486812    2.306994
     98          1           0       -4.203725   -4.677796   -1.381750
     99          1           0       -4.739434   -7.979932    2.221763
    100          1           0       -6.176940   -6.197440   -1.391780
    101          1           0       -7.158810   -8.190931   -0.321207
    102          7           0        0.129462   -3.074753    1.702183
    103          6           0        1.396022   -2.399733    1.564071
    104          6           0        2.288811   -3.328364    0.748980
    105          8           0        2.402366   -4.491945    1.123929
    106          6           0        1.977607   -2.069354    2.934877
    107          6           0        0.993069   -1.319175    3.832049
    108          6           0        3.286600   -1.301623    2.794790
    109          6           0        1.418194   -1.180651    5.290671
    110          1           0        0.007965   -3.864523    2.321296
    111          1           0        1.335428   -1.471686    0.992096
    112          1           0        2.230518   -3.002885    3.432125
    113          1           0        0.030033   -1.825827    3.812917
    114          1           0        0.843065   -0.309408    3.453537
    115          1           0        3.662176   -1.023298    3.777072
    116          1           0        3.937654   -1.971961    2.227184
    117          1           0        3.158043   -0.474702    2.091458
    118          1           0        0.842714   -0.346250    5.664700
    119          1           0        1.099947   -2.058419    5.855510
    120          1           0        2.469094   -0.969653    5.470641
    121          7           0        2.976917   -2.841335   -0.287269
    122          6           0        4.099246   -3.512837   -0.910536
    123          6           0        5.447519   -3.216946   -0.280608
    124          8           0        5.621659   -2.295802    0.524171
    125          6           0        4.173969   -3.229394   -2.403746
    126          8           0        4.395797   -1.839750   -2.581176
    127          1           0        2.931570   -1.846317   -0.426136
    128          1           0        3.869633   -4.581121   -0.802148
    129          1           0        3.403042   -3.600626   -3.077214
    130          1           0        5.043532   -3.777485   -2.765903
    131          1           0        3.901987   -1.635190   -3.385294
    132          7           0        6.397264   -4.077878   -0.643622
    133          6           0        7.762411   -3.777068   -0.230238
    134          6           0        8.227311   -2.451232   -0.813185
    135          8           0        8.899230   -1.722619   -0.072815
    136          6           0        8.646231   -4.900557   -0.765060
    137          1           0        6.098972   -4.850887   -1.212727
    138          1           0        7.845773   -3.744616    0.855763
    139          1           0        9.644238   -4.849878   -0.336093
    140          1           0        8.263507   -5.856915   -0.413919
    141          1           0        8.789557   -4.844567   -1.841547
    142          7           0        7.855714   -2.039393   -2.020539
    143          6           0        8.147756   -0.712675   -2.529194
    144          6           0        7.362577    0.377790   -1.830422
    145          8           0        7.931131    1.462836   -1.667262
    146          6           0        7.832257   -0.602142   -4.017026
    147          1           0        7.396518   -2.707146   -2.624729
    148          1           0        9.215642   -0.507276   -2.449624
    149          1           0        6.785787   -0.883674   -4.172391
    150          1           0        8.021458    0.438579   -4.262187
    151          1           0        8.412358   -1.261048   -4.661018
    152          7           0        6.169198    0.148116   -1.290426
    153          6           0        5.408282    1.167118   -0.589539
    154          6           0        5.901203    1.422547    0.826224
    155          8           0        5.689919    2.472438    1.419172
    156          6           0        3.919633    0.827805   -0.603343
    157          6           0        3.125754    1.153601   -1.859413
    158          6           0        1.665624    0.710143   -1.794855
    159          8           0        1.023637    0.350493   -2.799744
    160          8           0        1.085511    0.716650   -0.688181
    161          1           0        5.673137   -0.712352   -1.505641
    162          1           0        5.434274    2.110228   -1.125793
    163          1           0        3.457202    1.450672    0.168144
    164          1           0        3.791226   -0.220461   -0.317595
    165          1           0        3.628713    0.525703   -2.603843
    166          1           0        3.126179    2.217081   -2.054116
    167          7           0        6.587243    0.441836    1.427269
    168          6           0        7.345507    0.576223    2.659615
    169          1           0        8.398842    0.723940    2.422808
    170          1           0        6.977021    1.433592    3.222363
    171          1           0        7.231360   -0.328245    3.257485
    172          1           0        6.805762   -0.362703    0.861701
    173         20           0       -1.218626   -0.163312   -1.576730
    174          8           0       -0.237805   -2.632456   -1.930446
    175          1           0       -0.429178   -2.745777   -2.854910
    176          1           0        0.395898   -3.319282   -1.721181
 ---------------------------------------------------------------------

 SCF Done:  E(RB3LYP) =  -5333.56962581     A.U. after   18 cycles

 The electronic state is 1-A.
 Alpha  occ. eigenvalues -- -145.35189 -19.19874 -19.19639 -19.15183 -19.14339
 Alpha  occ. eigenvalues --  -19.11563 -19.11455 -19.11161 -19.11148 -19.09127
 Alpha  occ. eigenvalues --  -19.08614 -19.08333 -19.07184 -19.06827 -19.05817
 Alpha  occ. eigenvalues --  -19.05063 -19.04506 -19.03981 -19.03900 -19.03767
 Alpha  occ. eigenvalues --  -19.03447 -19.03157 -19.02645 -19.02316 -15.40928
 Alpha  occ. eigenvalues --  -14.58150 -14.40076 -14.38298 -14.38211 -14.36780
 Alpha  occ. eigenvalues --  -14.36379 -14.35096 -14.34766 -14.34748 -14.32439
 Alpha  occ. eigenvalues --  -14.32109 -14.31963 -14.29907 -14.29064 -14.29040
 Alpha  occ. eigenvalues --  -12.54564 -12.54498 -12.54479 -10.35471 -10.32421
 Alpha  occ. eigenvalues --  -10.30292 -10.30111 -10.29883 -10.29539 -10.29485
 Alpha  occ. eigenvalues --  -10.28392 -10.27759 -10.27666 -10.27608 -10.26824
 Alpha  occ. eigenvalues --  -10.26763 -10.25893 -10.25512 -10.25111 -10.24733
 Alpha  occ. eigenvalues --  -10.24683 -10.23831 -10.23734 -10.23699 -10.23479
 Alpha  occ. eigenvalues --  -10.23184 -10.23117 -10.22909 -10.22446 -10.22443
 Alpha  occ. eigenvalues --  -10.22241 -10.22237 -10.21705 -10.21678 -10.20941
 Alpha  occ. eigenvalues --  -10.20519 -10.20301 -10.20273 -10.19515 -10.19092
 Alpha  occ. eigenvalues --  -10.18683 -10.18452 -10.18432 -10.18091 -10.17711
 Alpha  occ. eigenvalues --  -10.17595 -10.17540 -10.17527 -10.17374 -10.17366
 Alpha  occ. eigenvalues --  -10.17001 -10.16847 -10.16802 -10.16526 -10.16368
 Alpha  occ. eigenvalues --  -10.14599 -10.14287  -1.77783  -1.13707  -1.08181
 Alpha  occ. eigenvalues --   -1.06894  -1.06320  -1.05497  -1.05393  -1.04948
 Alpha  occ. eigenvalues --   -1.04776  -1.04344  -1.04295  -1.03998  -1.03553
 Alpha  occ. eigenvalues --   -1.02247  -1.01840  -1.01278  -1.00191  -0.99501
 Alpha  occ. eigenvalues --   -0.99286  -0.98863  -0.98261  -0.97869  -0.97700
 Alpha  occ. eigenvalues --   -0.97093  -0.96615  -0.95826  -0.94913  -0.94352
 Alpha  occ. eigenvalues --   -0.93194  -0.92432  -0.91467  -0.91439  -0.91101
 Alpha  occ. eigenvalues --   -0.89582  -0.89502  -0.88998  -0.88794  -0.88607
 Alpha  occ. eigenvalues --   -0.88478  -0.87651  -0.86628  -0.86377  -0.85450
 Alpha  occ. eigenvalues --   -0.83464  -0.83381  -0.82626  -0.81519  -0.80046
 Alpha  occ. eigenvalues --   -0.78852  -0.77799  -0.77634  -0.77523  -0.75957
 Alpha  occ. eigenvalues --   -0.75758  -0.74780  -0.74153  -0.73228  -0.72713
 Alpha  occ. eigenvalues --   -0.72419  -0.72246  -0.71655  -0.71582  -0.70594
 Alpha  occ. eigenvalues --   -0.69979  -0.69306  -0.68665  -0.68434  -0.67887
 Alpha  occ. eigenvalues --   -0.67707  -0.66116  -0.65404  -0.64787  -0.64411
 Alpha  occ. eigenvalues --   -0.63799  -0.63168  -0.62841  -0.62316  -0.62149
 Alpha  occ. eigenvalues --   -0.62042  -0.61452  -0.60530  -0.60226  -0.59477
 Alpha  occ. eigenvalues --   -0.59381  -0.59362  -0.59150  -0.59130  -0.58675
 Alpha  occ. eigenvalues --   -0.58278  -0.57604  -0.57295  -0.56741  -0.56263
 Alpha  occ. eigenvalues --   -0.55913  -0.55790  -0.55625  -0.55514  -0.55430
 Alpha  occ. eigenvalues --   -0.54787  -0.54483  -0.54120  -0.53552  -0.53499
 Alpha  occ. eigenvalues --   -0.53092  -0.52943  -0.52939  -0.52432  -0.52031
 Alpha  occ. eigenvalues --   -0.51672  -0.51235  -0.51049  -0.50800  -0.50617
 Alpha  occ. eigenvalues --   -0.50485  -0.49799  -0.49015  -0.48855  -0.48678
 Alpha  occ. eigenvalues --   -0.48277  -0.48265  -0.47990  -0.47440  -0.47397
 Alpha  occ. eigenvalues --   -0.47145  -0.47082  -0.46876  -0.46716  -0.46564
 Alpha  occ. eigenvalues --   -0.46353  -0.46024  -0.45930  -0.45524  -0.45259
 Alpha  occ. eigenvalues --   -0.45204  -0.45112  -0.44914  -0.44764  -0.44563
 Alpha  occ. eigenvalues --   -0.44544  -0.44423  -0.43965  -0.43903  -0.43823
 Alpha  occ. eigenvalues --   -0.43415  -0.43266  -0.43122  -0.43049  -0.42875
 Alpha  occ. eigenvalues --   -0.42653  -0.42458  -0.42333  -0.42225  -0.41930
 Alpha  occ. eigenvalues --   -0.41879  -0.41835  -0.41723  -0.41551  -0.41385
 Alpha  occ. eigenvalues --   -0.41096  -0.40856  -0.40785  -0.40666  -0.40583
 Alpha  occ. eigenvalues --   -0.40479  -0.40314  -0.40222  -0.40050  -0.39961
 Alpha  occ. eigenvalues --   -0.39822  -0.39781  -0.39477  -0.39422  -0.39334
 Alpha  occ. eigenvalues --   -0.39201  -0.38977  -0.38876  -0.38741  -0.38556
 Alpha  occ. eigenvalues --   -0.38447  -0.38374  -0.37927  -0.37812  -0.37767
 Alpha  occ. eigenvalues --   -0.37712  -0.37637  -0.37513  -0.37382  -0.37249
 Alpha  occ. eigenvalues --   -0.37119  -0.36959  -0.36934  -0.36871  -0.36637
 Alpha  occ. eigenvalues --   -0.36597  -0.36426  -0.36350  -0.35987  -0.35797
 Alpha  occ. eigenvalues --   -0.35659  -0.35151  -0.34662  -0.34543  -0.34171
 Alpha  occ. eigenvalues --   -0.34130  -0.34050  -0.33927  -0.33852  -0.33695
 Alpha  occ. eigenvalues --   -0.33165  -0.32952  -0.32865  -0.32591  -0.32283
 Alpha  occ. eigenvalues --   -0.32218  -0.32011  -0.31908  -0.31830  -0.31668
 Alpha  occ. eigenvalues --   -0.31495  -0.31304  -0.31163  -0.30870  -0.30281
 Alpha  occ. eigenvalues --   -0.29570  -0.29172  -0.29080  -0.28866  -0.28007
 Alpha  occ. eigenvalues --   -0.27282  -0.27129  -0.26853  -0.26665  -0.26573
 Alpha  occ. eigenvalues --   -0.26255  -0.26049  -0.24635  -0.24353  -0.24339
 Alpha  occ. eigenvalues --   -0.24269  -0.23903  -0.23456  -0.23234  -0.23095
 Alpha  occ. eigenvalues --   -0.22943  -0.22755  -0.22731  -0.22169  -0.22135
 Alpha  occ. eigenvalues --   -0.21806  -0.21578  -0.21038  -0.20905  -0.20465
 Alpha  occ. eigenvalues --   -0.20334  -0.19888  -0.19745  -0.19235  -0.19085
 Alpha  occ. eigenvalues --   -0.18915  -0.18079  -0.17827
 Alpha virt. eigenvalues --   -0.09603  -0.04226  -0.03865  -0.03758  -0.02875
 Alpha virt. eigenvalues --   -0.01605  -0.01140  -0.00830  -0.00639  -0.00099
 Alpha virt. eigenvalues --    0.00090   0.00712   0.00744   0.01125   0.01480

 Mulliken charges:
               1
     1  C    0.038515
     2  C   -0.004308
     3  O   -0.253673
     4  H    0.030478
     5  H   -0.005855
     6  H    0.039902
     7  N   -0.129759
     8  C    0.079163
     9  C    0.087423
    10  O   -0.248768
    11  C    0.072579
    12  C    0.140732
    13  O   -0.432008
    14  O   -0.376581
    15  H    0.114069
    16  H    0.053730
    17  H   -0.010860
    18  H    0.013241
    19  N   -0.148478
    20  C    0.163490
    21  C    0.063763
    22  O   -0.273623
    23  C   -0.010463
    24  C    0.036071
    25  C   -0.084710
    26  C    0.074215
    27  N    0.080496
    28  H    0.131375
    29  H    0.000437
    30  H    0.022883
    31  H    0.008755
    32  H   -0.023520
    33  H    0.010255
    34  H    0.045089
    35  H    0.029835
    36  H    0.075164
    37  H    0.076576
    38  H    0.198737
    39  H    0.190772
    40  H    0.190556
    41  N   -0.132606
    42  C    0.104383
    43  C    0.090626
    44  O   -0.279602
    45  C    0.112943
    46  C    0.095074
    47  O   -0.441461
    48  O   -0.413579
    49  H    0.131851
    50  H    0.003613
    51  H   -0.009726
    52  H    0.008890
    53  N   -0.206174
    54  C    0.235355
    55  C    0.056764
    56  O   -0.284417
    57  H    0.170276
    58  H    0.012336
    59  H    0.030969
    60  N   -0.170482
    61  C    0.108006
    62  C    0.039689
    63  O   -0.302644
    64  C    0.151090
    65  C    0.046654
    66  N   -0.035741
    67  O   -0.358050
    68  H    0.135800
    69  H    0.037077
    70  H    0.071374
    71  H   -0.018557
    72  H    0.134430
    73  H    0.118843
    74  N   -0.160330
    75  C    0.239050
    76  C    0.038434
    77  O   -0.301422
    78  H    0.128687
    79  H    0.040144
    80  H    0.030670
    81  N   -0.133049
    82  C    0.134646
    83  C    0.127137
    84  O   -0.336393
    85  C    0.134369
    86  C   -0.039417
    87  C    0.024204
    88  C    0.025886
    89  C   -0.026301
    90  C   -0.028013
    91  C    0.155677
    92  O   -0.198083
    93  H    0.142681
    94  H    0.014018
    95  H   -0.016286
    96  H   -0.072065
    97  H   -0.032002
    98  H   -0.081076
    99  H   -0.028225
   100  H   -0.027374
   101  H    0.173283
   102  N   -0.125608
   103  C    0.153930
   104  C    0.034782
   105  O   -0.284093
   106  C   -0.094870
   107  C    0.003838
   108  C    0.047796
   109  C    0.041115
   110  H    0.128313
   111  H    0.027882
   112  H   -0.022459
   113  H   -0.002353
   114  H    0.019097
   115  H    0.005473
   116  H    0.016564
   117  H    0.031833
   118  H   -0.004295
   119  H    0.007845
   120  H    0.004768
   121  N   -0.120067
   122  C    0.089943
   123  C    0.078633
   124  O   -0.255657
   125  C    0.227247
   126  O   -0.302702
   127  H    0.147657
   128  H    0.028625
   129  H    0.011498
   130  H   -0.043173
   131  H    0.207538
   132  N   -0.132252
   133  C    0.133938
   134  C    0.043456
   135  O   -0.274262
   136  C    0.031773
   137  H    0.123336
   138  H    0.028719
   139  H    0.036490
   140  H    0.027450
   141  H    0.010113
   142  N   -0.113295
   143  C    0.121841
   144  C    0.046189
   145  O   -0.290184
   146  C    0.031016
   147  H    0.103783
   148  H    0.022483
   149  H   -0.011427
   150  H    0.044102
   151  H    0.016596
   152  N   -0.152095
   153  C    0.174998
   154  C    0.064123
   155  O   -0.315646
   156  C   -0.075839
   157  C    0.143680
   158  C    0.105409
   159  O   -0.433853
   160  O   -0.412339
   161  H    0.145648
   162  H   -0.024972
   163  H    0.057186
   164  H   -0.040905
   165  H   -0.054475
   166  H    0.006998
   167  N   -0.164874
   168  C    0.134963
   169  H    0.025307
   170  H    0.016857
   171  H    0.014586
   172  H    0.144290
   173  Ca   1.258460
   174  O   -0.265887
   175  H    0.169732
   176  H    0.182128
 Sum of Mulliken charges =  -0.00000

 Dipole moment (field-independent basis, Debye):
    X=             33.8548    Y=              4.8206    Z=             -2.0952  Tot=             34.2604
 Quadrupole moment (field-independent basis, Debye-Ang):
   XX=           -685.9460   YY=           -364.5573   ZZ=           -521.6038
   XY=             99.3318   XZ=              4.6056   YZ=            119.9311

 ESP charges:
               1
     1  C   -0.438674
     2  C    0.931522
     3  O   -0.648278
     4  H    0.115086
     5  H    0.071534
     6  H    0.123111
     7  N   -1.034385
     8  C    0.584274
     9  C    0.591600
    10  O   -0.510952
    11  C   -0.424132
    12  C    0.622273
    13  O   -0.505548
    14  O   -0.586953
    15  H    0.410275
    16  H   -0.004575
    17  H    0.081757
    18  H    0.084132
    19  N   -0.536828
    20  C    0.088684
    21  C    0.457232
    22  O   -0.544754
    23  C   -0.366884
    24  C    0.188925
    25  C    0.030600
    26  C   -0.104643
    27  N   -0.234033
    28  H    0.328428
    29  H    0.094806
    30  H    0.130536
    31  H    0.099969
    32  H   -0.078718
    33  H    0.009329
    34  H    0.034835
    35  H    0.025888
    36  H    0.100521
    37  H    0.110528
    38  H    0.292065
    39  H    0.315191
    40  H    0.311881
    41  N   -0.161949
    42  C   -0.095894
    43  C    0.373665
    44  O   -0.519361
    45  C   -0.230981
    46  C    0.757151
    47  O   -0.802029
    48  O   -0.719539
    49  H    0.148986
    50  H    0.126993
    51  H    0.061462
    52  H    0.109620
    53  N    0.341324
    54  C   -0.422607
    55  C    0.628381
    56  O   -0.566427
    57  H   -0.312794
    58  H    0.140696
    59  H    0.170351
    60  N   -0.439906
    61  C    0.183200
    62  C    0.340501
    63  O   -0.534776
    64  C   -0.205058
    65  C    0.536805
    66  N   -0.699714
    67  O   -0.494659
    68  H    0.254908
    69  H    0.092450
    70  H    0.139310
    71  H    0.048079
    72  H    0.360457
    73  H    0.327209
    74  N   -0.132234
    75  C   -0.207072
    76  C    0.581655
    77  O   -0.578153
    78  H    0.143037
    79  H    0.120587
    80  H    0.110902
    81  N   -0.186797
    82  C   -0.212131
    83  C    0.754581
    84  O   -0.630603
    85  C    0.290633
    86  C   -0.318387
    87  C    0.042322
    88  C    0.110724
    89  C   -0.325501
    90  C   -0.466284
    91  C    0.499185
    92  O   -0.575390
    93  H    0.156568
    94  H    0.118764
    95  H   -0.020158
    96  H   -0.068086
    97  H    0.089449
    98  H    0.076316
    99  H    0.157356
   100  H    0.164976
   101  H    0.416866
   102  N   -0.727391
   103  C   -0.067749
   104  C    0.795226
   105  O   -0.593586
   106  C    0.347230
   107  C    0.081149
   108  C   -0.460027
   109  C   -0.323995
   110  H    0.336594
   111  H    0.095544
   112  H   -0.043000
   113  H    0.003840
   114  H    0.072053
   115  H    0.131365
   116  H    0.085825
   117  H    0.074955
   118  H    0.067401
   119  H    0.073822
   120  H    0.072567
   121  N   -0.437512
   122  C   -0.087011
   123  C    0.609657
   124  O   -0.481059
   125  C    0.143949
   126  O   -0.436064
   127  H    0.200721
   128  H    0.089612
   129  H    0.050367
   130  H   -0.011597
   131  H    0.393138
   132  N   -0.537498
   133  C    0.239354
   134  C    0.459720
   135  O   -0.537399
   136  C   -0.270858
   137  H    0.302142
   138  H    0.065608
   139  H    0.095654
   140  H    0.086086
   141  H    0.058205
   142  N   -0.440864
   143  C    0.228935
   144  C    0.206625
   145  O   -0.516157
   146  C   -0.348060
   147  H    0.288028
   148  H    0.082225
   149  H    0.063848
   150  H    0.130481
   151  H    0.092454
   152  N    0.459901
   153  C   -0.761848
   154  C    0.709354
   155  O   -0.629123
   156  C    0.549787
   157  C   -0.337525
   158  C    0.883316
   159  O   -0.811320
   160  O   -0.723187
   161  H   -0.159565
   162  H    0.189639
   163  H    0.016263
   164  H   -0.226639
   165  H   -0.013100
   166  H    0.091795
   167  N   -0.171132
   168  C   -0.253535
   169  H    0.105041
   170  H    0.105173
   171  H    0.088850
   172  H    0.209508
   173  Ca   1.634265
   174  O   -0.874173
   175  H    0.422691
   176  H    0.426410
 Sum of ESP charges =  -0.00000

 Normal termination of Gaussian 16 at Wed Sep 18 16:09:24 2019.
