 Gaussian 16, Revision A.03,
 Gaussian 16:  ES64L-G16RevA.03 25-Dec-2016

 ----------------------------------------------------------------------
 #b3lyp/svp scf=(tight,noincore) Test #IOP(5/87=12) Density=Current Pop
 =(MK,readradii) iop(6/33=2) iop(6/42=6)
 ----------------------------------------------------------------------

 -----------------
 CaMKII_loop3_38.0
 -----------------
 Symbolic Z-matrix:
 Charge =  0 Multiplicity = 1

                         Standard orientation:
 ---------------------------------------------------------------------
 Center     Atomic      Atomic             Coordinates (Angstroms)
 Number     Number       Type             X           Y           Z
 ---------------------------------------------------------------------
      1          6           0        2.602094    2.259205    5.639624
      2          6           0        1.852948    2.325019    4.316049
      3          8           0        2.540990    2.657392    3.356400
      4          1           0        3.455757    1.588652    5.540340
      5          1           0        2.952842    3.255414    5.909328
      6          1           0        1.935761    1.885781    6.416636
      7          7           0        0.520666    2.231900    4.184319
      8          6           0       -0.246398    2.328488    2.968595
      9          6           0       -0.536468    3.748099    2.476394
     10          8           0       -1.038774    4.586866    3.231020
     11          6           0       -1.586321    1.615511    3.111672
     12          6           0       -2.444660    1.741118    1.859523
     13          8           0       -1.955000    1.944315    0.728531
     14          8           0       -3.598644    1.286209    1.975620
     15          1           0       -0.006035    1.974862    5.008344
     16          1           0        0.309032    1.815238    2.183693
     17          1           0       -2.170424    2.053049    3.927323
     18          1           0       -1.285382    0.586182    3.264371
     19          7           0       -0.063480    3.947904    1.249952
     20          6           0        0.182800    5.217650    0.592920
     21          6           0       -0.768385    5.636284   -0.508848
     22          8           0       -0.902043    6.809321   -0.850928
     23          6           0        1.673284    5.154461    0.253122
     24          6           0        2.265839    6.488809   -0.201625
     25          6           0        3.687996    6.335767   -0.719068
     26          6           0        3.706330    5.601928   -2.063406
     27          7           0        4.963468    5.672075   -2.832356
     28          1           0        0.130546    3.117298    0.706032
     29          1           0        0.155819    5.972594    1.382749
     30          1           0        1.832174    4.481969   -0.584679
     31          1           0        2.325075    4.756134    1.031391
     32          1           0        2.238715    7.136713    0.678991
     33          1           0        1.614048    6.887136   -0.979894
     34          1           0        4.238954    5.750039    0.014327
     35          1           0        4.185861    7.304619   -0.711595
     36          1           0        2.849681    5.984648   -2.612568
     37          1           0        3.370351    4.577678   -1.900221
     38          1           0        4.772911    5.639755   -3.824648
     39          1           0        5.369502    6.587362   -2.769223
     40          1           0        5.635107    4.959795   -2.603758
     41          7           0       -1.429538    4.598745   -1.045867
     42          6           0       -2.543321    4.843948   -1.936015
     43          6           0       -3.917156    4.669001   -1.309539
     44          8           0       -4.874087    5.214074   -1.867910
     45          6           0       -2.378433    4.048427   -3.227277
     46          6           0       -2.191917    2.584748   -2.862098
     47          8           0       -3.061173    1.908088   -2.252487
     48          8           0       -1.123947    1.971804   -3.069797
     49          1           0       -1.308352    3.650301   -0.702258
     50          1           0       -2.560689    5.879073   -2.262074
     51          1           0       -1.482593    4.445242   -3.717388
     52          1           0       -3.290741    4.218454   -3.792684
     53          7           0       -4.064839    3.964772   -0.182751
     54          6           0       -5.250262    3.727038    0.607917
     55          6           0       -6.046625    2.496328    0.200908
     56          8           0       -7.070175    2.245045    0.835969
     57          1           0       -3.200926    3.782441    0.290969
     58          1           0       -6.003390    4.516697    0.513380
     59          1           0       -4.992728    3.719840    1.672681
     60          7           0       -5.608869    1.687887   -0.760390
     61          6           0       -6.262129    0.525958   -1.339417
     62          6           0       -6.368822   -0.566456   -0.281424
     63          8           0       -6.955028   -1.601723   -0.606364
     64          6           0       -5.579616    0.098897   -2.629415
     65          6           0       -4.401387   -0.832662   -2.422833
     66          7           0       -3.872705   -1.437634   -3.491058
     67          8           0       -3.737135   -0.921242   -1.390591
     68          1           0       -4.734736    1.863034   -1.240926
     69          1           0       -7.275820    0.825433   -1.602559
     70          1           0       -5.391539    0.962399   -3.277558
     71          1           0       -6.291600   -0.500473   -3.195130
     72          1           0       -4.224715   -1.174487   -4.400697
     73          1           0       -3.010284   -1.949436   -3.358434
     74          7           0       -5.828438   -0.355407    0.921050
     75          6           0       -5.968968   -1.236102    2.062289
     76          6           0       -4.861083   -2.272778    2.224127
     77          8           0       -5.000036   -3.111108    3.106905
     78          1           0       -5.359922    0.519576    1.070040
     79          1           0       -6.910561   -1.780624    2.162285
     80          1           0       -5.941410   -0.565895    2.925228
     81          7           0       -3.952554   -2.319826    1.241548
     82          6           0       -2.897932   -3.308574    1.253834
     83          6           0       -1.534852   -2.654564    1.458733
     84          8           0       -1.290995   -1.642795    0.808149
     85          6           0       -2.854661   -4.224429    0.034188
     86          6           0       -4.157770   -4.727510   -0.530187
     87          6           0       -5.151860   -5.162667    0.343039
     88          6           0       -4.445515   -4.720775   -1.903961
     89          6           0       -6.400485   -5.652140   -0.075232
     90          6           0       -5.762820   -4.974557   -2.316518
     91          6           0       -6.752228   -5.439437   -1.421053
     92          8           0       -7.990619   -5.694335   -1.941644
     93          1           0       -3.931053   -1.677576    0.472163
     94          1           0       -3.088096   -3.954090    2.108321
     95          1           0       -2.162436   -5.012471    0.310076
     96          1           0       -2.411549   -3.630177   -0.775698
     97          1           0       -4.970126   -5.027521    1.398173
     98          1           0       -3.699342   -4.496564   -2.656194
     99          1           0       -7.212813   -5.885748    0.601932
    100          1           0       -6.005702   -4.805120   -3.351892
    101          1           0       -8.088527   -5.454834   -2.864441
    102          7           0       -0.596049   -3.309822    2.161432
    103          6           0        0.784357   -2.898789    2.096401
    104          6           0        1.438710   -3.836027    1.088230
    105          8           0        1.405564   -5.062258    1.147031
    106          6           0        1.543900   -2.932005    3.425382
    107          6           0        0.811617   -2.070431    4.447758
    108          6           0        2.941135   -2.371334    3.165607
    109          6           0        1.301455   -2.435272    5.853443
    110          1           0       -0.864207   -4.157978    2.649102
    111          1           0        0.724682   -1.874664    1.733072
    112          1           0        1.639571   -3.952484    3.808486
    113          1           0       -0.265714   -2.238754    4.427131
    114          1           0        0.986148   -1.017882    4.239476
    115          1           0        3.506894   -2.288348    4.092661
    116          1           0        3.498133   -3.055535    2.520609
    117          1           0        2.842880   -1.406855    2.681225
    118          1           0        0.904856   -1.736507    6.583057
    119          1           0        0.977239   -3.432459    6.126760
    120          1           0        2.391015   -2.362687    5.909909
    121          7           0        2.056360   -3.204053    0.085176
    122          6           0        2.959859   -3.736546   -0.920130
    123          6           0        4.437075   -3.609924   -0.603273
    124          8           0        4.882804   -2.724989    0.121375
    125          6           0        2.578507   -3.179840   -2.285578
    126          8           0        2.960435   -1.825076   -2.421390
    127          1           0        1.773075   -2.248111   -0.065902
    128          1           0        2.766562   -4.799822   -1.054970
    129          1           0        1.501719   -3.304785   -2.198883
    130          1           0        3.065185   -3.797691   -3.047421
    131          1           0        2.222271   -1.316338   -2.071675
    132          7           0        5.357353   -4.242657   -1.332408
    133          6           0        6.786998   -4.177253   -1.109834
    134          6           0        7.470125   -2.887437   -1.544243
    135          8           0        8.501839   -2.480604   -1.024385
    136          6           0        7.450453   -5.390663   -1.765093
    137          1           0        5.035931   -4.880779   -2.045632
    138          1           0        7.008843   -4.283033   -0.047904
    139          1           0        8.522281   -5.317813   -1.565150
    140          1           0        7.078702   -6.319448   -1.331896
    141          1           0        7.180786   -5.523621   -2.812281
    142          7           0        6.863131   -2.279272   -2.564094
    143          6           0        7.151464   -0.908876   -2.947080
    144          6           0        6.737379    0.060732   -1.856304
    145          8           0        7.455922    1.019089   -1.581080
    146          6           0        6.528361   -0.488690   -4.282216
    147          1           0        6.112747   -2.701626   -3.087487
    148          1           0        8.223861   -0.714238   -3.038629
    149          1           0        5.448982   -0.402465   -4.169048
    150          1           0        6.944714    0.467126   -4.594251
    151          1           0        6.718645   -1.228801   -5.068617
    152          7           0        5.711999   -0.236325   -1.052716
    153          6           0        5.326602    0.674089    0.006866
    154          6           0        6.055655    0.558592    1.335716
    155          8           0        6.390452    1.569873    1.955813
    156          6           0        3.838417    0.486139    0.302805
    157          6           0        2.985425    1.134518   -0.782372
    158          6           0        1.514221    0.761965   -0.700755
    159          8           0        1.136309   -0.427363   -0.830301
    160          8           0        0.657189    1.658990   -0.539995
    161          1           0        5.088001   -1.017280   -1.173702
    162          1           0        5.546917    1.685584   -0.337865
    163          1           0        3.495284    0.971559    1.217150
    164          1           0        3.591007   -0.558704    0.419821
    165          1           0        3.352758    0.895493   -1.786182
    166          1           0        3.049436    2.207902   -0.570831
    167          7           0        6.406107   -0.641489    1.793853
    168          6           0        7.295748   -0.865991    2.916233
    169          1           0        8.067253   -1.581151    2.629844
    170          1           0        7.762602    0.075985    3.204569
    171          1           0        6.727385   -1.262815    3.756903
    172          1           0        6.084501   -1.423213    1.243963
    173         20           0       -1.443025    0.240664   -1.014966
    174          8           0       -0.992524   -1.776587   -2.924533
    175          1           0       -0.934998   -2.709701   -2.735883
    176          1           0       -0.837017   -1.711152   -3.877023
 ---------------------------------------------------------------------

 SCF Done:  E(RB3LYP) =  -5333.62575167     A.U. after   21 cycles

 The electronic state is 1-A.
 Alpha  occ. eigenvalues -- -145.36290 -19.21854 -19.15881 -19.14801 -19.13663
 Alpha  occ. eigenvalues --  -19.13226 -19.12386 -19.11671 -19.11244 -19.10908
 Alpha  occ. eigenvalues --  -19.09675 -19.09272 -19.08824 -19.07013 -19.06835
 Alpha  occ. eigenvalues --  -19.06709 -19.06264 -19.05867 -19.05527 -19.05500
 Alpha  occ. eigenvalues --  -19.05218 -19.05074 -19.04075 -19.03482 -15.42032
 Alpha  occ. eigenvalues --  -14.58054 -14.39794 -14.37960 -14.37778 -14.36862
 Alpha  occ. eigenvalues --  -14.36559 -14.35230 -14.34182 -14.33840 -14.32699
 Alpha  occ. eigenvalues --  -14.32585 -14.31761 -14.31019 -14.30313 -14.30150
 Alpha  occ. eigenvalues --  -12.55635 -12.55616 -12.55600 -10.33314 -10.32319
 Alpha  occ. eigenvalues --  -10.31211 -10.30837 -10.30299 -10.29640 -10.28842
 Alpha  occ. eigenvalues --  -10.28297 -10.28040 -10.27281 -10.26639 -10.26485
 Alpha  occ. eigenvalues --  -10.26281 -10.25675 -10.25396 -10.25354 -10.25184
 Alpha  occ. eigenvalues --  -10.24966 -10.24844 -10.24308 -10.24195 -10.24049
 Alpha  occ. eigenvalues --  -10.23969 -10.23933 -10.23414 -10.22915 -10.22230
 Alpha  occ. eigenvalues --  -10.22210 -10.21922 -10.21897 -10.21345 -10.20877
 Alpha  occ. eigenvalues --  -10.20559 -10.20208 -10.20180 -10.20106 -10.20045
 Alpha  occ. eigenvalues --  -10.19805 -10.19698 -10.19147 -10.18818 -10.18779
 Alpha  occ. eigenvalues --  -10.18580 -10.18509 -10.18363 -10.18200 -10.18142
 Alpha  occ. eigenvalues --  -10.17856 -10.17849 -10.17752 -10.17497 -10.17419
 Alpha  occ. eigenvalues --  -10.17236 -10.16261  -1.79005  -1.13106  -1.07877
 Alpha  occ. eigenvalues --   -1.07723  -1.07144  -1.06798  -1.06432  -1.05816
 Alpha  occ. eigenvalues --   -1.05432  -1.04748  -1.04603  -1.04174  -1.03754
 Alpha  occ. eigenvalues --   -1.03285  -1.02953  -1.01574  -1.01150  -1.00659
 Alpha  occ. eigenvalues --   -0.99902  -0.99842  -0.99480  -0.98694  -0.98461
 Alpha  occ. eigenvalues --   -0.98003  -0.97012  -0.96235  -0.94672  -0.94414
 Alpha  occ. eigenvalues --   -0.94397  -0.93714  -0.91818  -0.91650  -0.91491
 Alpha  occ. eigenvalues --   -0.90401  -0.90105  -0.89665  -0.89469  -0.89205
 Alpha  occ. eigenvalues --   -0.88549  -0.88353  -0.87515  -0.87428  -0.86566
 Alpha  occ. eigenvalues --   -0.83789  -0.83035  -0.82115  -0.80142  -0.80122
 Alpha  occ. eigenvalues --   -0.79216  -0.78388  -0.78189  -0.77173  -0.76938
 Alpha  occ. eigenvalues --   -0.75831  -0.74896  -0.74164  -0.73190  -0.73022
 Alpha  occ. eigenvalues --   -0.72682  -0.72469  -0.71302  -0.70809  -0.70777
 Alpha  occ. eigenvalues --   -0.70117  -0.69813  -0.69007  -0.68573  -0.67851
 Alpha  occ. eigenvalues --   -0.67459  -0.66353  -0.65915  -0.64990  -0.64491
 Alpha  occ. eigenvalues --   -0.63834  -0.62957  -0.62745  -0.62469  -0.62444
 Alpha  occ. eigenvalues --   -0.61601  -0.61477  -0.61028  -0.60827  -0.60733
 Alpha  occ. eigenvalues --   -0.60638  -0.60051  -0.59868  -0.58979  -0.58491
 Alpha  occ. eigenvalues --   -0.58200  -0.58028  -0.57551  -0.57281  -0.56789
 Alpha  occ. eigenvalues --   -0.56387  -0.56269  -0.56061  -0.55683  -0.55456
 Alpha  occ. eigenvalues --   -0.54712  -0.54284  -0.53995  -0.53851  -0.53727
 Alpha  occ. eigenvalues --   -0.53406  -0.53190  -0.52593  -0.51966  -0.51837
 Alpha  occ. eigenvalues --   -0.51570  -0.51070  -0.50524  -0.50208  -0.50028
 Alpha  occ. eigenvalues --   -0.49907  -0.49729  -0.49487  -0.49296  -0.48733
 Alpha  occ. eigenvalues --   -0.48488  -0.48236  -0.48030  -0.47965  -0.47839
 Alpha  occ. eigenvalues --   -0.47649  -0.47453  -0.47043  -0.46949  -0.46752
 Alpha  occ. eigenvalues --   -0.46734  -0.46523  -0.46437  -0.46387  -0.46098
 Alpha  occ. eigenvalues --   -0.45944  -0.45374  -0.45347  -0.45324  -0.45083
 Alpha  occ. eigenvalues --   -0.44825  -0.44780  -0.44610  -0.44525  -0.44282
 Alpha  occ. eigenvalues --   -0.43784  -0.43599  -0.43463  -0.43432  -0.43333
 Alpha  occ. eigenvalues --   -0.43191  -0.43130  -0.43043  -0.42937  -0.42781
 Alpha  occ. eigenvalues --   -0.42672  -0.42379  -0.42258  -0.42090  -0.41958
 Alpha  occ. eigenvalues --   -0.41767  -0.41593  -0.41410  -0.41200  -0.41125
 Alpha  occ. eigenvalues --   -0.40889  -0.40828  -0.40711  -0.40644  -0.40565
 Alpha  occ. eigenvalues --   -0.40456  -0.40065  -0.39998  -0.39878  -0.39789
 Alpha  occ. eigenvalues --   -0.39690  -0.39408  -0.39338  -0.39187  -0.39099
 Alpha  occ. eigenvalues --   -0.38905  -0.38801  -0.38691  -0.38590  -0.38347
 Alpha  occ. eigenvalues --   -0.38321  -0.38197  -0.38051  -0.37853  -0.37835
 Alpha  occ. eigenvalues --   -0.37790  -0.37710  -0.37289  -0.37197  -0.36975
 Alpha  occ. eigenvalues --   -0.36834  -0.36734  -0.36709  -0.36578  -0.36183
 Alpha  occ. eigenvalues --   -0.36010  -0.35692  -0.35573  -0.35495  -0.35157
 Alpha  occ. eigenvalues --   -0.35013  -0.34977  -0.34822  -0.34686  -0.34449
 Alpha  occ. eigenvalues --   -0.34115  -0.33647  -0.33594  -0.33527  -0.33444
 Alpha  occ. eigenvalues --   -0.33363  -0.33124  -0.32896  -0.32479  -0.32397
 Alpha  occ. eigenvalues --   -0.32304  -0.31601  -0.31557  -0.31200  -0.30894
 Alpha  occ. eigenvalues --   -0.29819  -0.29690  -0.29582  -0.29110  -0.29045
 Alpha  occ. eigenvalues --   -0.28308  -0.28034  -0.27826  -0.27652  -0.26947
 Alpha  occ. eigenvalues --   -0.26823  -0.26573  -0.26357  -0.25819  -0.25688
 Alpha  occ. eigenvalues --   -0.25250  -0.25170  -0.25095  -0.24628  -0.24369
 Alpha  occ. eigenvalues --   -0.24140  -0.23922  -0.23184  -0.23044  -0.22989
 Alpha  occ. eigenvalues --   -0.22932  -0.22803  -0.22593  -0.22021  -0.21675
 Alpha  occ. eigenvalues --   -0.21372  -0.21081  -0.20899  -0.20728  -0.20487
 Alpha  occ. eigenvalues --   -0.19671  -0.19339  -0.19174
 Alpha virt. eigenvalues --   -0.09736  -0.04166  -0.04041  -0.03386  -0.02947
 Alpha virt. eigenvalues --   -0.01231  -0.01047  -0.00755  -0.00640  -0.00472
 Alpha virt. eigenvalues --    0.00385   0.00599   0.01216   0.01568   0.02058

 Mulliken charges:
               1
     1  C    0.080482
     2  C    0.012055
     3  O   -0.304879
     4  H    0.040094
     5  H    0.049577
     6  H   -0.016411
     7  N   -0.093906
     8  C    0.090186
     9  C    0.063465
    10  O   -0.281136
    11  C    0.047814
    12  C    0.124982
    13  O   -0.495832
    14  O   -0.345438
    15  H    0.114241
    16  H   -0.018166
    17  H    0.025828
    18  H    0.011755
    19  N   -0.166897
    20  C    0.165676
    21  C    0.100515
    22  O   -0.275953
    23  C   -0.052857
    24  C    0.013755
    25  C    0.010634
    26  C   -0.023179
    27  N    0.105789
    28  H    0.183951
    29  H    0.013938
    30  H   -0.012660
    31  H    0.039545
    32  H    0.022654
    33  H    0.019289
    34  H    0.037734
    35  H    0.012660
    36  H    0.066940
    37  H    0.091434
    38  H    0.186189
    39  H    0.178860
    40  H    0.209252
    41  N   -0.180040
    42  C    0.060842
    43  C    0.052839
    44  O   -0.295765
    45  C    0.191208
    46  C    0.052372
    47  O   -0.430090
    48  O   -0.404180
    49  H    0.181197
    50  H    0.022682
    51  H   -0.020428
    52  H    0.013509
    53  N   -0.133253
    54  C    0.231482
    55  C    0.018870
    56  O   -0.310614
    57  H    0.128354
    58  H    0.024359
    59  H    0.037851
    60  N   -0.169324
    61  C    0.151233
    62  C    0.032628
    63  O   -0.304936
    64  C    0.064177
    65  C    0.107598
    66  N   -0.033403
    67  O   -0.386071
    68  H    0.149426
    69  H    0.017022
    70  H    0.061314
    71  H    0.016888
    72  H    0.120406
    73  H    0.080042
    74  N   -0.141330
    75  C    0.233072
    76  C    0.051770
    77  O   -0.298531
    78  H    0.154337
    79  H    0.036509
    80  H    0.029858
    81  N   -0.128622
    82  C    0.054264
    83  C    0.153924
    84  O   -0.369616
    85  C    0.199675
    86  C   -0.002983
    87  C   -0.007532
    88  C   -0.004181
    89  C   -0.007853
    90  C   -0.032345
    91  C    0.177745
    92  O   -0.201307
    93  H    0.157115
    94  H   -0.002855
    95  H    0.005457
    96  H   -0.072293
    97  H   -0.004603
    98  H   -0.080511
    99  H   -0.007024
   100  H   -0.061846
   101  H    0.172959
   102  N   -0.125195
   103  C    0.111521
   104  C    0.070881
   105  O   -0.272287
   106  C   -0.104247
   107  C    0.020841
   108  C    0.067188
   109  C    0.041161
   110  H    0.140474
   111  H    0.023568
   112  H   -0.006957
   113  H    0.001303
   114  H   -0.004414
   115  H    0.004643
   116  H    0.019346
   117  H    0.019854
   118  H    0.004642
   119  H    0.009105
   120  H    0.001152
   121  N   -0.150030
   122  C    0.096232
   123  C    0.136127
   124  O   -0.290882
   125  C    0.222871
   126  O   -0.330145
   127  H    0.142364
   128  H    0.003079
   129  H   -0.007243
   130  H   -0.007777
   131  H    0.174491
   132  N   -0.127722
   133  C    0.068027
   134  C    0.088349
   135  O   -0.244194
   136  C    0.034859
   137  H    0.109768
   138  H    0.027643
   139  H    0.050624
   140  H    0.023780
   141  H    0.001042
   142  N   -0.133585
   143  C    0.107669
   144  C    0.038788
   145  O   -0.282588
   146  C    0.032426
   147  H    0.104788
   148  H    0.022772
   149  H    0.014783
   150  H    0.021474
   151  H    0.019675
   152  N   -0.134591
   153  C    0.147383
   154  C    0.056067
   155  O   -0.289285
   156  C   -0.058584
   157  C    0.076606
   158  C    0.178447
   159  O   -0.461479
   160  O   -0.394828
   161  H    0.129188
   162  H   -0.037046
   163  H    0.044637
   164  H    0.013034
   165  H   -0.004587
   166  H   -0.006300
   167  N   -0.157514
   168  C    0.134067
   169  H    0.019365
   170  H    0.039888
   171  H    0.010603
   172  H    0.119827
   173  Ca   1.258717
   174  O   -0.245223
   175  H    0.193076
   176  H    0.195060
 Sum of Mulliken charges =  -0.00000

 Dipole moment (field-independent basis, Debye):
    X=             25.2036    Y=             -1.5844    Z=            -21.2204  Tot=             32.9855
 Quadrupole moment (field-independent basis, Debye-Ang):
   XX=           -657.6293   YY=           -508.7635   ZZ=           -476.4146
   XY=             87.8669   XZ=            -36.5883   YZ=            -25.6929

 ESP charges:
               1
     1  C   -0.418427
     2  C    0.806261
     3  O   -0.622689
     4  H    0.124692
     5  H    0.140648
     6  H    0.067114
     7  N   -0.734388
     8  C    0.203603
     9  C    0.693517
    10  O   -0.587996
    11  C   -0.410876
    12  C    0.877557
    13  O   -0.825640
    14  O   -0.738174
    15  H    0.352354
    16  H    0.088764
    17  H    0.116974
    18  H    0.096233
    19  N   -0.286317
    20  C   -0.395587
    21  C    0.739503
    22  O   -0.579173
    23  C    0.324741
    24  C   -0.255385
    25  C   -0.038264
    26  C    0.152513
    27  N   -0.544671
    28  H    0.065601
    29  H    0.142242
    30  H   -0.044810
    31  H    0.030195
    32  H    0.099102
    33  H    0.058410
    34  H    0.039921
    35  H    0.039123
    36  H    0.074527
    37  H    0.052365
    38  H    0.367508
    39  H    0.354087
    40  H    0.397633
    41  N   -0.582212
    42  C    0.245101
    43  C    0.337195
    44  O   -0.535966
    45  C   -0.382590
    46  C    0.801496
    47  O   -0.775727
    48  O   -0.748317
    49  H    0.436895
    50  H    0.071185
    51  H    0.089768
    52  H    0.118293
    53  N   -0.055751
    54  C   -0.341109
    55  C    0.688939
    56  O   -0.612444
    57  H    0.131906
    58  H    0.131901
    59  H    0.161395
    60  N   -0.486719
    61  C    0.125717
    62  C    0.288605
    63  O   -0.506311
    64  C   -0.390237
    65  C    0.826609
    66  N   -0.743184
    67  O   -0.628540
    68  H    0.303892
    69  H    0.101257
    70  H    0.170565
    71  H    0.096733
    72  H    0.327579
    73  H    0.328791
    74  N   -0.061804
    75  C   -0.228215
    76  C    0.568333
    77  O   -0.571536
    78  H    0.258839
    79  H    0.133123
    80  H    0.108494
    81  N   -0.408300
    82  C    0.334156
    83  C    0.431504
    84  O   -0.531514
    85  C   -0.171467
    86  C   -0.061149
    87  C   -0.051382
    88  C   -0.014660
    89  C   -0.370208
    90  C   -0.436329
    91  C    0.534053
    92  O   -0.591591
    93  H    0.271651
    94  H   -0.019603
    95  H    0.066503
    96  H    0.041216
    97  H    0.139930
    98  H    0.073770
    99  H    0.196351
   100  H    0.148405
   101  H    0.422036
   102  N   -0.553121
   103  C    0.085580
   104  C    0.391058
   105  O   -0.534141
   106  C    0.264865
   107  C    0.110745
   108  C   -0.387837
   109  C   -0.292979
   110  H    0.326453
   111  H    0.104538
   112  H   -0.023187
   113  H   -0.009168
   114  H   -0.006295
   115  H    0.123041
   116  H    0.085066
   117  H    0.031931
   118  H    0.071881
   119  H    0.069452
   120  H    0.055926
   121  N   -0.118811
   122  C    0.112671
   123  C    0.431921
   124  O   -0.411929
   125  C    0.014668
   126  O   -0.471489
   127  H    0.142222
   128  H    0.014191
   129  H    0.025004
   130  H    0.058629
   131  H    0.280532
   132  N   -0.453672
   133  C    0.099803
   134  C    0.492864
   135  O   -0.492584
   136  C   -0.324870
   137  H    0.295564
   138  H    0.103086
   139  H    0.123411
   140  H    0.099606
   141  H    0.081213
   142  N   -0.505454
   143  C    0.210598
   144  C    0.351260
   145  O   -0.532210
   146  C   -0.278811
   147  H    0.318144
   148  H    0.067558
   149  H    0.058723
   150  H    0.084513
   151  H    0.076872
   152  N   -0.008060
   153  C   -0.177266
   154  C    0.518731
   155  O   -0.558482
   156  C    0.081661
   157  C   -0.185192
   158  C    0.788451
   159  O   -0.651750
   160  O   -0.677738
   161  H    0.075514
   162  H    0.082948
   163  H    0.052823
   164  H   -0.076410
   165  H    0.021010
   166  H    0.039290
   167  N   -0.185318
   168  C   -0.097459
   169  H    0.055821
   170  H    0.095558
   171  H    0.040160
   172  H    0.154028
   173  Ca   1.410007
   174  O   -0.602152
   175  H    0.329635
   176  H    0.379043
 Sum of ESP charges =  -0.00000

 Normal termination of Gaussian 16 at Wed Sep 18 16:12:25 2019.
