 Gaussian 16, Revision A.03,
 Gaussian 16:  ES64L-G16RevA.03 25-Dec-2016

 ----------------------------------------------------------------------
 #b3lyp/svp scf=(tight,noincore) Test #IOP(5/87=12) Density=Current Pop
 =(MK,readradii) iop(6/33=2) iop(6/42=6)
 ----------------------------------------------------------------------

 -----------------
 CaMKII_loop3_96.0
 -----------------
 Symbolic Z-matrix:
 Charge =  0 Multiplicity = 1

                         Standard orientation:
 ---------------------------------------------------------------------
 Center     Atomic      Atomic             Coordinates (Angstroms)
 Number     Number       Type             X           Y           Z
 ---------------------------------------------------------------------
      1          6           0        2.086715    2.153956    5.908115
      2          6           0        1.649230    2.113695    4.456741
      3          8           0        2.420772    2.019298    3.495902
      4          1           0        3.013838    1.591681    6.023548
      5          1           0        2.250486    3.188317    6.210159
      6          1           0        1.312606    1.710434    6.533631
      7          7           0        0.347469    2.168438    4.194022
      8          6           0       -0.399926    2.150269    2.948723
      9          6           0       -0.463753    3.559035    2.375132
     10          8           0       -1.044461    4.461336    2.977818
     11          6           0       -1.770197    1.512016    3.163877
     12          6           0       -2.580633    1.382801    1.877410
     13          8           0       -3.634430    0.702010    1.892725
     14          8           0       -2.066817    1.719584    0.789443
     15          1           0       -0.248906    2.046502    4.998924
     16          1           0        0.037607    1.423688    2.271047
     17          1           0       -2.301418    2.145701    3.876090
     18          1           0       -1.610241    0.505885    3.529275
     19          7           0        0.060821    3.776983    1.158859
     20          6           0        0.204634    5.118440    0.643193
     21          6           0       -0.871340    5.425418   -0.393023
     22          8           0       -1.118794    6.601337   -0.654904
     23          6           0        1.557135    5.176717   -0.059620
     24          6           0        2.058067    6.596440   -0.293611
     25          6           0        3.395113    6.585792   -1.029747
     26          6           0        3.278143    6.082323   -2.460913
     27          7           0        4.526105    6.204435   -3.229275
     28          1           0        0.340405    3.011117    0.566675
     29          1           0        0.117486    5.891146    1.408066
     30          1           0        1.482100    4.636300   -0.998672
     31          1           0        2.295470    4.638766    0.542601
     32          1           0        2.276400    7.103330    0.657332
     33          1           0        1.455937    7.294124   -0.884270
     34          1           0        4.074717    5.897018   -0.523458
     35          1           0        3.920530    7.538568   -1.008471
     36          1           0        2.456496    6.608092   -2.951283
     37          1           0        3.024637    5.021553   -2.480955
     38          1           0        4.461716    6.054971   -4.228682
     39          1           0        4.813915    7.167245   -3.133556
     40          1           0        5.176440    5.550125   -2.819710
     41          7           0       -1.565316    4.447386   -0.977105
     42          6           0       -2.663915    4.717558   -1.869678
     43          6           0       -3.996741    4.585017   -1.142417
     44          8           0       -4.973225    5.222233   -1.521409
     45          6           0       -2.533975    3.907765   -3.153870
     46          6           0       -2.402452    2.402594   -2.919430
     47          8           0       -2.900396    1.903313   -1.883829
     48          8           0       -1.867761    1.694240   -3.799907
     49          1           0       -1.423632    3.487033   -0.682914
     50          1           0       -2.638802    5.754861   -2.199330
     51          1           0       -1.665750    4.341891   -3.638248
     52          1           0       -3.380277    4.067531   -3.824055
     53          7           0       -4.059224    3.748841   -0.098096
     54          6           0       -5.236859    3.693610    0.751389
     55          6           0       -6.169314    2.581284    0.282604
     56          8           0       -7.366088    2.723051    0.547430
     57          1           0       -3.278061    3.141928    0.104738
     58          1           0       -5.782844    4.632730    0.652620
     59          1           0       -4.956380    3.502312    1.785234
     60          7           0       -5.762862    1.593608   -0.512817
     61          6           0       -6.487701    0.458776   -1.049346
     62          6           0       -6.723883   -0.680390   -0.077998
     63          8           0       -7.454206   -1.629737   -0.353443
     64          6           0       -5.863037   -0.000194   -2.361346
     65          6           0       -4.764245   -1.033171   -2.141772
     66          7           0       -4.629107   -1.937453   -3.115893
     67          8           0       -4.060297   -1.149488   -1.147323
     68          1           0       -4.794826    1.596049   -0.801783
     69          1           0       -7.428432    0.950597   -1.285223
     70          1           0       -5.378346    0.811948   -2.918571
     71          1           0       -6.625980   -0.556904   -2.902633
     72          1           0       -5.330155   -1.986664   -3.838326
     73          1           0       -4.025219   -2.747715   -3.040426
     74          7           0       -6.192895   -0.612748    1.156334
     75          6           0       -6.329209   -1.479914    2.305003
     76          6           0       -5.289079   -2.586155    2.394227
     77          8           0       -5.479738   -3.482782    3.214904
     78          1           0       -5.552065    0.145315    1.331773
     79          1           0       -7.342469   -1.873619    2.304890
     80          1           0       -6.180998   -0.877884    3.208714
     81          7           0       -4.170601   -2.533905    1.677375
     82          6           0       -3.041704   -3.425143    1.832888
     83          6           0       -1.694255   -2.831482    1.447468
     84          8           0       -1.621662   -1.727087    0.903003
     85          6           0       -3.424591   -4.712286    1.110695
     86          6           0       -3.920499   -4.695663   -0.317205
     87          6           0       -5.271101   -4.486508   -0.615580
     88          6           0       -3.058731   -5.177964   -1.297787
     89          6           0       -5.766498   -4.739208   -1.900774
     90          6           0       -3.522054   -5.522103   -2.579778
     91          6           0       -4.891651   -5.314107   -2.845938
     92          8           0       -5.451331   -5.539049   -4.068705
     93          1           0       -4.159514   -1.982321    0.828416
     94          1           0       -2.957980   -3.667085    2.891687
     95          1           0       -4.178830   -5.267837    1.670327
     96          1           0       -2.549244   -5.367241    1.153151
     97          1           0       -5.997312   -4.298667    0.154961
     98          1           0       -2.063523   -5.414551   -0.939894
     99          1           0       -6.746136   -4.375085   -2.145565
    100          1           0       -2.906513   -5.914816   -3.376388
    101          1           0       -4.733920   -5.854160   -4.637938
    102          7           0       -0.579702   -3.517172    1.682629
    103          6           0        0.785343   -3.035174    1.586037
    104          6           0        1.505564   -3.821419    0.495532
    105          8           0        1.313952   -5.013742    0.283754
    106          6           0        1.515747   -3.212562    2.913607
    107          6           0        0.840069   -2.528026    4.088796
    108          6           0        2.937892   -2.668475    2.800148
    109          6           0        1.290822   -2.999664    5.467484
    110          1           0       -0.678534   -4.456201    2.059267
    111          1           0        0.836025   -2.004230    1.224670
    112          1           0        1.559927   -4.296318    3.034117
    113          1           0       -0.242421   -2.656409    3.989126
    114          1           0        1.097171   -1.470389    4.014619
    115          1           0        3.458366   -2.695356    3.751718
    116          1           0        3.500554   -3.337123    2.148672
    117          1           0        2.870809   -1.649143    2.412384
    118          1           0        2.335492   -2.750358    5.682684
    119          1           0        0.658492   -2.569830    6.243113
    120          1           0        1.229661   -4.086352    5.528879
    121          7           0        2.496834   -3.154793   -0.109691
    122          6           0        3.438261   -3.686413   -1.079224
    123          6           0        4.861885   -3.446530   -0.588152
    124          8           0        5.158767   -2.624381    0.271459
    125          6           0        3.269342   -2.978753   -2.413609
    126          8           0        3.749834   -1.654063   -2.408538
    127          1           0        2.742336   -2.308762    0.385244
    128          1           0        3.275329   -4.734364   -1.296831
    129          1           0        2.225068   -2.846285   -2.692434
    130          1           0        3.704746   -3.582473   -3.215385
    131          1           0        3.475557   -1.257809   -3.241998
    132          7           0        5.796062   -4.036517   -1.340567
    133          6           0        7.204929   -3.773820   -1.111910
    134          6           0        7.708102   -2.347691   -1.279164
    135          8           0        8.427244   -1.912030   -0.383153
    136          6           0        8.081621   -4.724089   -1.926711
    137          1           0        5.549177   -4.686897   -2.074497
    138          1           0        7.428331   -4.001354   -0.072670
    139          1           0        9.147391   -4.551681   -1.745296
    140          1           0        7.908028   -5.761759   -1.650475
    141          1           0        7.846951   -4.747450   -2.990940
    142          7           0        7.180354   -1.624667   -2.265834
    143          6           0        7.402700   -0.205770   -2.449934
    144          6           0        6.823741    0.702565   -1.380386
    145          8           0        7.357513    1.763290   -1.046097
    146          6           0        6.888285    0.224225   -3.817992
    147          1           0        6.588540   -2.118351   -2.908821
    148          1           0        8.470617    0.010941   -2.430175
    149          1           0        5.809136    0.363795   -3.732217
    150          1           0        7.434616    1.105244   -4.150148
    151          1           0        7.044932   -0.503566   -4.620976
    152          7           0        5.682882    0.329495   -0.793819
    153          6           0        5.024706    1.010921    0.304662
    154          6           0        5.808339    0.729829    1.572971
    155          8           0        6.077491    1.642418    2.357406
    156          6           0        3.560362    0.620631    0.485691
    157          6           0        2.772206    1.334949   -0.608274
    158          6           0        1.282304    1.034600   -0.538408
    159          8           0        0.729562    0.130107    0.124365
    160          8           0        0.478959    1.694682   -1.249062
    161          1           0        5.309471   -0.562297   -1.095763
    162          1           0        5.082132    2.086934    0.132037
    163          1           0        3.257126    0.953737    1.479818
    164          1           0        3.339686   -0.445860    0.348222
    165          1           0        3.090229    1.159120   -1.631478
    166          1           0        2.833426    2.415614   -0.561209
    167          7           0        6.269292   -0.484273    1.853822
    168          6           0        7.163955   -0.785896    2.954051
    169          1           0        8.017654   -1.353041    2.582440
    170          1           0        7.513658    0.142895    3.403829
    171          1           0        6.634730   -1.375556    3.702243
    172          1           0        6.036212   -1.321625    1.326172
    173         20           0       -1.575550   -0.009305   -1.065981
    174          8           0       -1.443753   -2.530300   -2.109587
    175          1           0       -1.425156   -3.479312   -2.225910
    176          1           0       -0.924580   -2.177691   -2.830646
 ---------------------------------------------------------------------

 SCF Done:  E(RB3LYP) =  -5333.57482351     A.U. after   18 cycles

 The electronic state is 1-A.
 Alpha  occ. eigenvalues -- -145.36531 -19.20067 -19.19538 -19.17514 -19.16099
 Alpha  occ. eigenvalues --  -19.12221 -19.11971 -19.11075 -19.10953 -19.09725
 Alpha  occ. eigenvalues --  -19.07074 -19.06228 -19.06092 -19.05995 -19.05931
 Alpha  occ. eigenvalues --  -19.05723 -19.05652 -19.05171 -19.04747 -19.03694
 Alpha  occ. eigenvalues --  -19.03350 -19.03241 -19.02950 -19.02140 -15.42258
 Alpha  occ. eigenvalues --  -14.57986 -14.41452 -14.39161 -14.37744 -14.37056
 Alpha  occ. eigenvalues --  -14.35472 -14.35236 -14.32505 -14.32078 -14.31631
 Alpha  occ. eigenvalues --  -14.31510 -14.31127 -14.30164 -14.29730 -14.28061
 Alpha  occ. eigenvalues --  -12.55889 -12.55830 -12.55810 -10.34310 -10.33446
 Alpha  occ. eigenvalues --  -10.30997 -10.30124 -10.30099 -10.29738 -10.29504
 Alpha  occ. eigenvalues --  -10.28715 -10.28679 -10.26953 -10.26142 -10.26132
 Alpha  occ. eigenvalues --  -10.26074 -10.25955 -10.25868 -10.24934 -10.24582
 Alpha  occ. eigenvalues --  -10.24564 -10.24520 -10.24441 -10.23906 -10.23241
 Alpha  occ. eigenvalues --  -10.23200 -10.23188 -10.23086 -10.22795 -10.22250
 Alpha  occ. eigenvalues --  -10.22134 -10.22093 -10.21784 -10.21129 -10.20852
 Alpha  occ. eigenvalues --  -10.20628 -10.20364 -10.20195 -10.19955 -10.19363
 Alpha  occ. eigenvalues --  -10.19362 -10.19289 -10.19283 -10.18998 -10.18937
 Alpha  occ. eigenvalues --  -10.18909 -10.18822 -10.18703 -10.18410 -10.18214
 Alpha  occ. eigenvalues --  -10.18004 -10.17952 -10.17861 -10.17844 -10.16808
 Alpha  occ. eigenvalues --  -10.15246 -10.14932  -1.79179  -1.13218  -1.09463
 Alpha  occ. eigenvalues --   -1.08045  -1.07018  -1.06742  -1.06562  -1.06267
 Alpha  occ. eigenvalues --   -1.05479  -1.05296  -1.05118  -1.03982  -1.03884
 Alpha  occ. eigenvalues --   -1.02695  -1.02177  -0.99793  -0.99472  -0.99323
 Alpha  occ. eigenvalues --   -0.98799  -0.98693  -0.98542  -0.98476  -0.98044
 Alpha  occ. eigenvalues --   -0.97894  -0.96647  -0.95875  -0.95852  -0.95060
 Alpha  occ. eigenvalues --   -0.93537  -0.91757  -0.90495  -0.90263  -0.89698
 Alpha  occ. eigenvalues --   -0.89476  -0.88853  -0.88686  -0.87910  -0.87820
 Alpha  occ. eigenvalues --   -0.87454  -0.87357  -0.87355  -0.86411  -0.85493
 Alpha  occ. eigenvalues --   -0.84711  -0.84251  -0.82573  -0.81229  -0.79955
 Alpha  occ. eigenvalues --   -0.79655  -0.78839  -0.78280  -0.76316  -0.75935
 Alpha  occ. eigenvalues --   -0.75365  -0.75205  -0.74497  -0.73434  -0.73321
 Alpha  occ. eigenvalues --   -0.73218  -0.72437  -0.71580  -0.71316  -0.70782
 Alpha  occ. eigenvalues --   -0.70661  -0.69911  -0.69477  -0.67787  -0.67691
 Alpha  occ. eigenvalues --   -0.66927  -0.66836  -0.66079  -0.65477  -0.64725
 Alpha  occ. eigenvalues --   -0.63743  -0.63305  -0.63120  -0.62763  -0.62401
 Alpha  occ. eigenvalues --   -0.62195  -0.61621  -0.60956  -0.60666  -0.60290
 Alpha  occ. eigenvalues --   -0.59671  -0.59302  -0.59234  -0.59075  -0.58916
 Alpha  occ. eigenvalues --   -0.58016  -0.57793  -0.57443  -0.56485  -0.56100
 Alpha  occ. eigenvalues --   -0.55846  -0.55625  -0.55443  -0.55246  -0.54991
 Alpha  occ. eigenvalues --   -0.54789  -0.54218  -0.53769  -0.53535  -0.53411
 Alpha  occ. eigenvalues --   -0.53253  -0.52684  -0.52443  -0.52161  -0.51915
 Alpha  occ. eigenvalues --   -0.51567  -0.51295  -0.50953  -0.50312  -0.49861
 Alpha  occ. eigenvalues --   -0.49749  -0.49406  -0.49365  -0.49167  -0.48408
 Alpha  occ. eigenvalues --   -0.48245  -0.48084  -0.47944  -0.47935  -0.47659
 Alpha  occ. eigenvalues --   -0.47592  -0.47322  -0.47253  -0.47149  -0.46890
 Alpha  occ. eigenvalues --   -0.46529  -0.46380  -0.46268  -0.46127  -0.45883
 Alpha  occ. eigenvalues --   -0.45511  -0.45310  -0.45123  -0.44887  -0.44720
 Alpha  occ. eigenvalues --   -0.44613  -0.44264  -0.44146  -0.44078  -0.43878
 Alpha  occ. eigenvalues --   -0.43751  -0.43480  -0.43346  -0.43252  -0.43072
 Alpha  occ. eigenvalues --   -0.42934  -0.42893  -0.42634  -0.42547  -0.42458
 Alpha  occ. eigenvalues --   -0.42201  -0.42008  -0.41871  -0.41705  -0.41481
 Alpha  occ. eigenvalues --   -0.41393  -0.41336  -0.41158  -0.40986  -0.40785
 Alpha  occ. eigenvalues --   -0.40753  -0.40693  -0.40527  -0.40321  -0.40085
 Alpha  occ. eigenvalues --   -0.40007  -0.39758  -0.39642  -0.39619  -0.39521
 Alpha  occ. eigenvalues --   -0.39287  -0.39079  -0.38892  -0.38787  -0.38716
 Alpha  occ. eigenvalues --   -0.38672  -0.38349  -0.38321  -0.38167  -0.38099
 Alpha  occ. eigenvalues --   -0.38027  -0.37957  -0.37891  -0.37574  -0.37362
 Alpha  occ. eigenvalues --   -0.37289  -0.37062  -0.36935  -0.36881  -0.36721
 Alpha  occ. eigenvalues --   -0.36567  -0.36331  -0.36117  -0.35771  -0.35593
 Alpha  occ. eigenvalues --   -0.35292  -0.35119  -0.34896  -0.34859  -0.34719
 Alpha  occ. eigenvalues --   -0.34640  -0.34427  -0.34333  -0.34308  -0.33997
 Alpha  occ. eigenvalues --   -0.33961  -0.33870  -0.33794  -0.33413  -0.33275
 Alpha  occ. eigenvalues --   -0.33066  -0.33057  -0.32793  -0.32533  -0.32413
 Alpha  occ. eigenvalues --   -0.32021  -0.31769  -0.31694  -0.31027  -0.30646
 Alpha  occ. eigenvalues --   -0.30119  -0.30067  -0.29265  -0.28728  -0.27961
 Alpha  occ. eigenvalues --   -0.27562  -0.27255  -0.26746  -0.26686  -0.26510
 Alpha  occ. eigenvalues --   -0.26233  -0.26115  -0.25441  -0.24936  -0.24361
 Alpha  occ. eigenvalues --   -0.24103  -0.23735  -0.23472  -0.23332  -0.23018
 Alpha  occ. eigenvalues --   -0.22775  -0.22567  -0.22373  -0.22146  -0.21914
 Alpha  occ. eigenvalues --   -0.21737  -0.21459  -0.21323  -0.21003  -0.20786
 Alpha  occ. eigenvalues --   -0.20620  -0.20340  -0.20213  -0.19664  -0.19167
 Alpha  occ. eigenvalues --   -0.18466  -0.17964  -0.17376
 Alpha virt. eigenvalues --   -0.10001  -0.05050  -0.04186  -0.04097  -0.03564
 Alpha virt. eigenvalues --   -0.02856  -0.02296  -0.01540  -0.00936  -0.00400
 Alpha virt. eigenvalues --   -0.00093   0.00568   0.00645   0.00913   0.01323

 Mulliken charges:
               1
     1  C    0.060240
     2  C    0.008047
     3  O   -0.292289
     4  H    0.034323
     5  H    0.046944
     6  H    0.004138
     7  N   -0.102646
     8  C    0.087005
     9  C    0.109669
    10  O   -0.287228
    11  C    0.044347
    12  C    0.152690
    13  O   -0.371788
    14  O   -0.472112
    15  H    0.103091
    16  H    0.003266
    17  H    0.014409
    18  H    0.011112
    19  N   -0.157604
    20  C    0.167069
    21  C    0.039623
    22  O   -0.301028
    23  C   -0.039320
    24  C    0.074539
    25  C   -0.035465
    26  C   -0.020662
    27  N    0.081852
    28  H    0.154316
    29  H    0.023082
    30  H    0.006382
    31  H    0.039766
    32  H    0.022953
    33  H    0.029609
    34  H    0.020451
    35  H    0.007105
    36  H    0.078590
    37  H    0.085491
    38  H    0.191110
    39  H    0.185356
    40  H    0.204965
    41  N   -0.149047
    42  C    0.118275
    43  C    0.067244
    44  O   -0.289574
    45  C    0.114242
    46  C    0.118902
    47  O   -0.480676
    48  O   -0.389457
    49  H    0.166971
    50  H    0.000121
    51  H   -0.023646
    52  H    0.015810
    53  N   -0.199238
    54  C    0.260859
    55  C    0.002549
    56  O   -0.307905
    57  H    0.160651
    58  H    0.028946
    59  H    0.027264
    60  N   -0.167387
    61  C    0.157277
    62  C    0.058369
    63  O   -0.303955
    64  C    0.065228
    65  C    0.047263
    66  N   -0.040882
    67  O   -0.338957
    68  H    0.145949
    69  H    0.025311
    70  H    0.074864
    71  H    0.019136
    72  H    0.119497
    73  H    0.127421
    74  N   -0.162319
    75  C    0.243679
    76  C    0.015900
    77  O   -0.312194
    78  H    0.146060
    79  H    0.025925
    80  H    0.041195
    81  N   -0.134034
    82  C    0.147931
    83  C    0.121795
    84  O   -0.331368
    85  C    0.108401
    86  C   -0.012510
    87  C    0.005972
    88  C   -0.057754
    89  C   -0.027545
    90  C   -0.051265
    91  C    0.126404
    92  O   -0.194249
    93  H    0.172185
    94  H    0.010530
    95  H    0.030867
    96  H   -0.036817
    97  H    0.015694
    98  H   -0.013639
    99  H   -0.000960
   100  H   -0.052123
   101  H    0.166893
   102  N   -0.114782
   103  C    0.105176
   104  C    0.043872
   105  O   -0.285921
   106  C   -0.097137
   107  C    0.044274
   108  C    0.041513
   109  C    0.032800
   110  H    0.127776
   111  H    0.041103
   112  H   -0.027722
   113  H   -0.003719
   114  H    0.015075
   115  H    0.008068
   116  H    0.010157
   117  H    0.032009
   118  H    0.010841
   119  H    0.016319
   120  H   -0.003378
   121  N   -0.153984
   122  C    0.108204
   123  C    0.120045
   124  O   -0.269623
   125  C    0.225016
   126  O   -0.302125
   127  H    0.180190
   128  H    0.026438
   129  H   -0.010100
   130  H   -0.017560
   131  H    0.185297
   132  N   -0.120630
   133  C    0.081494
   134  C    0.055740
   135  O   -0.247630
   136  C    0.023201
   137  H    0.120342
   138  H    0.027961
   139  H    0.050873
   140  H    0.020911
   141  H    0.000826
   142  N   -0.117809
   143  C    0.102474
   144  C    0.048664
   145  O   -0.282282
   146  C    0.041088
   147  H    0.098971
   148  H    0.023612
   149  H   -0.005856
   150  H    0.028701
   151  H    0.010300
   152  N   -0.161973
   153  C    0.152428
   154  C    0.062272
   155  O   -0.283403
   156  C    0.023037
   157  C    0.096380
   158  C    0.102747
   159  O   -0.396896
   160  O   -0.434474
   161  H    0.134376
   162  H   -0.027369
   163  H    0.076131
   164  H   -0.012682
   165  H   -0.030881
   166  H   -0.047140
   167  N   -0.168874
   168  C    0.123928
   169  H    0.017670
   170  H    0.037474
   171  H    0.003039
   172  H    0.119193
   173  Ca   1.255243
   174  O   -0.267825
   175  H    0.174516
   176  H    0.168536
 Sum of Mulliken charges =  -0.00000

 Dipole moment (field-independent basis, Debye):
    X=             32.0603    Y=             -5.3015    Z=            -22.9966  Tot=             39.8097
 Quadrupole moment (field-independent basis, Debye-Ang):
   XX=           -663.6180   YY=           -469.9997   ZZ=           -477.1520
   XY=             91.1250   XZ=            -83.7902   YZ=            -29.1402

 ESP charges:
               1
     1  C   -0.457128
     2  C    0.862564
     3  O   -0.666868
     4  H    0.127088
     5  H    0.134919
     6  H    0.095620
     7  N   -0.797041
     8  C    0.316793
     9  C    0.631240
    10  O   -0.576520
    11  C   -0.362133
    12  C    0.811890
    13  O   -0.738824
    14  O   -0.591494
    15  H    0.342857
    16  H    0.060598
    17  H    0.081815
    18  H    0.075836
    19  N   -0.386885
    20  C   -0.063478
    21  C    0.550742
    22  O   -0.584558
    23  C    0.078365
    24  C   -0.264938
    25  C    0.083448
    26  C    0.110262
    27  N   -0.581002
    28  H    0.127571
    29  H    0.122874
    30  H   -0.012375
    31  H    0.077223
    32  H    0.106255
    33  H    0.083799
    34  H   -0.006598
    35  H    0.006253
    36  H    0.083859
    37  H    0.077415
    38  H    0.390551
    39  H    0.363510
    40  H    0.390172
    41  N   -0.326278
    42  C    0.194197
    43  C    0.386941
    44  O   -0.555201
    45  C   -0.309584
    46  C    0.910617
    47  O   -0.873063
    48  O   -0.760639
    49  H    0.182792
    50  H    0.056297
    51  H    0.045048
    52  H    0.096512
    53  N   -0.017705
    54  C   -0.363083
    55  C    0.633357
    56  O   -0.599052
    57  H    0.015316
    58  H    0.171651
    59  H    0.137721
    60  N   -0.307347
    61  C   -0.087214
    62  C    0.437420
    63  O   -0.539368
    64  C   -0.279045
    65  C    0.656540
    66  N   -0.816741
    67  O   -0.505542
    68  H    0.271729
    69  H    0.143967
    70  H    0.140430
    71  H    0.100815
    72  H    0.370546
    73  H    0.350820
    74  N   -0.100304
    75  C   -0.472957
    76  C    0.724286
    77  O   -0.592369
    78  H    0.201461
    79  H    0.178977
    80  H    0.189939
    81  N   -0.431407
    82  C   -0.160048
    83  C    0.952715
    84  O   -0.669292
    85  C   -0.131307
    86  C   -0.028146
    87  C   -0.044207
    88  C    0.036984
    89  C   -0.312306
    90  C   -0.475786
    91  C    0.452786
    92  O   -0.549388
    93  H    0.323141
    94  H    0.123252
    95  H    0.111371
    96  H    0.019462
    97  H    0.138720
    98  H    0.089695
    99  H    0.192985
   100  H    0.156903
   101  H    0.395027
   102  N   -0.773121
   103  C    0.019320
   104  C    0.719163
   105  O   -0.578774
   106  C    0.370669
   107  C    0.023940
   108  C   -0.498262
   109  C   -0.280120
   110  H    0.339601
   111  H    0.056791
   112  H   -0.050148
   113  H   -0.006662
   114  H    0.051123
   115  H    0.148191
   116  H    0.090132
   117  H    0.074731
   118  H    0.063567
   119  H    0.086226
   120  H    0.051851
   121  N   -0.712245
   122  C    0.322063
   123  C    0.396123
   124  O   -0.354468
   125  C    0.003432
   126  O   -0.405229
   127  H    0.422960
   128  H    0.027820
   129  H    0.050814
   130  H    0.010305
   131  H    0.378056
   132  N   -0.525345
   133  C    0.241989
   134  C    0.496929
   135  O   -0.510740
   136  C   -0.392295
   137  H    0.318453
   138  H    0.065889
   139  H    0.132118
   140  H    0.110308
   141  H    0.090574
   142  N   -0.512434
   143  C    0.266763
   144  C    0.326786
   145  O   -0.534341
   146  C   -0.325279
   147  H    0.276591
   148  H    0.065163
   149  H    0.059168
   150  H    0.101785
   151  H    0.092249
   152  N    0.007524
   153  C   -0.045887
   154  C    0.502100
   155  O   -0.559681
   156  C   -0.263690
   157  C    0.023948
   158  C    0.694386
   159  O   -0.712078
   160  O   -0.763578
   161  H   -0.067658
   162  H    0.073608
   163  H    0.210989
   164  H   -0.058198
   165  H   -0.004679
   166  H    0.022894
   167  N   -0.129906
   168  C   -0.174953
   169  H    0.070525
   170  H    0.108404
   171  H    0.048318
   172  H    0.166769
   173  Ca   1.597639
   174  O   -0.827543
   175  H    0.399260
   176  H    0.402589
 Sum of ESP charges =  -0.00000

 Normal termination of Gaussian 16 at Sun Sep 15 01:16:00 2019.
