 Gaussian 16, Revision A.03,
 Gaussian 16:  ES64L-G16RevA.03 25-Dec-2016

 ----------------------------------------------------------------------
 #b3lyp/svp scf=(tight,noincore) Test #IOP(5/87=12) Density=Current Pop
 =(MK,readradii) iop(6/33=2) iop(6/42=6)
 ----------------------------------------------------------------------

 -----------------
 CaMKII_loop3_77.0
 -----------------
 Symbolic Z-matrix:
 Charge =  0 Multiplicity = 1

                         Standard orientation:
 ---------------------------------------------------------------------
 Center     Atomic      Atomic             Coordinates (Angstroms)
 Number     Number       Type             X           Y           Z
 ---------------------------------------------------------------------
      1          6           0        1.820373    3.982030    4.597409
      2          6           0        1.275025    3.615247    3.219379
      3          8           0        2.029619    3.514551    2.252504
      4          1           0        2.883679    3.745805    4.641915
      5          1           0        1.678279    5.047665    4.773141
      6          1           0        1.290857    3.413959    5.361637
      7          7           0       -0.037325    3.380609    3.157878
      8          6           0       -0.739307    2.864177    2.005394
      9          6           0       -1.189915    3.937597    1.023141
     10          8           0       -2.115935    4.732570    1.135854
     11          6           0       -1.986313    2.184641    2.554217
     12          6           0       -2.871541    1.438583    1.573468
     13          8           0       -3.931512    0.931321    2.015336
     14          8           0       -2.433929    1.240601    0.424773
     15          1           0       -0.550263    3.661112    3.979592
     16          1           0       -0.089439    2.123335    1.539964
     17          1           0       -2.454725    3.025305    3.078884
     18          1           0       -1.784414    1.495802    3.366644
     19          7           0       -0.366566    4.076588   -0.018050
     20          6           0       -0.428478    5.179154   -0.957099
     21          6           0       -1.650156    5.133482   -1.864633
     22          8           0       -2.067058    6.252503   -2.169402
     23          6           0        0.960896    5.186730   -1.599735
     24          6           0        2.263792    5.405132   -0.840418
     25          6           0        2.264722    6.630408    0.069855
     26          6           0        3.339468    6.697414    1.148433
     27          7           0        3.373662    8.045280    1.729973
     28          1           0        0.465658    3.507004   -0.047685
     29          1           0       -0.546576    6.060653   -0.331869
     30          1           0        0.842238    5.996079   -2.316516
     31          1           0        1.046589    4.307910   -2.231504
     32          1           0        3.085032    5.595206   -1.529066
     33          1           0        2.520940    4.505577   -0.281064
     34          1           0        1.287047    6.804644    0.536004
     35          1           0        2.371734    7.494948   -0.580390
     36          1           0        4.327146    6.436645    0.750196
     37          1           0        3.161969    6.011718    1.976572
     38          1           0        4.111543    8.077064    2.414239
     39          1           0        3.617248    8.742508    1.037846
     40          1           0        2.532861    8.216680    2.281313
     41          7           0       -2.193486    3.968784   -2.187852
     42          6           0       -3.389725    3.798566   -2.997196
     43          6           0       -4.656272    3.453588   -2.229766
     44          8           0       -5.711948    3.469122   -2.864358
     45          6           0       -3.181241    2.694483   -4.023906
     46          6           0       -2.525989    1.466895   -3.415489
     47          8           0       -1.391746    1.095810   -3.759422
     48          8           0       -3.215364    0.856943   -2.558273
     49          1           0       -1.752499    3.089201   -1.934937
     50          1           0       -3.619023    4.745273   -3.491734
     51          1           0       -2.482232    3.070612   -4.779958
     52          1           0       -4.072242    2.426156   -4.596809
     53          7           0       -4.612018    3.251580   -0.910738
     54          6           0       -5.828672    3.168784   -0.130226
     55          6           0       -6.508954    1.803951   -0.162601
     56          8           0       -7.534920    1.610312    0.483926
     57          1           0       -3.722639    3.068670   -0.484066
     58          1           0       -6.507319    4.019789   -0.241716
     59          1           0       -5.494665    3.162348    0.903504
     60          7           0       -5.911222    0.788096   -0.788185
     61          6           0       -6.376025   -0.566963   -0.997403
     62          6           0       -6.523512   -1.453953    0.226565
     63          8           0       -7.208191   -2.466558    0.100294
     64          6           0       -5.716084   -1.307980   -2.155147
     65          6           0       -4.273118   -1.738860   -1.912467
     66          7           0       -3.670213   -2.237113   -2.993970
     67          8           0       -3.670009   -1.657034   -0.845666
     68          1           0       -5.002479    1.000987   -1.182347
     69          1           0       -7.418884   -0.489420   -1.303071
     70          1           0       -5.774478   -0.655993   -3.020943
     71          1           0       -6.135473   -2.309907   -2.261239
     72          1           0       -4.174768   -2.125438   -3.858176
     73          1           0       -2.797869   -2.698311   -2.795695
     74          7           0       -5.954366   -1.155736    1.397393
     75          6           0       -6.217980   -1.918378    2.605485
     76          6           0       -5.034854   -2.818632    2.949513
     77          8           0       -5.165774   -3.647131    3.855355
     78          1           0       -5.395741   -0.313124    1.466985
     79          1           0       -7.094030   -2.566383    2.552314
     80          1           0       -6.494880   -1.158242    3.340957
     81          7           0       -3.912442   -2.698856    2.253565
     82          6           0       -2.607757   -3.252943    2.580497
     83          6           0       -1.441426   -2.381674    2.158284
     84          8           0       -1.407176   -1.602670    1.206560
     85          6           0       -2.454760   -4.709983    2.142974
     86          6           0       -2.657523   -5.003466    0.672411
     87          6           0       -3.904804   -5.025153    0.039230
     88          6           0       -1.545805   -5.243857   -0.133378
     89          6           0       -4.124844   -5.316611   -1.314297
     90          6           0       -1.728215   -5.698053   -1.449483
     91          6           0       -2.989000   -5.689844   -2.064669
     92          8           0       -3.249215   -6.157723   -3.321959
     93          1           0       -3.916584   -2.186626    1.382816
     94          1           0       -2.446726   -3.240617    3.653305
     95          1           0       -3.275435   -5.302953    2.556713
     96          1           0       -1.553745   -5.152018    2.558759
     97          1           0       -4.782749   -4.874888    0.658934
     98          1           0       -0.611370   -5.364452    0.401399
     99          1           0       -5.105668   -5.343256   -1.755969
    100          1           0       -0.899580   -6.118319   -1.996604
    101          1           0       -2.511593   -6.455605   -3.857290
    102          7           0       -0.355521   -2.591757    2.899819
    103          6           0        0.947637   -1.993195    2.666575
    104          6           0        1.735842   -2.964787    1.788087
    105          8           0        1.746386   -4.172995    2.036122
    106          6           0        1.658869   -1.714345    3.981753
    107          6           0        0.937685   -0.564834    4.692750
    108          6           0        3.094048   -1.233264    3.764904
    109          6           0        1.337388   -0.361664    6.144391
    110          1           0       -0.372041   -3.386214    3.512652
    111          1           0        0.884794   -0.998709    2.223124
    112          1           0        1.654047   -2.583280    4.643741
    113          1           0       -0.131135   -0.754124    4.666414
    114          1           0        1.016687    0.372151    4.134523
    115          1           0        3.752172   -1.978878    3.302484
    116          1           0        3.086837   -0.445734    3.006850
    117          1           0        3.553844   -0.820784    4.652737
    118          1           0        2.350919   -0.011370    6.311870
    119          1           0        0.639384    0.313699    6.638026
    120          1           0        1.357874   -1.360754    6.597049
    121          7           0        2.382796   -2.602394    0.687940
    122          6           0        3.191400   -3.464828   -0.139869
    123          6           0        4.676257   -3.150302   -0.059411
    124          8           0        5.074710   -2.083389    0.406457
    125          6           0        2.697576   -3.320027   -1.578955
    126          8           0        3.002914   -2.074392   -2.168923
    127          1           0        2.432260   -1.608004    0.467843
    128          1           0        2.944353   -4.487428    0.145538
    129          1           0        1.647397   -3.596863   -1.595899
    130          1           0        3.221361   -4.002111   -2.236611
    131          1           0        2.412367   -1.351919   -1.928534
    132          7           0        5.548724   -4.040951   -0.542364
    133          6           0        6.967459   -3.729364   -0.517756
    134          6           0        7.394613   -2.503098   -1.306433
    135          8           0        8.356471   -1.844334   -0.940019
    136          6           0        7.839186   -4.914591   -0.934201
    137          1           0        5.279223   -4.950045   -0.879141
    138          1           0        7.284780   -3.521436    0.502966
    139          1           0        8.867696   -4.647190   -0.706684
    140          1           0        7.506268   -5.814151   -0.417522
    141          1           0        7.854847   -5.044150   -2.013075
    142          7           0        6.804150   -2.156244   -2.459102
    143          6           0        6.951782   -0.926875   -3.207070
    144          6           0        6.566331    0.264899   -2.353255
    145          8           0        7.388735    1.179780   -2.261354
    146          6           0        6.114273   -1.018777   -4.477477
    147          1           0        5.946950   -2.683216   -2.571396
    148          1           0        8.002883   -0.762116   -3.470016
    149          1           0        5.062193   -1.035948   -4.210394
    150          1           0        6.324169   -0.133924   -5.078708
    151          1           0        6.364651   -1.902993   -5.071171
    152          7           0        5.528287    0.200284   -1.502261
    153          6           0        5.139533    1.265538   -0.607439
    154          6           0        5.988230    1.331899    0.658226
    155          8           0        6.071440    2.421602    1.227544
    156          6           0        3.652901    1.157979   -0.288446
    157          6           0        2.769124    1.229828   -1.537756
    158          6           0        1.357282    0.895444   -1.085885
    159          8           0        0.344263    1.560358   -1.405857
    160          8           0        1.123487   -0.155204   -0.449426
    161          1           0        5.100374   -0.709798   -1.406135
    162          1           0        5.379286    2.230546   -1.063814
    163          1           0        3.282906    1.966377    0.347005
    164          1           0        3.458784    0.189161    0.169604
    165          1           0        3.082115    0.597294   -2.369224
    166          1           0        2.814141    2.248268   -1.940067
    167          7           0        6.526464    0.273835    1.258397
    168          6           0        7.476457    0.322672    2.351342
    169          1           0        8.425523   -0.103291    2.026309
    170          1           0        7.628888    1.358154    2.654809
    171          1           0        7.091124   -0.250107    3.194354
    172          1           0        6.435644   -0.634265    0.831777
    173         20           0       -1.402664   -0.385740   -1.161829
    174          8           0       -0.812539   -2.966272   -1.855449
    175          1           0       -0.403487   -3.254435   -2.670150
    176          1           0       -0.974883   -3.777828   -1.368087
 ---------------------------------------------------------------------

 SCF Done:  E(RB3LYP) =  -5333.62188412     A.U. after   18 cycles

 The electronic state is 1-A.
 Alpha  occ. eigenvalues -- -145.35677 -19.18919 -19.17886 -19.16342 -19.14338
 Alpha  occ. eigenvalues --  -19.12032 -19.11768 -19.10506 -19.10276 -19.10240
 Alpha  occ. eigenvalues --  -19.08696 -19.08306 -19.08290 -19.07073 -19.06469
 Alpha  occ. eigenvalues --  -19.06251 -19.06104 -19.04501 -19.04375 -19.04283
 Alpha  occ. eigenvalues --  -19.04157 -19.04122 -19.02980 -19.02546 -15.41414
 Alpha  occ. eigenvalues --  -14.58052 -14.40232 -14.37082 -14.37059 -14.36629
 Alpha  occ. eigenvalues --  -14.36172 -14.34859 -14.34413 -14.32802 -14.32745
 Alpha  occ. eigenvalues --  -14.32699 -14.32458 -14.30161 -14.29522 -14.29266
 Alpha  occ. eigenvalues --  -12.55022 -12.54995 -12.54980 -10.33479 -10.32624
 Alpha  occ. eigenvalues --  -10.30401 -10.30329 -10.29340 -10.29268 -10.28570
 Alpha  occ. eigenvalues --  -10.27103 -10.27038 -10.27032 -10.26997 -10.26373
 Alpha  occ. eigenvalues --  -10.26174 -10.26091 -10.25912 -10.25736 -10.25468
 Alpha  occ. eigenvalues --  -10.25213 -10.24535 -10.23923 -10.23797 -10.23382
 Alpha  occ. eigenvalues --  -10.23082 -10.23037 -10.22854 -10.22647 -10.22396
 Alpha  occ. eigenvalues --  -10.22239 -10.22218 -10.21954 -10.21873 -10.21827
 Alpha  occ. eigenvalues --  -10.21174 -10.20632 -10.20602 -10.20274 -10.20196
 Alpha  occ. eigenvalues --  -10.20105 -10.19894 -10.19854 -10.19817 -10.19731
 Alpha  occ. eigenvalues --  -10.19585 -10.19349 -10.18808 -10.18681 -10.18661
 Alpha  occ. eigenvalues --  -10.18635 -10.18594 -10.18369 -10.18317 -10.17791
 Alpha  occ. eigenvalues --  -10.16145 -10.14318  -1.78342  -1.13275  -1.07656
 Alpha  occ. eigenvalues --   -1.06292  -1.06194  -1.06050  -1.05883  -1.04903
 Alpha  occ. eigenvalues --   -1.04891  -1.04361  -1.04274  -1.04080  -1.03613
 Alpha  occ. eigenvalues --   -1.03418  -1.02889  -1.01600  -1.01385  -0.99706
 Alpha  occ. eigenvalues --   -0.99411  -0.99193  -0.98926  -0.97993  -0.97712
 Alpha  occ. eigenvalues --   -0.97284  -0.96465  -0.96111  -0.94240  -0.93886
 Alpha  occ. eigenvalues --   -0.93318  -0.92703  -0.91774  -0.91008  -0.90683
 Alpha  occ. eigenvalues --   -0.90425  -0.89976  -0.89368  -0.88979  -0.88420
 Alpha  occ. eigenvalues --   -0.88180  -0.87153  -0.87088  -0.86636  -0.86236
 Alpha  occ. eigenvalues --   -0.85583  -0.83334  -0.81782  -0.80435  -0.79368
 Alpha  occ. eigenvalues --   -0.79272  -0.78727  -0.78572  -0.77507  -0.76070
 Alpha  occ. eigenvalues --   -0.75791  -0.75680  -0.75282  -0.73878  -0.73836
 Alpha  occ. eigenvalues --   -0.73764  -0.73348  -0.72241  -0.71435  -0.70948
 Alpha  occ. eigenvalues --   -0.69430  -0.69337  -0.68325  -0.68263  -0.67914
 Alpha  occ. eigenvalues --   -0.67706  -0.66544  -0.65847  -0.64900  -0.64593
 Alpha  occ. eigenvalues --   -0.64506  -0.63917  -0.63448  -0.62566  -0.61421
 Alpha  occ. eigenvalues --   -0.61371  -0.61298  -0.60736  -0.60390  -0.59909
 Alpha  occ. eigenvalues --   -0.59623  -0.59442  -0.58534  -0.58421  -0.58258
 Alpha  occ. eigenvalues --   -0.58171  -0.58074  -0.57180  -0.56956  -0.56433
 Alpha  occ. eigenvalues --   -0.56234  -0.56097  -0.55643  -0.55527  -0.55247
 Alpha  occ. eigenvalues --   -0.54840  -0.54495  -0.54074  -0.53653  -0.53378
 Alpha  occ. eigenvalues --   -0.53073  -0.53016  -0.52865  -0.51924  -0.51767
 Alpha  occ. eigenvalues --   -0.51179  -0.50460  -0.50375  -0.50254  -0.50056
 Alpha  occ. eigenvalues --   -0.49715  -0.49507  -0.49407  -0.49321  -0.48999
 Alpha  occ. eigenvalues --   -0.48669  -0.48576  -0.48079  -0.47909  -0.47760
 Alpha  occ. eigenvalues --   -0.47500  -0.47387  -0.47277  -0.47192  -0.47032
 Alpha  occ. eigenvalues --   -0.46788  -0.46608  -0.46169  -0.45951  -0.45859
 Alpha  occ. eigenvalues --   -0.45747  -0.45619  -0.45218  -0.45031  -0.44950
 Alpha  occ. eigenvalues --   -0.44803  -0.44467  -0.44342  -0.44251  -0.44055
 Alpha  occ. eigenvalues --   -0.43978  -0.43836  -0.43736  -0.43342  -0.43157
 Alpha  occ. eigenvalues --   -0.42995  -0.42835  -0.42756  -0.42475  -0.42231
 Alpha  occ. eigenvalues --   -0.42183  -0.41851  -0.41751  -0.41685  -0.41585
 Alpha  occ. eigenvalues --   -0.41465  -0.41347  -0.41289  -0.41056  -0.40894
 Alpha  occ. eigenvalues --   -0.40832  -0.40603  -0.40304  -0.40293  -0.40254
 Alpha  occ. eigenvalues --   -0.40137  -0.40002  -0.39851  -0.39695  -0.39641
 Alpha  occ. eigenvalues --   -0.39471  -0.39303  -0.39265  -0.39153  -0.39125
 Alpha  occ. eigenvalues --   -0.38988  -0.38843  -0.38714  -0.38699  -0.38449
 Alpha  occ. eigenvalues --   -0.38270  -0.37990  -0.37915  -0.37741  -0.37402
 Alpha  occ. eigenvalues --   -0.37335  -0.37150  -0.36992  -0.36833  -0.36729
 Alpha  occ. eigenvalues --   -0.36620  -0.36577  -0.36511  -0.36335  -0.36163
 Alpha  occ. eigenvalues --   -0.35867  -0.35643  -0.35553  -0.35220  -0.35065
 Alpha  occ. eigenvalues --   -0.34980  -0.34927  -0.34647  -0.34401  -0.34315
 Alpha  occ. eigenvalues --   -0.34217  -0.34183  -0.34042  -0.33889  -0.33377
 Alpha  occ. eigenvalues --   -0.33031  -0.32804  -0.32409  -0.32118  -0.31977
 Alpha  occ. eigenvalues --   -0.31899  -0.31618  -0.31404  -0.30651  -0.30050
 Alpha  occ. eigenvalues --   -0.29810  -0.29005  -0.28754  -0.28228  -0.28066
 Alpha  occ. eigenvalues --   -0.27801  -0.27446  -0.27366  -0.27193  -0.26747
 Alpha  occ. eigenvalues --   -0.26260  -0.26146  -0.26071  -0.26036  -0.25779
 Alpha  occ. eigenvalues --   -0.24814  -0.24459  -0.24260  -0.23795  -0.23642
 Alpha  occ. eigenvalues --   -0.23530  -0.23223  -0.22999  -0.22868  -0.22814
 Alpha  occ. eigenvalues --   -0.22453  -0.22051  -0.21921  -0.21845  -0.21721
 Alpha  occ. eigenvalues --   -0.21321  -0.20967  -0.20049  -0.19925  -0.19568
 Alpha  occ. eigenvalues --   -0.18985  -0.18694  -0.18316
 Alpha virt. eigenvalues --   -0.10338  -0.04238  -0.04080  -0.03795  -0.02795
 Alpha virt. eigenvalues --   -0.01797  -0.00891  -0.00355  -0.00236  -0.00092
 Alpha virt. eigenvalues --    0.00580   0.00833   0.00972   0.01863   0.02190

 Mulliken charges:
               1
     1  C    0.032574
     2  C    0.016397
     3  O   -0.295627
     4  H    0.044603
     5  H    0.009680
     6  H    0.032387
     7  N   -0.110996
     8  C    0.122271
     9  C    0.070010
    10  O   -0.274862
    11  C    0.000717
    12  C    0.191299
    13  O   -0.372017
    14  O   -0.463753
    15  H    0.116324
    16  H    0.020279
    17  H   -0.001395
    18  H   -0.004006
    19  N   -0.129782
    20  C    0.126023
    21  C    0.080829
    22  O   -0.292591
    23  C    0.013627
    24  C    0.063571
    25  C   -0.061786
    26  C    0.023677
    27  N    0.075320
    28  H    0.131266
    29  H   -0.016484
    30  H   -0.006621
    31  H    0.033978
    32  H    0.009193
    33  H    0.049418
    34  H    0.024803
    35  H    0.001043
    36  H    0.083272
    37  H    0.076628
    38  H    0.180651
    39  H    0.194180
    40  H    0.201357
    41  N   -0.137707
    42  C    0.090690
    43  C    0.067906
    44  O   -0.296583
    45  C    0.148798
    46  C    0.023678
    47  O   -0.351447
    48  O   -0.444190
    49  H    0.175028
    50  H    0.026894
    51  H   -0.023729
    52  H    0.019903
    53  N   -0.166184
    54  C    0.239021
    55  C    0.017339
    56  O   -0.306794
    57  H    0.144958
    58  H    0.031413
    59  H    0.020657
    60  N   -0.136362
    61  C    0.193840
    62  C    0.034689
    63  O   -0.318218
    64  C    0.034041
    65  C    0.046627
    66  N   -0.033887
    67  O   -0.343009
    68  H    0.150075
    69  H    0.013097
    70  H    0.048170
    71  H    0.035903
    72  H    0.129288
    73  H    0.098735
    74  N   -0.174527
    75  C    0.224930
    76  C    0.028159
    77  O   -0.307316
    78  H    0.151879
    79  H    0.034361
    80  H    0.042421
    81  N   -0.132212
    82  C    0.121716
    83  C    0.120561
    84  O   -0.319350
    85  C    0.175622
    86  C   -0.039534
    87  C   -0.007838
    88  C   -0.059187
    89  C    0.010398
    90  C   -0.131572
    91  C    0.171832
    92  O   -0.205859
    93  H    0.174256
    94  H   -0.001551
    95  H    0.027572
    96  H   -0.012236
    97  H    0.012027
    98  H    0.001289
    99  H   -0.002877
   100  H   -0.046923
   101  H    0.172920
   102  N   -0.122287
   103  C    0.169298
   104  C    0.067529
   105  O   -0.321819
   106  C   -0.114978
   107  C    0.004512
   108  C    0.069581
   109  C    0.046609
   110  H    0.127870
   111  H    0.023438
   112  H   -0.011245
   113  H   -0.001775
   114  H   -0.007275
   115  H    0.018547
   116  H    0.008460
   117  H    0.005625
   118  H    0.003542
   119  H    0.013217
   120  H    0.001318
   121  N   -0.115951
   122  C    0.083149
   123  C    0.123896
   124  O   -0.283999
   125  C    0.261748
   126  O   -0.344884
   127  H    0.146454
   128  H    0.018899
   129  H   -0.031722
   130  H   -0.022364
   131  H    0.182454
   132  N   -0.123199
   133  C    0.097893
   134  C    0.012705
   135  O   -0.260709
   136  C    0.049539
   137  H    0.122096
   138  H    0.018889
   139  H    0.043392
   140  H    0.028928
   141  H    0.010328
   142  N   -0.134238
   143  C    0.119961
   144  C    0.047692
   145  O   -0.269748
   146  C    0.032735
   147  H    0.101345
   148  H    0.023353
   149  H    0.019869
   150  H    0.031666
   151  H    0.017954
   152  N   -0.167736
   153  C    0.180635
   154  C    0.067762
   155  O   -0.327725
   156  C   -0.020634
   157  C    0.070057
   158  C    0.113144
   159  O   -0.381162
   160  O   -0.451135
   161  H    0.115885
   162  H   -0.005473
   163  H    0.033069
   164  H   -0.000645
   165  H    0.011631
   166  H   -0.014112
   167  N   -0.150413
   168  C    0.125257
   169  H    0.027129
   170  H    0.027509
   171  H    0.006534
   172  H    0.127268
   173  Ca   1.260479
   174  O   -0.263918
   175  H    0.182540
   176  H    0.188699
 Sum of Mulliken charges =  -0.00000

 Dipole moment (field-independent basis, Debye):
    X=             28.2453    Y=              7.2476    Z=              4.6541  Tot=             29.5294
 Quadrupole moment (field-independent basis, Debye-Ang):
   XX=           -731.8430   YY=           -331.2480   ZZ=           -529.0080
   XY=             78.6147   XZ=             32.9014   YZ=            127.1065

 ESP charges:
               1
     1  C   -0.477562
     2  C    0.879157
     3  O   -0.671137
     4  H    0.138457
     5  H    0.106029
     6  H    0.119036
     7  N   -0.895138
     8  C    0.387135
     9  C    0.548487
    10  O   -0.552647
    11  C   -0.304280
    12  C    0.807941
    13  O   -0.700624
    14  O   -0.824103
    15  H    0.400923
    16  H    0.030182
    17  H    0.056230
    18  H    0.080486
    19  N   -0.361426
    20  C   -0.034637
    21  C    0.538145
    22  O   -0.564786
    23  C   -0.096020
    24  C    0.024272
    25  C   -0.154865
    26  C    0.262708
    27  N   -0.570572
    28  H    0.232615
    29  H    0.082642
    30  H    0.049663
    31  H    0.042922
    32  H    0.034909
    33  H    0.018317
    34  H    0.056236
    35  H    0.051474
    36  H    0.053463
    37  H    0.033592
    38  H    0.362283
    39  H    0.372241
    40  H    0.381508
    41  N   -0.291994
    42  C   -0.004019
    43  C    0.474733
    44  O   -0.549778
    45  C   -0.200134
    46  C    0.727225
    47  O   -0.698458
    48  O   -0.745644
    49  H    0.262561
    50  H    0.105594
    51  H    0.037715
    52  H    0.086583
    53  N   -0.153329
    54  C   -0.317678
    55  C    0.642736
    56  O   -0.601356
    57  H    0.149288
    58  H    0.156225
    59  H    0.141455
    60  N   -0.499847
    61  C    0.254248
    62  C    0.359944
    63  O   -0.569953
    64  C   -0.531964
    65  C    0.783688
    66  N   -0.797455
    67  O   -0.477522
    68  H    0.304201
    69  H    0.082190
    70  H    0.179278
    71  H    0.131488
    72  H    0.373663
    73  H    0.319821
    74  N   -0.029395
    75  C   -0.343558
    76  C    0.610595
    77  O   -0.571902
    78  H    0.230716
    79  H    0.159255
    80  H    0.138306
    81  N   -0.240610
    82  C   -0.214765
    83  C    0.900146
    84  O   -0.582307
    85  C   -0.158515
    86  C    0.019294
    87  C   -0.111201
    88  C   -0.056880
    89  C   -0.245965
    90  C   -0.357307
    91  C    0.420068
    92  O   -0.582443
    93  H    0.101559
    94  H    0.107092
    95  H    0.121088
    96  H    0.065831
    97  H    0.154945
    98  H    0.123494
    99  H    0.182404
   100  H    0.118171
   101  H    0.423362
   102  N   -0.650952
   103  C   -0.523838
   104  C    0.854157
   105  O   -0.610564
   106  C    0.271928
   107  C    0.110438
   108  C   -0.416959
   109  C   -0.361001
   110  H    0.381642
   111  H    0.252470
   112  H    0.029930
   113  H    0.011270
   114  H    0.048871
   115  H    0.091417
   116  H    0.064831
   117  H    0.129180
   118  H    0.082139
   119  H    0.093480
   120  H    0.073316
   121  N   -0.455114
   122  C   -0.106072
   123  C    0.562672
   124  O   -0.435551
   125  C    0.111022
   126  O   -0.510608
   127  H    0.313049
   128  H    0.102413
   129  H    0.045523
   130  H    0.035338
   131  H    0.357205
   132  N   -0.453187
   133  C    0.090052
   134  C    0.665285
   135  O   -0.547991
   136  C   -0.300942
   137  H    0.295696
   138  H    0.070349
   139  H    0.107485
   140  H    0.103406
   141  H    0.073389
   142  N   -0.606758
   143  C    0.329136
   144  C    0.258417
   145  O   -0.513942
   146  C   -0.375539
   147  H    0.299446
   148  H    0.062821
   149  H    0.095499
   150  H    0.108127
   151  H    0.101950
   152  N    0.276934
   153  C   -0.489517
   154  C    0.622007
   155  O   -0.610880
   156  C    0.079103
   157  C   -0.317077
   158  C    0.906441
   159  O   -0.741101
   160  O   -0.798425
   161  H   -0.129853
   162  H    0.173049
   163  H    0.132866
   164  H   -0.061570
   165  H    0.061156
   166  H    0.096906
   167  N   -0.157876
   168  C   -0.151770
   169  H    0.069097
   170  H    0.094076
   171  H    0.055419
   172  H    0.161071
   173  Ca   1.467592
   174  O   -0.658149
   175  H    0.368728
   176  H    0.279198
 Sum of ESP charges =   0.00000

 Normal termination of Gaussian 16 at Sat Sep 14 23:59:29 2019.
