 Gaussian 16, Revision A.03,
 Gaussian 16:  ES64L-G16RevA.03 25-Dec-2016

 ----------------------------------------------------------------------
 #b3lyp/svp scf=(tight,noincore) Test #IOP(5/87=12) Density=Current Pop
 =(MK,readradii) iop(6/33=2) iop(6/42=6)
 ----------------------------------------------------------------------

 ------------------
 CaMKII_loop3_101.0
 ------------------
 Symbolic Z-matrix:
 Charge =  0 Multiplicity = 1

                         Standard orientation:
 ---------------------------------------------------------------------
 Center     Atomic      Atomic             Coordinates (Angstroms)
 Number     Number       Type             X           Y           Z
 ---------------------------------------------------------------------
      1          6           0        2.300587    2.030008    6.022753
      2          6           0        1.871838    2.104196    4.570868
      3          8           0        2.738431    1.975390    3.720383
      4          1           0        3.380423    1.891743    6.075721
      5          1           0        2.027941    2.954719    6.530568
      6          1           0        1.803967    1.188986    6.506643
      7          7           0        0.569461    2.317934    4.355389
      8          6           0       -0.025795    2.289006    3.032123
      9          6           0        0.157336    3.663155    2.394488
     10          8           0       -0.346943    4.688862    2.866429
     11          6           0       -1.446402    1.731742    3.088079
     12          6           0       -2.133831    1.472862    1.759688
     13          8           0       -1.474847    1.838459    0.762353
     14          8           0       -3.216201    0.862279    1.656420
     15          1           0       -0.020472    2.552189    5.137760
     16          1           0        0.525765    1.595157    2.410065
     17          1           0       -2.081450    2.419721    3.640888
     18          1           0       -1.485595    0.840623    3.717739
     19          7           0        0.975627    3.677439    1.338839
     20          6           0        1.354322    4.899101    0.650194
     21          6           0        0.259847    5.564743   -0.166167
     22          8           0        0.282934    6.785146   -0.314774
     23          6           0        2.559045    4.528104   -0.214852
     24          6           0        3.518335    5.631201   -0.640339
     25          6           0        4.572220    4.976807   -1.530561
     26          6           0        5.625004    5.964190   -2.035855
     27          7           0        6.486594    5.436993   -3.106475
     28          1           0        1.279585    2.797465    0.974757
     29          1           0        1.643441    5.606909    1.428666
     30          1           0        2.034719    4.121279   -1.077508
     31          1           0        3.065833    3.671739    0.235930
     32          1           0        4.038674    6.156641    0.162194
     33          1           0        3.002475    6.368789   -1.276619
     34          1           0        4.133471    4.530480   -2.413619
     35          1           0        5.081674    4.128835   -1.075041
     36          1           0        6.177729    6.178917   -1.123283
     37          1           0        5.180786    6.916386   -2.311703
     38          1           0        5.910118    5.319710   -3.925023
     39          1           0        7.226268    6.092227   -3.311535
     40          1           0        6.891830    4.526057   -2.966191
     41          7           0       -0.784505    4.833244   -0.562068
     42          6           0       -1.938330    5.377732   -1.235954
     43          6           0       -3.280064    5.153545   -0.548065
     44          8           0       -4.281095    5.790903   -0.839290
     45          6           0       -1.976305    4.916291   -2.697675
     46          6           0       -2.277100    3.453124   -2.954709
     47          8           0       -2.530384    2.727314   -1.969749
     48          8           0       -2.395592    3.049901   -4.136559
     49          1           0       -0.764737    3.818730   -0.549009
     50          1           0       -1.887010    6.465644   -1.313504
     51          1           0       -0.945756    4.997493   -3.041588
     52          1           0       -2.577082    5.586144   -3.313924
     53          7           0       -3.270459    4.202905    0.391717
     54          6           0       -4.385232    3.829432    1.237411
     55          6           0       -5.587794    3.193010    0.572195
     56          8           0       -6.746062    3.450462    0.915753
     57          1           0       -2.394895    3.711761    0.515670
     58          1           0       -4.752775    4.752546    1.687493
     59          1           0       -4.057953    3.146090    2.031471
     60          7           0       -5.322437    2.366310   -0.434360
     61          6           0       -6.309034    1.491318   -1.030696
     62          6           0       -6.731657    0.320022   -0.153282
     63          8           0       -7.657362   -0.431592   -0.453696
     64          6           0       -5.820049    1.081347   -2.415837
     65          6           0       -4.894343   -0.121091   -2.537542
     66          7           0       -5.342299   -1.093743   -3.327342
     67          8           0       -3.831650   -0.291044   -1.927051
     68          1           0       -4.379802    2.359405   -0.804889
     69          1           0       -7.159996    2.111778   -1.292025
     70          1           0       -5.381478    1.909380   -2.968572
     71          1           0       -6.682365    0.813355   -3.038727
     72          1           0       -6.268116   -1.129739   -3.734486
     73          1           0       -4.715111   -1.822794   -3.613034
     74          7           0       -6.061987    0.148578    0.997608
     75          6           0       -6.367034   -0.874043    1.967604
     76          6           0       -5.547990   -2.149801    1.824748
     77          8           0       -5.877754   -3.154633    2.460570
     78          1           0       -5.173367    0.605818    1.143850
     79          1           0       -7.410148   -1.177964    1.974413
     80          1           0       -6.268447   -0.519829    2.994207
     81          7           0       -4.511315   -2.101355    0.986680
     82          6           0       -3.400544   -3.024677    1.110628
     83          6           0       -2.060015   -2.295806    1.175663
     84          8           0       -1.840074   -1.281329    0.521246
     85          6           0       -3.380566   -3.893984   -0.146673
     86          6           0       -4.610421   -4.711863   -0.432906
     87          6           0       -4.649508   -6.113818   -0.396918
     88          6           0       -5.670669   -4.006772   -1.000727
     89          6           0       -5.749008   -6.794805   -0.935674
     90          6           0       -6.819842   -4.680086   -1.419593
     91          6           0       -6.843755   -6.083500   -1.473979
     92          8           0       -7.902183   -6.807387   -1.938757
     93          1           0       -4.259071   -1.236591    0.537061
     94          1           0       -3.478991   -3.566482    2.051157
     95          1           0       -2.620184   -4.654675    0.055239
     96          1           0       -3.160214   -3.290916   -1.022318
     97          1           0       -3.839725   -6.661592    0.075412
     98          1           0       -5.588671   -2.953530   -1.245181
     99          1           0       -5.783230   -7.869939   -1.017008
    100          1           0       -7.602217   -4.010497   -1.743229
    101          1           0       -8.721503   -6.316869   -2.051043
    102          7           0       -1.114181   -3.013882    1.788660
    103          6           0        0.324323   -2.873090    1.658339
    104          6           0        0.972728   -3.825211    0.658371
    105          8           0        1.003055   -5.038758    0.806983
    106          6           0        0.974148   -2.948437    3.030072
    107          6           0        0.458327   -1.876955    3.997261
    108          6           0        2.493200   -2.983165    3.102000
    109          6           0        0.614237   -2.377989    5.430145
    110          1           0       -1.459505   -3.780755    2.349425
    111          1           0        0.539566   -1.851455    1.352672
    112          1           0        0.620823   -3.871684    3.492432
    113          1           0       -0.587071   -1.565011    3.885307
    114          1           0        1.160505   -1.060953    3.887321
    115          1           0        2.874514   -3.794658    2.488666
    116          1           0        2.784947   -2.032345    2.646560
    117          1           0        2.865069   -3.211864    4.099803
    118          1           0        0.092092   -1.665355    6.065690
    119          1           0        0.078210   -3.321531    5.503651
    120          1           0        1.649548   -2.451083    5.757850
    121          7           0        1.649224   -3.289734   -0.354258
    122          6           0        2.556367   -3.982341   -1.241945
    123          6           0        3.886787   -4.050320   -0.519546
    124          8           0        4.197651   -3.249462    0.356233
    125          6           0        2.664610   -3.322274   -2.619768
    126          8           0        3.629950   -2.295716   -2.744248
    127          1           0        1.588302   -2.289980   -0.486852
    128          1           0        2.264175   -5.016694   -1.440280
    129          1           0        1.725568   -3.036435   -3.083015
    130          1           0        2.957432   -4.144442   -3.269917
    131          1           0        3.448067   -1.753292   -3.518260
    132          7           0        4.771309   -4.887826   -1.074528
    133          6           0        6.167922   -4.960732   -0.697229
    134          6           0        6.903802   -3.634230   -0.865078
    135          8           0        7.674357   -3.264160    0.008530
    136          6           0        6.761320   -6.009430   -1.642910
    137          1           0        4.433532   -5.464542   -1.825665
    138          1           0        6.196219   -5.371557    0.310006
    139          1           0        6.517281   -5.755588   -2.672768
    140          1           0        7.842400   -6.045117   -1.533851
    141          1           0        6.283354   -6.953307   -1.369332
    142          7           0        6.666880   -2.896155   -1.954672
    143          6           0        7.330432   -1.633310   -2.180109
    144          6           0        6.963030   -0.463699   -1.280318
    145          8           0        7.743834    0.424938   -0.951120
    146          6           0        7.329924   -1.263583   -3.657811
    147          1           0        6.132878   -3.300612   -2.710553
    148          1           0        8.383995   -1.761025   -1.934766
    149          1           0        7.655816   -0.243510   -3.854141
    150          1           0        8.055634   -1.884867   -4.189836
    151          1           0        6.311273   -1.378564   -4.041646
    152          7           0        5.691668   -0.433700   -0.892325
    153          6           0        5.150668    0.454703    0.117852
    154          6           0        5.764480    0.134849    1.478634
    155          8           0        6.178705    1.107888    2.096789
    156          6           0        3.630517    0.352082    0.120986
    157          6           0        3.026793    0.870402   -1.174916
    158          6           0        1.515302    0.729456   -1.129875
    159          8           0        1.010256   -0.411720   -1.019208
    160          8           0        0.767262    1.714829   -1.293508
    161          1           0        5.050954   -1.130170   -1.260856
    162          1           0        5.342242    1.500246   -0.132423
    163          1           0        3.157086    0.860072    0.964971
    164          1           0        3.243295   -0.642366    0.348653
    165          1           0        3.361810    0.273894   -2.016368
    166          1           0        3.301525    1.909835   -1.397852
    167          7           0        5.944025   -1.147427    1.812746
    168          6           0        6.647922   -1.673007    2.959609
    169          1           0        7.720408   -1.654642    2.766712
    170          1           0        6.426195   -1.062115    3.834235
    171          1           0        6.330497   -2.699232    3.143075
    172          1           0        5.509155   -1.813777    1.190600
    173         20           0       -1.441322    0.470493   -1.349908
    174          8           0       -1.077347    0.699848   -3.923761
    175          1           0       -1.014647    0.153664   -4.701097
    176          1           0       -1.486323    1.508791   -4.240066
 ---------------------------------------------------------------------

 SCF Done:  E(RB3LYP) =  -5333.62697935     A.U. after   20 cycles

 The electronic state is 1-A.
 Alpha  occ. eigenvalues -- -145.34982 -19.19127 -19.14897 -19.13580 -19.13186
 Alpha  occ. eigenvalues --  -19.12603 -19.12227 -19.11515 -19.09791 -19.09609
 Alpha  occ. eigenvalues --  -19.08810 -19.07949 -19.07498 -19.06692 -19.06540
 Alpha  occ. eigenvalues --  -19.06454 -19.06413 -19.06105 -19.05227 -19.04705
 Alpha  occ. eigenvalues --  -19.04502 -19.04325 -19.04032 -19.03545 -15.40816
 Alpha  occ. eigenvalues --  -14.59145 -14.39161 -14.38201 -14.37244 -14.37092
 Alpha  occ. eigenvalues --  -14.35250 -14.35127 -14.33726 -14.32568 -14.32527
 Alpha  occ. eigenvalues --  -14.32404 -14.31804 -14.31738 -14.30399 -14.29155
 Alpha  occ. eigenvalues --  -12.54408 -12.54388 -12.54370 -10.34430 -10.31603
 Alpha  occ. eigenvalues --  -10.31123 -10.30392 -10.29998 -10.28647 -10.28481
 Alpha  occ. eigenvalues --  -10.28354 -10.27371 -10.26667 -10.26517 -10.26411
 Alpha  occ. eigenvalues --  -10.26255 -10.25538 -10.25279 -10.25201 -10.25116
 Alpha  occ. eigenvalues --  -10.25011 -10.24998 -10.24459 -10.23860 -10.23486
 Alpha  occ. eigenvalues --  -10.23411 -10.23189 -10.23024 -10.22803 -10.22780
 Alpha  occ. eigenvalues --  -10.22567 -10.22512 -10.22160 -10.21403 -10.21342
 Alpha  occ. eigenvalues --  -10.20688 -10.19977 -10.19785 -10.19709 -10.19252
 Alpha  occ. eigenvalues --  -10.18869 -10.18691 -10.18623 -10.18612 -10.18355
 Alpha  occ. eigenvalues --  -10.18067 -10.17405 -10.17384 -10.17347 -10.17249
 Alpha  occ. eigenvalues --  -10.17161 -10.17095 -10.16956 -10.16942 -10.16757
 Alpha  occ. eigenvalues --  -10.16340 -10.14667  -1.77879  -1.14231  -1.07188
 Alpha  occ. eigenvalues --   -1.06230  -1.06048  -1.05616  -1.05475  -1.04922
 Alpha  occ. eigenvalues --   -1.04566  -1.04481  -1.03272  -1.03100  -1.02900
 Alpha  occ. eigenvalues --   -1.02802  -1.00680  -0.99965  -0.99858  -0.99757
 Alpha  occ. eigenvalues --   -0.99656  -0.99077  -0.99019  -0.98737  -0.98544
 Alpha  occ. eigenvalues --   -0.97419  -0.96690  -0.96532  -0.94717  -0.94008
 Alpha  occ. eigenvalues --   -0.92886  -0.92472  -0.92055  -0.92029  -0.90567
 Alpha  occ. eigenvalues --   -0.90459  -0.90137  -0.89724  -0.89112  -0.88740
 Alpha  occ. eigenvalues --   -0.88736  -0.88529  -0.88290  -0.87377  -0.85672
 Alpha  occ. eigenvalues --   -0.83473  -0.82826  -0.81829  -0.80998  -0.80304
 Alpha  occ. eigenvalues --   -0.79001  -0.78340  -0.77815  -0.77095  -0.76717
 Alpha  occ. eigenvalues --   -0.75194  -0.74661  -0.73903  -0.72873  -0.72760
 Alpha  occ. eigenvalues --   -0.72559  -0.72311  -0.72169  -0.70683  -0.70578
 Alpha  occ. eigenvalues --   -0.70212  -0.69597  -0.68867  -0.68580  -0.67959
 Alpha  occ. eigenvalues --   -0.67424  -0.66513  -0.65826  -0.64602  -0.64256
 Alpha  occ. eigenvalues --   -0.63876  -0.63643  -0.62410  -0.62327  -0.62005
 Alpha  occ. eigenvalues --   -0.61447  -0.61003  -0.60702  -0.60514  -0.60189
 Alpha  occ. eigenvalues --   -0.59570  -0.59356  -0.58709  -0.58269  -0.57832
 Alpha  occ. eigenvalues --   -0.57543  -0.56572  -0.56553  -0.56412  -0.56362
 Alpha  occ. eigenvalues --   -0.55964  -0.55617  -0.55280  -0.55270  -0.55206
 Alpha  occ. eigenvalues --   -0.54944  -0.54276  -0.53895  -0.53153  -0.52975
 Alpha  occ. eigenvalues --   -0.52879  -0.52713  -0.52534  -0.52302  -0.51955
 Alpha  occ. eigenvalues --   -0.51262  -0.50894  -0.50745  -0.50547  -0.49878
 Alpha  occ. eigenvalues --   -0.49681  -0.49505  -0.49196  -0.48676  -0.48402
 Alpha  occ. eigenvalues --   -0.48235  -0.48041  -0.47868  -0.47480  -0.47456
 Alpha  occ. eigenvalues --   -0.47436  -0.47366  -0.46945  -0.46714  -0.46554
 Alpha  occ. eigenvalues --   -0.46342  -0.45965  -0.45631  -0.45524  -0.45406
 Alpha  occ. eigenvalues --   -0.45181  -0.45013  -0.44771  -0.44717  -0.44597
 Alpha  occ. eigenvalues --   -0.44458  -0.44321  -0.43979  -0.43761  -0.43591
 Alpha  occ. eigenvalues --   -0.43561  -0.43290  -0.43233  -0.43157  -0.42845
 Alpha  occ. eigenvalues --   -0.42734  -0.42348  -0.42158  -0.42114  -0.41994
 Alpha  occ. eigenvalues --   -0.41858  -0.41777  -0.41682  -0.41576  -0.41231
 Alpha  occ. eigenvalues --   -0.41133  -0.41092  -0.41006  -0.40944  -0.40890
 Alpha  occ. eigenvalues --   -0.40775  -0.40707  -0.40296  -0.40226  -0.40033
 Alpha  occ. eigenvalues --   -0.39935  -0.39812  -0.39713  -0.39503  -0.39477
 Alpha  occ. eigenvalues --   -0.39163  -0.39068  -0.38899  -0.38832  -0.38784
 Alpha  occ. eigenvalues --   -0.38694  -0.38670  -0.38326  -0.38203  -0.38076
 Alpha  occ. eigenvalues --   -0.38015  -0.37947  -0.37819  -0.37665  -0.37510
 Alpha  occ. eigenvalues --   -0.37255  -0.37111  -0.36992  -0.36726  -0.36618
 Alpha  occ. eigenvalues --   -0.36430  -0.36262  -0.36019  -0.35816  -0.35706
 Alpha  occ. eigenvalues --   -0.35504  -0.35333  -0.34995  -0.34893  -0.34642
 Alpha  occ. eigenvalues --   -0.34396  -0.34278  -0.33947  -0.33650  -0.33571
 Alpha  occ. eigenvalues --   -0.33362  -0.33081  -0.32848  -0.32753  -0.32437
 Alpha  occ. eigenvalues --   -0.32425  -0.32261  -0.31996  -0.31967  -0.31760
 Alpha  occ. eigenvalues --   -0.31547  -0.31523  -0.31303  -0.30725  -0.30203
 Alpha  occ. eigenvalues --   -0.29813  -0.29373  -0.29233  -0.29003  -0.28256
 Alpha  occ. eigenvalues --   -0.28019  -0.27125  -0.26859  -0.26753  -0.26491
 Alpha  occ. eigenvalues --   -0.26161  -0.25619  -0.25350  -0.25184  -0.25147
 Alpha  occ. eigenvalues --   -0.24564  -0.24355  -0.24197  -0.23970  -0.23823
 Alpha  occ. eigenvalues --   -0.23527  -0.23271  -0.22911  -0.22798  -0.22655
 Alpha  occ. eigenvalues --   -0.22646  -0.21802  -0.21790  -0.21512  -0.21425
 Alpha  occ. eigenvalues --   -0.21376  -0.21026  -0.20845  -0.20731  -0.20291
 Alpha  occ. eigenvalues --   -0.19668  -0.19433  -0.18612
 Alpha virt. eigenvalues --   -0.10689  -0.04608  -0.04289  -0.02928  -0.02052
 Alpha virt. eigenvalues --   -0.00997  -0.00832  -0.00473  -0.00390  -0.00068
 Alpha virt. eigenvalues --    0.00173   0.00735   0.01424   0.01715   0.01985

 Mulliken charges:
               1
     1  C    0.038022
     2  C    0.028455
     3  O   -0.273211
     4  H    0.031599
     5  H    0.023774
     6  H    0.019605
     7  N   -0.134579
     8  C    0.130031
     9  C    0.092802
    10  O   -0.289931
    11  C    0.074457
    12  C    0.147933
    13  O   -0.477303
    14  O   -0.370843
    15  H    0.118983
    16  H   -0.014613
    17  H   -0.001090
    18  H   -0.004354
    19  N   -0.132523
    20  C    0.171372
    21  C    0.066049
    22  O   -0.290054
    23  C   -0.041774
    24  C    0.080182
    25  C   -0.086941
    26  C    0.034372
    27  N    0.089879
    28  H    0.135503
    29  H    0.010629
    30  H    0.022315
    31  H    0.032097
    32  H    0.019031
    33  H    0.024879
    34  H    0.000798
    35  H    0.046318
    36  H    0.078482
    37  H    0.071257
    38  H    0.187942
    39  H    0.195599
    40  H    0.196292
    41  N   -0.154465
    42  C    0.121716
    43  C    0.066948
    44  O   -0.270392
    45  C    0.071357
    46  C    0.134901
    47  O   -0.458704
    48  O   -0.407166
    49  H    0.167280
    50  H    0.010811
    51  H   -0.015204
    52  H    0.025428
    53  N   -0.174443
    54  C    0.239747
    55  C    0.007301
    56  O   -0.283062
    57  H    0.146555
    58  H    0.007731
    59  H    0.033791
    60  N   -0.174112
    61  C    0.168388
    62  C    0.074940
    63  O   -0.287901
    64  C    0.034894
    65  C    0.111134
    66  N   -0.048940
    67  O   -0.368029
    68  H    0.158400
    69  H    0.028706
    70  H    0.071559
    71  H   -0.008640
    72  H    0.137839
    73  H    0.124178
    74  N   -0.175272
    75  C    0.225637
    76  C    0.037813
    77  O   -0.293865
    78  H    0.156414
    79  H    0.026369
    80  H    0.028755
    81  N   -0.140033
    82  C    0.068151
    83  C    0.153178
    84  O   -0.343905
    85  C    0.156446
    86  C   -0.005055
    87  C    0.009055
    88  C   -0.011042
    89  C   -0.013210
    90  C   -0.059381
    91  C    0.188923
    92  O   -0.213899
    93  H    0.141067
    94  H   -0.000992
    95  H   -0.023878
    96  H   -0.011393
    97  H   -0.032636
    98  H   -0.034725
    99  H   -0.031246
   100  H   -0.038491
   101  H    0.178625
   102  N   -0.124836
   103  C    0.189508
   104  C    0.075393
   105  O   -0.287599
   106  C   -0.162821
   107  C    0.000521
   108  C    0.085738
   109  C    0.018944
   110  H    0.134478
   111  H    0.006387
   112  H   -0.025388
   113  H    0.016226
   114  H    0.010295
   115  H    0.015532
   116  H    0.024422
   117  H    0.006290
   118  H    0.001196
   119  H   -0.000198
   120  H    0.017898
   121  N   -0.129088
   122  C    0.082031
   123  C    0.101814
   124  O   -0.266437
   125  C    0.238884
   126  O   -0.303130
   127  H    0.145488
   128  H    0.020874
   129  H    0.022821
   130  H   -0.033270
   131  H    0.192783
   132  N   -0.123889
   133  C    0.097326
   134  C    0.067675
   135  O   -0.245327
   136  C    0.017161
   137  H    0.111173
   138  H    0.027928
   139  H   -0.001104
   140  H    0.044417
   141  H    0.036379
   142  N   -0.120898
   143  C    0.099369
   144  C    0.045905
   145  O   -0.279858
   146  C    0.046306
   147  H    0.106423
   148  H    0.017371
   149  H    0.006050
   150  H    0.027267
   151  H   -0.008855
   152  N   -0.161699
   153  C    0.161749
   154  C    0.070575
   155  O   -0.267675
   156  C   -0.060861
   157  C    0.146929
   158  C    0.124534
   159  O   -0.444222
   160  O   -0.404814
   161  H    0.141672
   162  H   -0.033764
   163  H    0.024767
   164  H    0.005099
   165  H   -0.054984
   166  H   -0.047118
   167  N   -0.168341
   168  C    0.148721
   169  H    0.027183
   170  H    0.025656
   171  H    0.011791
   172  H    0.135716
   173  Ca   1.292009
   174  O   -0.321874
   175  H    0.157959
   176  H    0.160020
 Sum of Mulliken charges =  -0.00000

 Dipole moment (field-independent basis, Debye):
    X=             31.6074    Y=             -3.2702    Z=            -22.8029  Tot=             39.1113
 Quadrupole moment (field-independent basis, Debye-Ang):
   XX=           -549.3244   YY=           -541.1494   ZZ=           -473.8314
   XY=            136.2741   XZ=            -93.4934   YZ=            -29.2096

 ESP charges:
               1
     1  C   -0.453027
     2  C    0.883151
     3  O   -0.625955
     4  H    0.131479
     5  H    0.102310
     6  H    0.096743
     7  N   -0.823690
     8  C   -0.011564
     9  C    0.855867
    10  O   -0.596745
    11  C   -0.260061
    12  C    0.946500
    13  O   -0.822064
    14  O   -0.810225
    15  H    0.411195
    16  H    0.045786
    17  H    0.083511
    18  H    0.078654
    19  N   -0.512705
    20  C   -0.301684
    21  C    0.678483
    22  O   -0.582480
    23  C    0.307566
    24  C   -0.430824
    25  C    0.187142
    26  C    0.064497
    27  N   -0.434804
    28  H    0.324697
    29  H    0.151682
    30  H   -0.008055
    31  H    0.018402
    32  H    0.126782
    33  H    0.109154
    34  H   -0.020255
    35  H    0.004726
    36  H    0.067228
    37  H    0.073819
    38  H    0.334769
    39  H    0.349301
    40  H    0.355496
    41  N   -0.484037
    42  C    0.201712
    43  C    0.380531
    44  O   -0.524190
    45  C   -0.368097
    46  C    0.887030
    47  O   -0.767523
    48  O   -0.727126
    49  H    0.352877
    50  H    0.071092
    51  H    0.049011
    52  H    0.109758
    53  N   -0.047519
    54  C   -0.300773
    55  C    0.564495
    56  O   -0.562519
    57  H    0.026167
    58  H    0.124184
    59  H    0.117475
    60  N   -0.185500
    61  C   -0.260263
    62  C    0.566292
    63  O   -0.541521
    64  C   -0.145712
    65  C    0.591006
    66  N   -0.751693
    67  O   -0.570787
    68  H    0.223950
    69  H    0.173685
    70  H    0.135730
    71  H    0.063468
    72  H    0.373593
    73  H    0.355413
    74  N   -0.327138
    75  C   -0.115354
    76  C    0.410959
    77  O   -0.538236
    78  H    0.309747
    79  H    0.123151
    80  H    0.093678
    81  N   -0.016649
    82  C    0.191288
    83  C    0.454610
    84  O   -0.465933
    85  C   -0.157250
    86  C    0.197760
    87  C   -0.344727
    88  C   -0.213632
    89  C   -0.107834
    90  C   -0.226490
    91  C    0.289206
    92  O   -0.566042
    93  H    0.025616
    94  H   -0.002274
    95  H    0.030659
    96  H    0.022492
    97  H    0.173379
    98  H    0.160901
    99  H    0.127456
   100  H    0.121281
   101  H    0.426617
   102  N   -0.566913
   103  C   -0.041227
   104  C    0.741520
   105  O   -0.601936
   106  C    0.061634
   107  C    0.202618
   108  C   -0.169010
   109  C   -0.384480
   110  H    0.347282
   111  H    0.071408
   112  H   -0.006614
   113  H    0.017046
   114  H    0.028757
   115  H    0.065017
   116  H   -0.035903
   117  H    0.079084
   118  H    0.080007
   119  H    0.082125
   120  H    0.096135
   121  N   -0.622893
   122  C    0.207325
   123  C    0.460746
   124  O   -0.392159
   125  C    0.016936
   126  O   -0.505907
   127  H    0.290906
   128  H    0.047378
   129  H    0.092329
   130  H    0.008322
   131  H    0.404338
   132  N   -0.489241
   133  C    0.251168
   134  C    0.419942
   135  O   -0.521548
   136  C   -0.429767
   137  H    0.287470
   138  H    0.072442
   139  H    0.095615
   140  H    0.139459
   141  H    0.128089
   142  N   -0.292223
   143  C    0.085767
   144  C    0.390487
   145  O   -0.527215
   146  C   -0.317691
   147  H    0.229022
   148  H    0.097105
   149  H    0.108879
   150  H    0.097988
   151  H    0.048506
   152  N   -0.235549
   153  C    0.077355
   154  C    0.470919
   155  O   -0.542684
   156  C   -0.374351
   157  C    0.020235
   158  C    0.716772
   159  O   -0.712658
   160  O   -0.735421
   161  H    0.188442
   162  H    0.047827
   163  H    0.140266
   164  H    0.174615
   165  H   -0.031574
   166  H   -0.040293
   167  N   -0.036111
   168  C   -0.271517
   169  H    0.119505
   170  H    0.096909
   171  H    0.098475
   172  H    0.072482
   173  Ca   1.549596
   174  O   -0.843104
   175  H    0.410503
   176  H    0.388982
 Sum of ESP charges =   0.00000

 Normal termination of Gaussian 16 at Sat Sep 14 23:32:22 2019.
