 Gaussian 16, Revision A.03,
 Gaussian 16:  ES64L-G16RevA.03 25-Dec-2016

 ----------------------------------------------------------------------
 #b3lyp/svp scf=(tight,noincore) Test #IOP(5/87=12) Density=Current Pop
 =(MK,readradii) iop(6/33=2) iop(6/42=6)
 ----------------------------------------------------------------------

 -----------------
 CaMKII_loop3_89.0
 -----------------
 Symbolic Z-matrix:
 Charge =  0 Multiplicity = 1

                         Standard orientation:
 ---------------------------------------------------------------------
 Center     Atomic      Atomic             Coordinates (Angstroms)
 Number     Number       Type             X           Y           Z
 ---------------------------------------------------------------------
      1          6           0        2.239319    2.049155    5.460832
      2          6           0        1.465156    2.157164    4.151517
      3          8           0        2.139061    2.445389    3.171630
      4          1           0        3.178084    1.523694    5.285441
      5          1           0        2.449431    3.048067    5.843475
      6          1           0        1.645655    1.497411    6.189845
      7          7           0        0.146760    1.919673    4.092097
      8          6           0       -0.514787    1.862980    2.807091
      9          6           0       -0.794123    3.294845    2.366484
     10          8           0       -1.721820    3.915075    2.877652
     11          6           0       -1.762963    0.995336    2.883602
     12          6           0       -2.606172    1.090312    1.608386
     13          8           0       -3.804450    0.751524    1.680156
     14          8           0       -2.124803    1.546938    0.555211
     15          1           0       -0.349893    1.706983    4.943625
     16          1           0        0.163806    1.406942    2.085953
     17          1           0       -2.370199    1.220837    3.760821
     18          1           0       -1.527099   -0.022856    3.177290
     19          7           0        0.052671    3.793370    1.459284
     20          6           0        0.216536    5.193196    1.117912
     21          6           0       -0.880042    5.859307    0.287001
     22          8           0       -1.167493    7.037514    0.510164
     23          6           0        1.635443    5.232415    0.577760
     24          6           0        2.051453    6.522229   -0.122108
     25          6           0        3.541392    6.830341   -0.271939
     26          6           0        4.399284    5.808962   -1.022076
     27          7           0        3.958696    5.464694   -2.383091
     28          1           0        0.837111    3.186839    1.284998
     29          1           0        0.352914    5.762068    2.036762
     30          1           0        1.749678    4.453408   -0.177884
     31          1           0        2.239405    4.974660    1.447066
     32          1           0        1.506285    7.309414    0.406315
     33          1           0        1.649437    6.347675   -1.128991
     34          1           0        3.881604    6.968707    0.751394
     35          1           0        3.694566    7.786530   -0.772280
     36          1           0        4.372408    4.857514   -0.498795
     37          1           0        5.373510    6.291028   -1.158439
     38          1           0        3.784304    6.196334   -3.051890
     39          1           0        4.664370    4.950483   -2.875140
     40          1           0        3.113644    4.916422   -2.429842
     41          7           0       -1.458088    5.148094   -0.677332
     42          6           0       -2.654193    5.464548   -1.441656
     43          6           0       -3.955227    5.017857   -0.777518
     44          8           0       -5.012790    5.315438   -1.324241
     45          6           0       -2.550480    4.677776   -2.752394
     46          6           0       -2.069739    3.244103   -2.714070
     47          8           0       -0.950468    2.985034   -3.212483
     48          8           0       -2.810385    2.334160   -2.288811
     49          1           0       -1.035892    4.258403   -0.878081
     50          1           0       -2.706105    6.526685   -1.689183
     51          1           0       -1.793797    5.220474   -3.329550
     52          1           0       -3.449525    4.699847   -3.382578
     53          7           0       -3.915200    4.209882    0.276272
     54          6           0       -5.135817    3.732180    0.900767
     55          6           0       -5.988258    2.716576    0.132528
     56          8           0       -7.180236    2.609445    0.378927
     57          1           0       -3.107925    3.623006    0.425548
     58          1           0       -5.776217    4.584689    1.111757
     59          1           0       -4.979986    3.286047    1.878663
     60          7           0       -5.365977    1.867708   -0.685635
     61          6           0       -6.108421    0.826784   -1.369853
     62          6           0       -6.484210   -0.378320   -0.520967
     63          8           0       -6.976674   -1.416692   -0.947302
     64          6           0       -5.382743    0.512748   -2.671611
     65          6           0       -4.437380   -0.669553   -2.523109
     66          7           0       -4.687252   -1.697526   -3.328179
     67          8           0       -3.645290   -0.704070   -1.580506
     68          1           0       -4.363188    1.898914   -0.825060
     69          1           0       -7.066906    1.244461   -1.693506
     70          1           0       -4.913352    1.444660   -3.016012
     71          1           0       -6.178940    0.293407   -3.373509
     72          1           0       -5.227569   -1.455654   -4.139200
     73          1           0       -4.097522   -2.516395   -3.315113
     74          7           0       -6.150320   -0.306930    0.768963
     75          6           0       -6.292406   -1.375354    1.732748
     76          6           0       -5.255092   -2.489463    1.744522
     77          8           0       -5.498213   -3.587100    2.246205
     78          1           0       -5.507499    0.422903    1.032827
     79          1           0       -7.294610   -1.819432    1.762462
     80          1           0       -6.099933   -0.921520    2.706550
     81          7           0       -4.055164   -2.253801    1.196766
     82          6           0       -3.000722   -3.224979    1.028047
     83          6           0       -1.616508   -2.604509    1.155984
     84          8           0       -1.361144   -1.548608    0.578089
     85          6           0       -3.108867   -3.945959   -0.319949
     86          6           0       -4.341615   -4.803975   -0.504722
     87          6           0       -4.178128   -6.194495   -0.341549
     88          6           0       -5.596879   -4.298226   -0.856047
     89          6           0       -5.267428   -7.033277   -0.583355
     90          6           0       -6.723356   -5.113171   -1.002723
     91          6           0       -6.541706   -6.507827   -0.877668
     92          8           0       -7.626146   -7.326129   -1.019689
     93          1           0       -3.901188   -1.348928    0.781077
     94          1           0       -3.091687   -3.914925    1.867571
     95          1           0       -2.239364   -4.595709   -0.391296
     96          1           0       -3.084399   -3.151310   -1.063476
     97          1           0       -3.295483   -6.665117    0.048776
     98          1           0       -5.675258   -3.225921   -0.986117
     99          1           0       -5.147862   -8.093373   -0.429736
    100          1           0       -7.702483   -4.737349   -1.234603
    101          1           0       -8.405114   -6.801491   -1.211688
    102          7           0       -0.661492   -3.324296    1.744245
    103          6           0        0.758149   -3.061150    1.681226
    104          6           0        1.492881   -3.925344    0.674331
    105          8           0        1.134687   -5.087072    0.493261
    106          6           0        1.483412   -3.113026    3.021488
    107          6           0        0.599305   -3.073472    4.267036
    108          6           0        2.506097   -1.984414    3.042702
    109          6           0        1.323270   -3.046719    5.611268
    110          1           0       -0.939547   -4.091922    2.348262
    111          1           0        0.871788   -2.019617    1.341674
    112          1           0        2.046202   -4.040974    3.070278
    113          1           0       -0.067885   -3.923083    4.201313
    114          1           0       -0.040695   -2.191587    4.173335
    115          1           0        1.959749   -1.047346    3.045356
    116          1           0        3.151956   -2.060152    3.922719
    117          1           0        3.188610   -2.036971    2.190461
    118          1           0        0.605515   -2.950895    6.426281
    119          1           0        1.968293   -3.929310    5.594632
    120          1           0        2.007916   -2.206617    5.770291
    121          7           0        2.577316   -3.472155    0.037448
    122          6           0        3.593236   -4.266550   -0.622661
    123          6           0        4.966741   -3.632412   -0.517050
    124          8           0        5.142966   -2.569515    0.075990
    125          6           0        3.056971   -4.464308   -2.045162
    126          8           0        2.983523   -3.189708   -2.653931
    127          1           0        2.784748   -2.524568    0.329938
    128          1           0        3.614979   -5.214132   -0.084502
    129          1           0        2.059273   -4.899654   -1.985391
    130          1           0        3.760285   -5.081446   -2.590131
    131          1           0        2.561929   -3.224561   -3.512152
    132          7           0        5.937417   -4.346376   -1.097259
    133          6           0        7.317005   -4.134760   -0.706802
    134          6           0        7.759249   -2.723119   -1.040105
    135          8           0        8.515158   -2.166932   -0.247036
    136          6           0        8.210116   -5.070969   -1.520230
    137          1           0        5.701632   -5.139285   -1.666645
    138          1           0        7.381924   -4.339092    0.364194
    139          1           0        9.245058   -5.191082   -1.221285
    140          1           0        7.750726   -6.058166   -1.563828
    141          1           0        8.198559   -4.639042   -2.522281
    142          7           0        7.346011   -2.106761   -2.148634
    143          6           0        7.740273   -0.747238   -2.472912
    144          6           0        7.238277    0.308015   -1.496521
    145          8           0        7.932384    1.266951   -1.143876
    146          6           0        7.318302   -0.537212   -3.924542
    147          1           0        6.781625   -2.648284   -2.791691
    148          1           0        8.818267   -0.596714   -2.432040
    149          1           0        7.694492    0.440888   -4.231793
    150          1           0        7.799426   -1.209700   -4.629722
    151          1           0        6.229552   -0.563506   -4.036486
    152          7           0        5.980862    0.176397   -1.063525
    153          6           0        5.369362    1.083344   -0.107484
    154          6           0        5.847664    0.808841    1.304527
    155          8           0        5.907403    1.686832    2.171686
    156          6           0        3.873078    0.818570   -0.062446
    157          6           0        3.241992    1.555806   -1.243298
    158          6           0        1.796069    1.135083   -1.443298
    159          8           0        1.468826    0.374859   -2.387740
    160          8           0        0.929893    1.705189   -0.750464
    161          1           0        5.459904   -0.650114   -1.337534
    162          1           0        5.640768    2.118990   -0.329243
    163          1           0        3.446374    1.278715    0.835992
    164          1           0        3.748186   -0.253976   -0.094797
    165          1           0        3.858595    1.505828   -2.142966
    166          1           0        3.258514    2.587037   -0.906564
    167          7           0        6.256979   -0.429799    1.612963
    168          6           0        6.854290   -0.730280    2.898237
    169          1           0        7.824877   -1.201532    2.745247
    170          1           0        6.983839    0.192575    3.463766
    171          1           0        6.204340   -1.408381    3.451485
    172          1           0        6.068821   -1.182337    0.964825
    173         20           0       -1.161258    0.544146   -1.586865
    174          8           0       -1.803094   -0.220857   -4.076366
    175          1           0       -2.102312   -1.093388   -4.323670
    176          1           0       -1.960386    0.325091   -4.840172
 ---------------------------------------------------------------------

 SCF Done:  E(RB3LYP) =  -5333.59079343     A.U. after   17 cycles

 The electronic state is 1-A.
 Alpha  occ. eigenvalues -- -145.36743 -19.18216 -19.16785 -19.16415 -19.13834
 Alpha  occ. eigenvalues --  -19.11822 -19.11541 -19.11394 -19.11062 -19.10438
 Alpha  occ. eigenvalues --  -19.08475 -19.07447 -19.07238 -19.06909 -19.06879
 Alpha  occ. eigenvalues --  -19.06698 -19.05561 -19.05541 -19.04916 -19.04872
 Alpha  occ. eigenvalues --  -19.04803 -19.04736 -19.03603 -19.03168 -15.42496
 Alpha  occ. eigenvalues --  -14.56639 -14.41437 -14.38867 -14.37541 -14.37234
 Alpha  occ. eigenvalues --  -14.37206 -14.36380 -14.34939 -14.33368 -14.32564
 Alpha  occ. eigenvalues --  -14.32443 -14.30951 -14.30216 -14.29462 -14.29421
 Alpha  occ. eigenvalues --  -12.56115 -12.56073 -12.56047 -10.34769 -10.33668
 Alpha  occ. eigenvalues --  -10.30852 -10.29900 -10.29870 -10.29631 -10.29242
 Alpha  occ. eigenvalues --  -10.27849 -10.27688 -10.27601 -10.27455 -10.26443
 Alpha  occ. eigenvalues --  -10.26271 -10.26065 -10.25874 -10.25835 -10.25074
 Alpha  occ. eigenvalues --  -10.24826 -10.24308 -10.24049 -10.23996 -10.23921
 Alpha  occ. eigenvalues --  -10.23651 -10.23457 -10.23409 -10.22588 -10.22452
 Alpha  occ. eigenvalues --  -10.22360 -10.22346 -10.22270 -10.21903 -10.20975
 Alpha  occ. eigenvalues --  -10.20902 -10.20739 -10.20635 -10.20084 -10.19908
 Alpha  occ. eigenvalues --  -10.19798 -10.19772 -10.19213 -10.19149 -10.18982
 Alpha  occ. eigenvalues --  -10.18566 -10.18524 -10.18142 -10.17731 -10.16976
 Alpha  occ. eigenvalues --  -10.16610 -10.16438 -10.16079 -10.16056 -10.16018
 Alpha  occ. eigenvalues --  -10.15927 -10.15639  -1.79330  -1.12266  -1.09502
 Alpha  occ. eigenvalues --   -1.07011  -1.06888  -1.06625  -1.05451  -1.05128
 Alpha  occ. eigenvalues --   -1.04480  -1.04361  -1.03900  -1.03801  -1.03129
 Alpha  occ. eigenvalues --   -1.02529  -1.02010  -1.01793  -1.00521  -1.00122
 Alpha  occ. eigenvalues --   -0.99954  -0.99490  -0.99029  -0.98828  -0.98822
 Alpha  occ. eigenvalues --   -0.98102  -0.97940  -0.96959  -0.95279  -0.94417
 Alpha  occ. eigenvalues --   -0.93797  -0.92925  -0.92488  -0.91450  -0.91251
 Alpha  occ. eigenvalues --   -0.90906  -0.89960  -0.89762  -0.89090  -0.88473
 Alpha  occ. eigenvalues --   -0.88358  -0.87676  -0.87452  -0.86617  -0.85761
 Alpha  occ. eigenvalues --   -0.84124  -0.83253  -0.82018  -0.81191  -0.81134
 Alpha  occ. eigenvalues --   -0.79771  -0.79004  -0.76959  -0.76829  -0.75931
 Alpha  occ. eigenvalues --   -0.75465  -0.75394  -0.74613  -0.73115  -0.72205
 Alpha  occ. eigenvalues --   -0.71531  -0.71409  -0.70994  -0.70758  -0.70709
 Alpha  occ. eigenvalues --   -0.69956  -0.69398  -0.68971  -0.68266  -0.67949
 Alpha  occ. eigenvalues --   -0.67753  -0.67219  -0.66190  -0.65086  -0.64939
 Alpha  occ. eigenvalues --   -0.63988  -0.63713  -0.63411  -0.62984  -0.62254
 Alpha  occ. eigenvalues --   -0.61761  -0.60826  -0.60404  -0.60181  -0.59672
 Alpha  occ. eigenvalues --   -0.59388  -0.59113  -0.59087  -0.58442  -0.58377
 Alpha  occ. eigenvalues --   -0.57832  -0.57187  -0.57150  -0.56671  -0.56456
 Alpha  occ. eigenvalues --   -0.56323  -0.55621  -0.55539  -0.55159  -0.54986
 Alpha  occ. eigenvalues --   -0.54718  -0.54515  -0.54222  -0.53693  -0.53573
 Alpha  occ. eigenvalues --   -0.53182  -0.53008  -0.52632  -0.52280  -0.52042
 Alpha  occ. eigenvalues --   -0.51927  -0.51629  -0.51532  -0.50953  -0.50629
 Alpha  occ. eigenvalues --   -0.49972  -0.49894  -0.49700  -0.49610  -0.48803
 Alpha  occ. eigenvalues --   -0.48620  -0.48488  -0.48272  -0.48110  -0.47592
 Alpha  occ. eigenvalues --   -0.47503  -0.47252  -0.47213  -0.46967  -0.46735
 Alpha  occ. eigenvalues --   -0.46347  -0.46202  -0.45989  -0.45930  -0.45794
 Alpha  occ. eigenvalues --   -0.45760  -0.45380  -0.45239  -0.44977  -0.44760
 Alpha  occ. eigenvalues --   -0.44721  -0.44632  -0.44492  -0.44318  -0.44104
 Alpha  occ. eigenvalues --   -0.43785  -0.43510  -0.43437  -0.43191  -0.43081
 Alpha  occ. eigenvalues --   -0.43003  -0.42905  -0.42717  -0.42439  -0.42273
 Alpha  occ. eigenvalues --   -0.42246  -0.42105  -0.41948  -0.41706  -0.41561
 Alpha  occ. eigenvalues --   -0.41338  -0.41262  -0.41173  -0.41056  -0.40959
 Alpha  occ. eigenvalues --   -0.40737  -0.40518  -0.40431  -0.40369  -0.40337
 Alpha  occ. eigenvalues --   -0.40209  -0.40031  -0.39996  -0.39554  -0.39435
 Alpha  occ. eigenvalues --   -0.39330  -0.39203  -0.39021  -0.38999  -0.38882
 Alpha  occ. eigenvalues --   -0.38765  -0.38541  -0.38512  -0.38452  -0.38294
 Alpha  occ. eigenvalues --   -0.38048  -0.37912  -0.37571  -0.37547  -0.37413
 Alpha  occ. eigenvalues --   -0.37283  -0.36875  -0.36853  -0.36778  -0.36592
 Alpha  occ. eigenvalues --   -0.36497  -0.36429  -0.36384  -0.35966  -0.35845
 Alpha  occ. eigenvalues --   -0.35659  -0.35558  -0.35472  -0.35361  -0.35213
 Alpha  occ. eigenvalues --   -0.35032  -0.34921  -0.34616  -0.34406  -0.34342
 Alpha  occ. eigenvalues --   -0.34210  -0.33880  -0.33850  -0.33486  -0.33446
 Alpha  occ. eigenvalues --   -0.33158  -0.33102  -0.32503  -0.32322  -0.31854
 Alpha  occ. eigenvalues --   -0.31702  -0.31556  -0.31199  -0.31075  -0.30428
 Alpha  occ. eigenvalues --   -0.30229  -0.29892  -0.29713  -0.28511  -0.28192
 Alpha  occ. eigenvalues --   -0.27865  -0.27338  -0.27296  -0.26697  -0.26595
 Alpha  occ. eigenvalues --   -0.26295  -0.26025  -0.25912  -0.25334  -0.25061
 Alpha  occ. eigenvalues --   -0.24535  -0.24416  -0.24218  -0.23697  -0.23335
 Alpha  occ. eigenvalues --   -0.23218  -0.23026  -0.23018  -0.22885  -0.22782
 Alpha  occ. eigenvalues --   -0.22614  -0.22438  -0.22357  -0.21909  -0.21533
 Alpha  occ. eigenvalues --   -0.21411  -0.20691  -0.20109  -0.19832  -0.19751
 Alpha  occ. eigenvalues --   -0.19146  -0.18921  -0.18586
 Alpha virt. eigenvalues --   -0.08863  -0.04589  -0.02840  -0.02593  -0.01866
 Alpha virt. eigenvalues --   -0.01276  -0.01026  -0.00136  -0.00012   0.00332
 Alpha virt. eigenvalues --    0.00373   0.00719   0.01282   0.01789   0.01862

 Mulliken charges:
               1
     1  C    0.074726
     2  C    0.020757
     3  O   -0.302671
     4  H    0.045963
     5  H    0.041302
     6  H   -0.014527
     7  N   -0.121349
     8  C    0.088180
     9  C    0.060849
    10  O   -0.276897
    11  C    0.086887
    12  C    0.185631
    13  O   -0.381908
    14  O   -0.466787
    15  H    0.120022
    16  H    0.006278
    17  H   -0.009016
    18  H   -0.014478
    19  N   -0.106179
    20  C    0.141547
    21  C    0.075389
    22  O   -0.278133
    23  C   -0.094354
    24  C    0.001235
    25  C    0.025678
    26  C    0.031527
    27  N    0.070298
    28  H    0.147550
    29  H    0.005341
    30  H   -0.000337
    31  H    0.037687
    32  H    0.050566
    33  H   -0.019773
    34  H    0.055809
    35  H    0.016038
    36  H    0.112342
    37  H    0.069889
    38  H    0.170006
    39  H    0.182938
    40  H    0.199375
    41  N   -0.136355
    42  C    0.124394
    43  C    0.073448
    44  O   -0.286892
    45  C    0.115933
    46  C    0.022153
    47  O   -0.393082
    48  O   -0.428119
    49  H    0.140611
    50  H    0.016399
    51  H   -0.031931
    52  H    0.026484
    53  N   -0.145503
    54  C    0.235139
    55  C    0.024320
    56  O   -0.293063
    57  H    0.155526
    58  H    0.006537
    59  H    0.032421
    60  N   -0.170041
    61  C    0.128008
    62  C    0.055131
    63  O   -0.301651
    64  C    0.085193
    65  C    0.056313
    66  N   -0.015342
    67  O   -0.337364
    68  H    0.155116
    69  H    0.023467
    70  H    0.058422
    71  H   -0.019733
    72  H    0.126985
    73  H    0.125618
    74  N   -0.131710
    75  C    0.246561
    76  C    0.003089
    77  O   -0.300386
    78  H    0.156330
    79  H    0.025684
    80  H    0.019231
    81  N   -0.161751
    82  C    0.135174
    83  C    0.114229
    84  O   -0.335052
    85  C    0.171547
    86  C   -0.004363
    87  C   -0.027405
    88  C    0.022913
    89  C   -0.029625
    90  C   -0.029871
    91  C    0.160205
    92  O   -0.200082
    93  H    0.158008
    94  H   -0.020547
    95  H   -0.019865
    96  H   -0.041692
    97  H   -0.043076
    98  H   -0.012186
    99  H   -0.042072
   100  H   -0.045343
   101  H    0.169115
   102  N   -0.102782
   103  C    0.136906
   104  C    0.047962
   105  O   -0.293689
   106  C   -0.108721
   107  C    0.038779
   108  C    0.029912
   109  C    0.026119
   110  H    0.135998
   111  H    0.011619
   112  H   -0.014018
   113  H   -0.010026
   114  H    0.001626
   115  H    0.034781
   116  H    0.014489
   117  H   -0.013796
   118  H    0.022398
   119  H    0.009531
   120  H    0.015194
   121  N   -0.130449
   122  C    0.079057
   123  C    0.124044
   124  O   -0.273836
   125  C    0.246124
   126  O   -0.315043
   127  H    0.155151
   128  H    0.038290
   129  H    0.033562
   130  H   -0.031274
   131  H    0.175152
   132  N   -0.145094
   133  C    0.085922
   134  C    0.051715
   135  O   -0.253524
   136  C    0.057501
   137  H    0.123553
   138  H    0.026027
   139  H    0.055322
   140  H    0.016085
   141  H   -0.001046
   142  N   -0.128306
   143  C    0.115435
   144  C    0.065020
   145  O   -0.270150
   146  C    0.023084
   147  H    0.110962
   148  H    0.019782
   149  H    0.019193
   150  H    0.024047
   151  H    0.020903
   152  N   -0.149088
   153  C    0.126144
   154  C    0.062141
   155  O   -0.292082
   156  C   -0.023974
   157  C    0.131049
   158  C    0.117501
   159  O   -0.407384
   160  O   -0.429429
   161  H    0.126527
   162  H   -0.025404
   163  H    0.060103
   164  H   -0.002521
   165  H   -0.032328
   166  H   -0.072603
   167  N   -0.171317
   168  C    0.128712
   169  H    0.022752
   170  H    0.042657
   171  H   -0.001282
   172  H    0.125836
   173  Ca   1.284101
   174  O   -0.268022
   175  H    0.156894
   176  H    0.188529
 Sum of Mulliken charges =  -0.00000

 Dipole moment (field-independent basis, Debye):
    X=             28.8269    Y=             -4.1987    Z=            -17.0876  Tot=             33.7729
 Quadrupole moment (field-independent basis, Debye-Ang):
   XX=           -646.6201   YY=           -521.2232   ZZ=           -471.8606
   XY=             42.9523   XZ=            -32.8708   YZ=            -20.1814

 ESP charges:
               1
     1  C   -0.426843
     2  C    0.765791
     3  O   -0.604554
     4  H    0.133463
     5  H    0.130811
     6  H    0.072093
     7  N   -0.779100
     8  C    0.481566
     9  C    0.422888
    10  O   -0.520946
    11  C   -0.479355
    12  C    0.848304
    13  O   -0.629856
    14  O   -0.887131
    15  H    0.381745
    16  H    0.017731
    17  H    0.101595
    18  H    0.141190
    19  N   -0.130002
    20  C   -0.137290
    21  C    0.415724
    22  O   -0.524569
    23  C    0.265493
    24  C   -0.138830
    25  C   -0.062989
    26  C   -0.059985
    27  N   -0.145571
    28  H    0.117204
    29  H    0.088525
    30  H    0.024587
    31  H   -0.010245
    32  H    0.072252
    33  H   -0.008975
    34  H    0.084301
    35  H    0.044493
    36  H    0.071890
    37  H    0.104787
    38  H    0.291466
    39  H    0.274379
    40  H    0.257011
    41  N   -0.238147
    42  C    0.052363
    43  C    0.465501
    44  O   -0.542869
    45  C   -0.333133
    46  C    0.763760
    47  O   -0.701529
    48  O   -0.662890
    49  H    0.146534
    50  H    0.100486
    51  H    0.055525
    52  H    0.120135
    53  N   -0.170171
    54  C   -0.251452
    55  C    0.603409
    56  O   -0.603557
    57  H    0.150368
    58  H    0.125715
    59  H    0.137212
    60  N   -0.302749
    61  C    0.035375
    62  C    0.355180
    63  O   -0.498963
    64  C   -0.196877
    65  C    0.350017
    66  N   -0.781613
    67  O   -0.312028
    68  H    0.209701
    69  H    0.113614
    70  H    0.106964
    71  H    0.076088
    72  H    0.389731
    73  H    0.386157
    74  N   -0.065041
    75  C   -0.416126
    76  C    0.731019
    77  O   -0.560742
    78  H    0.220036
    79  H    0.167063
    80  H    0.136947
    81  N   -0.713718
    82  C    0.476688
    83  C    0.615691
    84  O   -0.615928
    85  C   -0.059453
    86  C   -0.012042
    87  C   -0.153449
    88  C   -0.129767
    89  C   -0.299225
    90  C   -0.318829
    91  C    0.430790
    92  O   -0.576183
    93  H    0.260209
    94  H   -0.030075
    95  H    0.014492
    96  H   -0.038176
    97  H    0.129810
    98  H    0.226210
    99  H    0.160724
   100  H    0.139884
   101  H    0.411977
   102  N   -0.741145
   103  C   -0.002647
   104  C    0.750045
   105  O   -0.596530
   106  C    0.373875
   107  C    0.081669
   108  C   -0.151431
   109  C   -0.347111
   110  H    0.332986
   111  H    0.077356
   112  H   -0.093469
   113  H   -0.001850
   114  H   -0.011573
   115  H    0.014138
   116  H    0.059190
   117  H   -0.070506
   118  H    0.104698
   119  H    0.068642
   120  H    0.089512
   121  N   -0.410480
   122  C   -0.050500
   123  C    0.478697
   124  O   -0.294618
   125  C    0.006923
   126  O   -0.580619
   127  H    0.171140
   128  H    0.095335
   129  H    0.117202
   130  H    0.024857
   131  H    0.428752
   132  N   -0.421888
   133  C    0.078507
   134  C    0.558604
   135  O   -0.537276
   136  C   -0.236368
   137  H    0.307240
   138  H    0.078352
   139  H    0.116642
   140  H    0.071447
   141  H    0.046568
   142  N   -0.484797
   143  C    0.255619
   144  C    0.342981
   145  O   -0.511277
   146  C   -0.353644
   147  H    0.275424
   148  H    0.060691
   149  H    0.103072
   150  H    0.105670
   151  H    0.085219
   152  N   -0.326778
   153  C    0.373911
   154  C    0.229181
   155  O   -0.526812
   156  C   -0.467450
   157  C    0.030854
   158  C    0.708392
   159  O   -0.742307
   160  O   -0.743377
   161  H    0.215037
   162  H    0.004830
   163  H    0.163893
   164  H    0.187703
   165  H   -0.029225
   166  H   -0.018004
   167  N    0.124541
   168  C   -0.233963
   169  H    0.077127
   170  H    0.122856
   171  H    0.058586
   172  H   -0.016150
   173  Ca   1.589727
   174  O   -0.819036
   175  H    0.399517
   176  H    0.429934
 Sum of ESP charges =   0.00000

 Normal termination of Gaussian 16 at Sun Sep 15 01:07:58 2019.
