 Gaussian 16, Revision A.03,
 Gaussian 16:  ES64L-G16RevA.03 25-Dec-2016

 ----------------------------------------------------------------------
 #b3lyp/svp scf=(tight,noincore) Test #IOP(5/87=12) Density=Current Pop
 =(MK,readradii) iop(6/33=2) iop(6/42=6)
 ----------------------------------------------------------------------

 ------------------
 holoCaM_loop3_48.0
 ------------------
 Symbolic Z-matrix:
 Charge =  0 Multiplicity = 1

                         Standard orientation:
 ---------------------------------------------------------------------
 Center     Atomic      Atomic             Coordinates (Angstroms)
 Number     Number       Type             X           Y           Z
 ---------------------------------------------------------------------
      1          6           0        1.686225    1.982620    5.767573
      2          6           0        1.235377    1.537628    4.384924
      3          8           0        2.083841    1.037610    3.642636
      4          1           0        2.682361    1.589274    5.968109
      5          1           0        1.711128    3.071606    5.809372
      6          1           0        0.989610    1.605746    6.515857
      7          7           0       -0.060681    1.654345    4.095254
      8          6           0       -0.492320    1.784966    2.713253
      9          6           0       -0.596338    3.265463    2.411576
     10          8           0       -0.951497    4.024022    3.314820
     11          6           0       -1.816665    1.085106    2.386134
     12          6           0       -2.431841    1.544736    1.071715
     13          8           0       -1.767220    1.178829    0.075426
     14          8           0       -3.471865    2.226618    1.037259
     15          1           0       -0.629182    1.901573    4.885687
     16          1           0        0.284994    1.403964    2.062468
     17          1           0       -2.573961    1.343901    3.128379
     18          1           0       -1.583282    0.025018    2.259067
     19          7           0       -0.347026    3.693213    1.166035
     20          6           0       -0.092297    5.048980    0.717584
     21          6           0       -1.051397    5.548139   -0.360501
     22          8           0       -0.842551    6.667267   -0.818796
     23          6           0        1.324347    5.231277    0.185336
     24          6           0        2.385676    5.161260    1.289637
     25          6           0        3.701631    5.640058    0.702173
     26          6           0        4.782321    5.805371    1.758052
     27          7           0        6.113999    6.157442    1.238359
     28          1           0       -0.216680    2.901870    0.554654
     29          1           0       -0.151602    5.714158    1.572348
     30          1           0        1.455313    6.256281   -0.156445
     31          1           0        1.587238    4.492125   -0.561351
     32          1           0        2.474718    4.106246    1.550822
     33          1           0        2.130217    5.884146    2.067632
     34          1           0        3.569093    6.538990    0.098720
     35          1           0        3.984614    4.808574    0.049673
     36          1           0        4.846296    4.893794    2.355240
     37          1           0        4.328326    6.580936    2.367796
     38          1           0        6.676547    6.372804    2.053564
     39          1           0        6.464897    5.371503    0.708387
     40          1           0        6.014573    6.886499    0.551562
     41          7           0       -2.098720    4.804157   -0.725200
     42          6           0       -3.024124    5.221524   -1.751570
     43          6           0       -4.480998    5.095759   -1.324135
     44          8           0       -5.219399    6.059974   -1.526255
     45          6           0       -2.788110    4.558136   -3.107304
     46          6           0       -2.514889    3.065753   -2.973345
     47          8           0       -3.517287    2.320884   -3.109613
     48          8           0       -1.344895    2.718581   -2.722378
     49          1           0       -2.246314    3.871946   -0.372784
     50          1           0       -2.840255    6.264853   -2.038895
     51          1           0       -1.802595    4.928996   -3.420071
     52          1           0       -3.598056    4.790242   -3.794190
     53          7           0       -4.990508    3.931823   -0.916762
     54          6           0       -6.365404    3.716822   -0.504045
     55          6           0       -6.836037    2.283298   -0.664396
     56          8           0       -7.687611    1.830320    0.104130
     57          1           0       -4.327178    3.231481   -0.633186
     58          1           0       -7.028924    4.304810   -1.133419
     59          1           0       -6.472254    4.137243    0.503144
     60          7           0       -6.147633    1.515114   -1.508016
     61          6           0       -6.372491    0.078704   -1.606835
     62          6           0       -6.195742   -0.742697   -0.350746
     63          8           0       -6.786257   -1.828982   -0.315003
     64          6           0       -5.623401   -0.364260   -2.861246
     65          6           0       -4.334327   -1.160986   -2.638948
     66          7           0       -4.100447   -2.313658   -3.255022
     67          8           0       -3.388056   -0.594520   -2.086961
     68          1           0       -5.489694    1.939659   -2.143137
     69          1           0       -7.445198    0.007867   -1.791445
     70          1           0       -5.466360    0.482864   -3.528418
     71          1           0       -6.249397   -1.134711   -3.314164
     72          1           0       -4.768302   -2.658388   -3.933572
     73          1           0       -3.148153   -2.655601   -3.201991
     74          7           0       -5.515965   -0.221898    0.671981
     75          6           0       -5.392093   -0.759845    2.014429
     76          6           0       -4.420166   -1.924330    2.203989
     77          8           0       -4.457567   -2.559242    3.256457
     78          1           0       -5.291614    0.756272    0.583943
     79          1           0       -6.367788   -1.066481    2.393368
     80          1           0       -5.014255    0.008396    2.681620
     81          7           0       -3.594129   -2.208916    1.192469
     82          6           0       -2.777152   -3.383809    1.023724
     83          6           0       -1.355330   -2.989407    0.661137
     84          8           0       -1.129515   -2.190867   -0.245638
     85          6           0       -3.296784   -4.331173   -0.060611
     86          6           0       -4.781092   -4.567576    0.076296
     87          6           0       -5.537412   -4.720135   -1.091483
     88          6           0       -5.394739   -4.809253    1.310163
     89          6           0       -6.863324   -5.171920   -1.056170
     90          6           0       -6.773862   -5.074293    1.391250
     91          6           0       -7.452613   -5.403152    0.209282
     92          8           0       -8.619409   -6.073409    0.396753
     93          1           0       -3.626883   -1.640354    0.355352
     94          1           0       -2.757969   -3.985703    1.932986
     95          1           0       -2.761396   -5.284188   -0.085559
     96          1           0       -3.169979   -3.877224   -1.039872
     97          1           0       -5.000991   -4.530087   -2.014431
     98          1           0       -4.824765   -4.685618    2.213293
     99          1           0       -7.397540   -5.318104   -1.969922
    100          1           0       -7.394459   -5.143177    2.272564
    101          1           0       -8.881013   -6.351111    1.282385
    102          7           0       -0.435739   -3.435056    1.520874
    103          6           0        0.931601   -2.961828    1.579497
    104          6           0        1.796673   -3.780956    0.629140
    105          8           0        1.804366   -5.005951    0.591347
    106          6           0        1.452049   -3.036922    3.010788
    107          6           0        0.521443   -2.258308    3.930100
    108          6           0        2.846789   -2.430196    2.962979
    109          6           0        0.748687   -2.492730    5.428067
    110          1           0       -0.722666   -4.036124    2.282840
    111          1           0        1.016307   -1.922806    1.268756
    112          1           0        1.614813   -4.093503    3.250465
    113          1           0       -0.482366   -2.619824    3.737814
    114          1           0        0.630616   -1.201761    3.683345
    115          1           0        3.217042   -2.181002    3.962787
    116          1           0        3.486666   -3.106914    2.401989
    117          1           0        2.833660   -1.484074    2.425968
    118          1           0        1.671824   -1.956920    5.656596
    119          1           0       -0.140822   -2.189350    5.978917
    120          1           0        1.026852   -3.537996    5.467358
    121          7           0        2.505192   -3.064063   -0.239804
    122          6           0        3.252363   -3.581980   -1.369803
    123          6           0        4.764630   -3.425843   -1.251611
    124          8           0        5.209312   -2.932129   -0.219088
    125          6           0        2.840826   -2.992733   -2.716327
    126          8           0        3.035513   -1.595050   -2.815724
    127          1           0        2.315756   -2.068607   -0.175915
    128          1           0        3.042115   -4.642261   -1.445957
    129          1           0        1.779546   -3.194818   -2.856853
    130          1           0        3.359148   -3.481121   -3.540293
    131          1           0        2.522997   -1.153774   -2.135796
    132          7           0        5.632729   -3.872808   -2.172224
    133          6           0        7.056540   -3.849204   -1.919828
    134          6           0        7.696552   -2.466069   -1.835448
    135          8           0        8.449196   -2.252675   -0.893912
    136          6           0        7.738868   -4.787967   -2.911319
    137          1           0        5.260388   -4.483090   -2.883221
    138          1           0        7.165839   -4.310512   -0.939752
    139          1           0        7.104310   -5.665779   -2.958035
    140          1           0        7.739798   -4.452054   -3.950771
    141          1           0        8.735794   -5.174839   -2.697387
    142          7           0        7.308173   -1.544387   -2.717698
    143          6           0        7.659253   -0.142342   -2.685862
    144          6           0        7.077232    0.675114   -1.541652
    145          8           0        7.661282    1.690486   -1.203858
    146          6           0        7.154114    0.479507   -3.983644
    147          1           0        6.683440   -1.882347   -3.434908
    148          1           0        8.740006   -0.097877   -2.615881
    149          1           0        7.543601   -0.144633   -4.783675
    150          1           0        6.079338    0.273966   -4.049298
    151          1           0        7.611792    1.469560   -3.951610
    152          7           0        6.099784    0.104100   -0.833318
    153          6           0        5.601743    0.612510    0.430634
    154          6           0        6.258402   -0.022119    1.644284
    155          8           0        6.633675    0.704068    2.552151
    156          6           0        4.106246    0.347871    0.363881
    157          6           0        3.293791    1.217076   -0.591890
    158          6           0        1.851395    0.758610   -0.736819
    159          8           0        0.902461    1.569427   -0.719520
    160          8           0        1.618042   -0.430581   -1.050140
    161          1           0        5.837762   -0.850946   -1.034150
    162          1           0        5.839595    1.669531    0.578393
    163          1           0        3.777600    0.556781    1.384101
    164          1           0        3.927033   -0.692351    0.067195
    165          1           0        3.714615    1.207994   -1.603633
    166          1           0        3.221130    2.263254   -0.280229
    167          7           0        6.424320   -1.348598    1.723819
    168          6           0        7.142682   -2.017089    2.793433
    169          1           0        8.003203   -2.542374    2.378841
    170          1           0        7.482571   -1.278954    3.520109
    171          1           0        6.482622   -2.732306    3.283465
    172          1           0        6.066707   -1.900241    0.956745
    173         20           0       -0.849882    0.086552   -1.917216
    174          8           0        0.167974    0.562861   -4.265427
    175          1           0        0.179804    1.358398   -4.803554
    176          1           0        0.262602   -0.153263   -4.893130
 ---------------------------------------------------------------------

 SCF Done:  E(RB3LYP) =  -5333.56360777     A.U. after   18 cycles

 The electronic state is 1-A.
 Alpha  occ. eigenvalues -- -145.38120 -19.19003 -19.13808 -19.13700 -19.12605
 Alpha  occ. eigenvalues --  -19.12500 -19.12086 -19.11342 -19.10931 -19.10320
 Alpha  occ. eigenvalues --  -19.09647 -19.08732 -19.08447 -19.07466 -19.07285
 Alpha  occ. eigenvalues --  -19.06755 -19.06412 -19.05710 -19.05519 -19.04148
 Alpha  occ. eigenvalues --  -19.03866 -19.03357 -19.02686 -19.01342 -15.43894
 Alpha  occ. eigenvalues --  -14.57675 -14.39817 -14.38315 -14.37979 -14.37128
 Alpha  occ. eigenvalues --  -14.35652 -14.35591 -14.34126 -14.33899 -14.32512
 Alpha  occ. eigenvalues --  -14.32395 -14.32033 -14.31681 -14.31081 -14.29348
 Alpha  occ. eigenvalues --  -12.57490 -12.57468 -12.57460 -10.33210 -10.32179
 Alpha  occ. eigenvalues --  -10.30927 -10.30190 -10.30151 -10.28726 -10.28638
 Alpha  occ. eigenvalues --  -10.28178 -10.27146 -10.26590 -10.26259 -10.26022
 Alpha  occ. eigenvalues --  -10.25968 -10.25668 -10.25629 -10.25564 -10.24978
 Alpha  occ. eigenvalues --  -10.24646 -10.24566 -10.24523 -10.23416 -10.23226
 Alpha  occ. eigenvalues --  -10.23116 -10.22993 -10.22823 -10.22383 -10.22309
 Alpha  occ. eigenvalues --  -10.21631 -10.21590 -10.21365 -10.21172 -10.20999
 Alpha  occ. eigenvalues --  -10.20831 -10.20409 -10.20303 -10.19992 -10.19245
 Alpha  occ. eigenvalues --  -10.18973 -10.18907 -10.18841 -10.18574 -10.18244
 Alpha  occ. eigenvalues --  -10.18152 -10.17852 -10.17081 -10.17043 -10.16912
 Alpha  occ. eigenvalues --  -10.16765 -10.16672 -10.16546 -10.16445 -10.16428
 Alpha  occ. eigenvalues --  -10.15522 -10.12715  -1.80729  -1.12797  -1.08450
 Alpha  occ. eigenvalues --   -1.08203  -1.07952  -1.07563  -1.05292  -1.04950
 Alpha  occ. eigenvalues --   -1.04934  -1.04730  -1.04671  -1.03438  -1.02928
 Alpha  occ. eigenvalues --   -1.02371  -1.01359  -1.01188  -1.00756  -1.00492
 Alpha  occ. eigenvalues --   -0.99602  -0.99535  -0.98734  -0.98421  -0.98322
 Alpha  occ. eigenvalues --   -0.96613  -0.96455  -0.95997  -0.95019  -0.94339
 Alpha  occ. eigenvalues --   -0.94100  -0.92805  -0.92622  -0.92423  -0.91265
 Alpha  occ. eigenvalues --   -0.90745  -0.89627  -0.89550  -0.89092  -0.88726
 Alpha  occ. eigenvalues --   -0.88582  -0.87802  -0.87340  -0.86839  -0.85828
 Alpha  occ. eigenvalues --   -0.82784  -0.82378  -0.81713  -0.80117  -0.80063
 Alpha  occ. eigenvalues --   -0.78848  -0.78040  -0.77727  -0.77393  -0.76654
 Alpha  occ. eigenvalues --   -0.74814  -0.74279  -0.73339  -0.73186  -0.72581
 Alpha  occ. eigenvalues --   -0.71939  -0.71852  -0.71129  -0.71074  -0.71032
 Alpha  occ. eigenvalues --   -0.69546  -0.69321  -0.68821  -0.68373  -0.67128
 Alpha  occ. eigenvalues --   -0.66403  -0.66305  -0.65799  -0.64538  -0.64083
 Alpha  occ. eigenvalues --   -0.63567  -0.62410  -0.62325  -0.62065  -0.61415
 Alpha  occ. eigenvalues --   -0.61050  -0.60834  -0.60493  -0.60297  -0.60214
 Alpha  occ. eigenvalues --   -0.59159  -0.59121  -0.58711  -0.58052  -0.58026
 Alpha  occ. eigenvalues --   -0.57475  -0.57331  -0.57125  -0.56580  -0.56493
 Alpha  occ. eigenvalues --   -0.56063  -0.55993  -0.55953  -0.55638  -0.55381
 Alpha  occ. eigenvalues --   -0.55013  -0.54816  -0.54182  -0.53700  -0.53398
 Alpha  occ. eigenvalues --   -0.52793  -0.52699  -0.52620  -0.51656  -0.51560
 Alpha  occ. eigenvalues --   -0.50943  -0.50841  -0.50707  -0.49814  -0.49692
 Alpha  occ. eigenvalues --   -0.49261  -0.49167  -0.48877  -0.48754  -0.48466
 Alpha  occ. eigenvalues --   -0.48076  -0.48020  -0.47831  -0.47633  -0.47343
 Alpha  occ. eigenvalues --   -0.47149  -0.46805  -0.46571  -0.46352  -0.46159
 Alpha  occ. eigenvalues --   -0.46097  -0.45901  -0.45767  -0.45577  -0.45486
 Alpha  occ. eigenvalues --   -0.45261  -0.45180  -0.44834  -0.44634  -0.44591
 Alpha  occ. eigenvalues --   -0.44553  -0.44310  -0.44136  -0.44007  -0.43895
 Alpha  occ. eigenvalues --   -0.43657  -0.43455  -0.43316  -0.43163  -0.43009
 Alpha  occ. eigenvalues --   -0.42860  -0.42624  -0.42531  -0.42345  -0.42252
 Alpha  occ. eigenvalues --   -0.42231  -0.42054  -0.42012  -0.41874  -0.41773
 Alpha  occ. eigenvalues --   -0.41599  -0.41322  -0.40870  -0.40844  -0.40686
 Alpha  occ. eigenvalues --   -0.40507  -0.40314  -0.40229  -0.40022  -0.39913
 Alpha  occ. eigenvalues --   -0.39824  -0.39785  -0.39591  -0.39443  -0.39290
 Alpha  occ. eigenvalues --   -0.39096  -0.39003  -0.38813  -0.38774  -0.38739
 Alpha  occ. eigenvalues --   -0.38637  -0.38421  -0.38052  -0.37921  -0.37778
 Alpha  occ. eigenvalues --   -0.37727  -0.37589  -0.37395  -0.37316  -0.37155
 Alpha  occ. eigenvalues --   -0.37145  -0.36824  -0.36801  -0.36737  -0.36431
 Alpha  occ. eigenvalues --   -0.36420  -0.36411  -0.35777  -0.35708  -0.35581
 Alpha  occ. eigenvalues --   -0.35376  -0.35309  -0.35095  -0.34998  -0.34703
 Alpha  occ. eigenvalues --   -0.34585  -0.34392  -0.34235  -0.34066  -0.33939
 Alpha  occ. eigenvalues --   -0.33404  -0.33264  -0.33182  -0.32850  -0.32649
 Alpha  occ. eigenvalues --   -0.32493  -0.32074  -0.31715  -0.31608  -0.31234
 Alpha  occ. eigenvalues --   -0.31125  -0.30932  -0.30439  -0.30160  -0.29992
 Alpha  occ. eigenvalues --   -0.29594  -0.29517  -0.28947  -0.28832  -0.28452
 Alpha  occ. eigenvalues --   -0.28194  -0.27926  -0.27603  -0.27369  -0.26772
 Alpha  occ. eigenvalues --   -0.26436  -0.25569  -0.25473  -0.25313  -0.25262
 Alpha  occ. eigenvalues --   -0.25098  -0.24431  -0.24236  -0.24029  -0.23952
 Alpha  occ. eigenvalues --   -0.23292  -0.23130  -0.23066  -0.22828  -0.22544
 Alpha  occ. eigenvalues --   -0.22271  -0.22054  -0.21631  -0.21403  -0.21052
 Alpha  occ. eigenvalues --   -0.20912  -0.20460  -0.19905  -0.19722  -0.19323
 Alpha  occ. eigenvalues --   -0.19165  -0.18130  -0.17055
 Alpha virt. eigenvalues --   -0.09363  -0.04127  -0.03243  -0.03015  -0.02193
 Alpha virt. eigenvalues --   -0.01000  -0.00526  -0.00379   0.00013   0.00316
 Alpha virt. eigenvalues --    0.00613   0.01000   0.01656   0.01771   0.02364

 Mulliken charges:
               1
     1  C    0.053666
     2  C    0.022291
     3  O   -0.304128
     4  H    0.024528
     5  H    0.032017
     6  H    0.016535
     7  N   -0.102800
     8  C    0.100349
     9  C    0.006992
    10  O   -0.294494
    11  C    0.162114
    12  C    0.091287
    13  O   -0.476298
    14  O   -0.368157
    15  H    0.116630
    16  H    0.003964
    17  H   -0.011618
    18  H    0.007696
    19  N   -0.168111
    20  C    0.194120
    21  C    0.078725
    22  O   -0.304326
    23  C    0.004694
    24  C    0.005863
    25  C   -0.071400
    26  C    0.007085
    27  N    0.096575
    28  H    0.170841
    29  H    0.007435
    30  H    0.004625
    31  H    0.018915
    32  H    0.043365
    33  H    0.005687
    34  H    0.020009
    35  H    0.019639
    36  H    0.093334
    37  H    0.069879
    38  H    0.210336
    39  H    0.205877
    40  H    0.189062
    41  N   -0.101373
    42  C    0.075904
    43  C    0.051437
    44  O   -0.299650
    45  C    0.169978
    46  C    0.057823
    47  O   -0.398171
    48  O   -0.424961
    49  H    0.156749
    50  H    0.010806
    51  H   -0.026183
    52  H   -0.010697
    53  N   -0.172532
    54  C    0.259255
    55  C   -0.006131
    56  O   -0.294208
    57  H    0.128772
    58  H    0.023024
    59  H    0.028477
    60  N   -0.174142
    61  C    0.140986
    62  C    0.030925
    63  O   -0.279133
    64  C    0.139896
    65  C    0.019839
    66  N   -0.018699
    67  O   -0.334027
    68  H    0.146157
    69  H    0.029390
    70  H    0.066830
    71  H   -0.017925
    72  H    0.140109
    73  H    0.128249
    74  N   -0.147531
    75  C    0.221854
    76  C    0.040826
    77  O   -0.294374
    78  H    0.160386
    79  H    0.040007
    80  H    0.039584
    81  N   -0.122561
    82  C    0.054734
    83  C    0.168973
    84  O   -0.351612
    85  C    0.176343
    86  C   -0.047450
    87  C    0.020692
    88  C    0.013572
    89  C    0.009154
    90  C   -0.024046
    91  C    0.167725
    92  O   -0.221778
    93  H    0.149082
    94  H    0.000736
    95  H    0.015617
    96  H   -0.062842
    97  H   -0.085365
    98  H   -0.016324
    99  H   -0.046537
   100  H   -0.044700
   101  H    0.178914
   102  N   -0.102168
   103  C    0.100197
   104  C    0.051695
   105  O   -0.277745
   106  C   -0.142568
   107  C    0.000053
   108  C    0.058771
   109  C    0.066638
   110  H    0.142482
   111  H    0.014722
   112  H   -0.004623
   113  H   -0.019289
   114  H    0.030564
   115  H    0.009178
   116  H    0.023146
   117  H    0.009975
   118  H    0.007359
   119  H    0.028054
   120  H   -0.008839
   121  N   -0.128287
   122  C    0.099169
   123  C    0.118386
   124  O   -0.290161
   125  C    0.245818
   126  O   -0.357989
   127  H    0.160952
   128  H    0.019730
   129  H   -0.018473
   130  H   -0.023862
   131  H    0.167298
   132  N   -0.136375
   133  C    0.095645
   134  C    0.049891
   135  O   -0.244923
   136  C    0.031715
   137  H    0.117319
   138  H    0.021949
   139  H    0.005641
   140  H    0.006517
   141  H    0.047838
   142  N   -0.142049
   143  C    0.076234
   144  C    0.076237
   145  O   -0.287756
   146  C    0.043306
   147  H    0.110862
   148  H    0.028558
   149  H    0.003103
   150  H    0.023391
   151  H    0.044942
   152  N   -0.144205
   153  C    0.150436
   154  C    0.060747
   155  O   -0.288915
   156  C   -0.038425
   157  C    0.098934
   158  C    0.161385
   159  O   -0.358414
   160  O   -0.483884
   161  H    0.135537
   162  H   -0.042364
   163  H    0.053130
   164  H   -0.012442
   165  H    0.012717
   166  H   -0.024275
   167  N   -0.162669
   168  C    0.132166
   169  H    0.024027
   170  H    0.032690
   171  H    0.014511
   172  H    0.121408
   173  Ca   1.303849
   174  O   -0.295076
   175  H    0.203328
   176  H    0.170921
 Sum of Mulliken charges =  -0.00000

 Dipole moment (field-independent basis, Debye):
    X=             28.9537    Y=             -0.9018    Z=             -8.0825  Tot=             30.0742
 Quadrupole moment (field-independent basis, Debye-Ang):
   XX=           -581.7967   YY=           -501.0081   ZZ=           -496.2488
   XY=            158.6062   XZ=             -8.8074   YZ=             72.6198

 ESP charges:
               1
     1  C   -0.424303
     2  C    0.805825
     3  O   -0.602159
     4  H    0.115639
     5  H    0.101603
     6  H    0.102640
     7  N   -0.835315
     8  C    0.556614
     9  C    0.462246
    10  O   -0.565348
    11  C   -0.321436
    12  C    0.623222
    13  O   -0.706420
    14  O   -0.641334
    15  H    0.380118
    16  H   -0.107576
    17  H    0.104576
    18  H   -0.019297
    19  N   -0.365891
    20  C    0.016906
    21  C    0.612531
    22  O   -0.584332
    23  C    0.000846
    24  C   -0.192230
    25  C    0.198011
    26  C    0.078618
    27  N   -0.430892
    28  H    0.329491
    29  H    0.078621
    30  H    0.032692
    31  H    0.014121
    32  H    0.016429
    33  H    0.083494
    34  H   -0.007351
    35  H   -0.073516
    36  H    0.067405
    37  H    0.040323
    38  H    0.362675
    39  H    0.351590
    40  H    0.331472
    41  N   -0.541771
    42  C    0.288872
    43  C    0.358358
    44  O   -0.556436
    45  C   -0.315232
    46  C    0.639356
    47  O   -0.688457
    48  O   -0.671787
    49  H    0.269980
    50  H    0.045478
    51  H    0.071225
    52  H    0.092755
    53  N   -0.081265
    54  C   -0.188994
    55  C    0.515793
    56  O   -0.567426
    57  H    0.190751
    58  H    0.110355
    59  H    0.107070
    60  N   -0.392364
    61  C    0.410566
    62  C    0.193113
    63  O   -0.465156
    64  C   -0.610858
    65  C    1.024150
    66  N   -0.848909
    67  O   -0.916324
    68  H    0.206347
    69  H    0.030147
    70  H    0.230184
    71  H    0.105217
    72  H    0.374919
    73  H    0.378542
    74  N    0.053214
    75  C   -0.309524
    76  C    0.701245
    77  O   -0.589845
    78  H    0.198290
    79  H    0.141758
    80  H    0.108077
    81  N   -0.502198
    82  C    0.090214
    83  C    0.794878
    84  O   -0.712900
    85  C   -0.198037
    86  C    0.204955
    87  C   -0.270536
    88  C   -0.279842
    89  C   -0.281172
    90  C   -0.272180
    91  C    0.462079
    92  O   -0.594244
    93  H    0.354801
    94  H    0.040164
    95  H    0.067737
    96  H    0.025655
    97  H    0.152328
    98  H    0.196170
    99  H    0.166885
   100  H    0.147890
   101  H    0.413468
   102  N   -0.699527
   103  C   -0.178528
   104  C    0.675185
   105  O   -0.577732
   106  C    0.280003
   107  C    0.226253
   108  C   -0.337869
   109  C   -0.437471
   110  H    0.355606
   111  H    0.235781
   112  H   -0.026582
   113  H   -0.044244
   114  H    0.026529
   115  H    0.104185
   116  H    0.057369
   117  H    0.000197
   118  H    0.091227
   119  H    0.126606
   120  H    0.073707
   121  N   -0.178709
   122  C   -0.318157
   123  C    0.607155
   124  O   -0.444613
   125  C    0.285858
   126  O   -0.686954
   127  H    0.181040
   128  H    0.120861
   129  H   -0.008253
   130  H    0.005146
   131  H    0.534013
   132  N   -0.416258
   133  C    0.023971
   134  C    0.559435
   135  O   -0.533178
   136  C   -0.218917
   137  H    0.284779
   138  H    0.096283
   139  H    0.066976
   140  H    0.053816
   141  H    0.103417
   142  N   -0.529641
   143  C    0.236389
   144  C    0.357951
   145  O   -0.538346
   146  C   -0.424542
   147  H    0.315351
   148  H    0.082608
   149  H    0.103445
   150  H    0.122832
   151  H    0.133014
   152  N   -0.020663
   153  C   -0.168860
   154  C    0.520463
   155  O   -0.573235
   156  C    0.231340
   157  C   -0.406026
   158  C    0.925071
   159  O   -0.733955
   160  O   -0.923061
   161  H    0.032561
   162  H    0.088097
   163  H    0.032947
   164  H   -0.123651
   165  H    0.060855
   166  H    0.159259
   167  N   -0.160880
   168  C   -0.143004
   169  H    0.068847
   170  H    0.094142
   171  H    0.055092
   172  H    0.183111
   173  Ca   1.812426
   174  O   -0.946171
   175  H    0.478508
   176  H    0.431491
 Sum of ESP charges =  -0.00000

 Normal termination of Gaussian 16 at Wed Sep 18 19:35:36 2019.
