 Gaussian 16, Revision A.03,
 Gaussian 16:  ES64L-G16RevA.03 25-Dec-2016

 ----------------------------------------------------------------------
 #b3lyp/svp scf=(tight,noincore) Test #IOP(5/87=12) Density=Current Pop
 =(MK,readradii) iop(6/33=2) iop(6/42=6)
 ----------------------------------------------------------------------

 ------------------
 holoCaM_loop3_41.0
 ------------------
 Symbolic Z-matrix:
 Charge =  0 Multiplicity = 1

                         Standard orientation:
 ---------------------------------------------------------------------
 Center     Atomic      Atomic             Coordinates (Angstroms)
 Number     Number       Type             X           Y           Z
 ---------------------------------------------------------------------
      1          6           0        2.423737    3.787546    5.064611
      2          6           0        1.846107    3.421215    3.705072
      3          8           0        2.635308    3.414174    2.769545
      4          1           0        2.583152    4.864159    5.112584
      5          1           0        1.727978    3.488704    5.848587
      6          1           0        3.374736    3.273538    5.206359
      7          7           0        0.552537    3.138644    3.545915
      8          6           0       -0.090705    2.670064    2.333820
      9          6           0       -0.249239    3.732504    1.260420
     10          8           0       -0.994180    4.693088    1.470277
     11          6           0       -1.502748    2.159880    2.602981
     12          6           0       -2.321154    1.747133    1.390318
     13          8           0       -3.487395    1.362979    1.626341
     14          8           0       -1.915124    1.964884    0.223817
     15          1           0       -0.006101    2.943742    4.373463
     16          1           0        0.465809    1.836196    1.914349
     17          1           0       -2.105422    2.861199    3.171783
     18          1           0       -1.376969    1.280402    3.242040
     19          7           0        0.430254    3.697920    0.112511
     20          6           0        0.713704    4.854515   -0.719260
     21          6           0       -0.380208    5.128702   -1.734138
     22          8           0       -0.257498    6.066275   -2.518038
     23          6           0        2.106184    4.769669   -1.332450
     24          6           0        3.270392    4.796336   -0.344873
     25          6           0        3.154545    6.004141    0.582913
     26          6           0        4.326565    5.832977    1.545967
     27          7           0        4.155886    6.681506    2.728535
     28          1           0        0.944919    2.851528   -0.076543
     29          1           0        0.677624    5.766570   -0.116388
     30          1           0        2.291244    5.626552   -1.987892
     31          1           0        2.193021    3.857498   -1.930450
     32          1           0        4.193692    4.961256   -0.908182
     33          1           0        3.288060    3.879709    0.229133
     34          1           0        2.243684    5.871234    1.161071
     35          1           0        3.207914    6.952400    0.049568
     36          1           0        5.190427    6.050633    0.905289
     37          1           0        4.412472    4.816962    1.940346
     38          1           0        4.118946    7.681742    2.583060
     39          1           0        3.396109    6.293220    3.266004
     40          1           0        4.966715    6.451272    3.286432
     41          7           0       -1.459815    4.347889   -1.712257
     42          6           0       -2.701475    4.731894   -2.355234
     43          6           0       -3.957427    4.518275   -1.529491
     44          8           0       -5.035180    4.904522   -1.971149
     45          6           0       -2.882721    4.004638   -3.686267
     46          6           0       -3.003609    2.495993   -3.612278
     47          8           0       -3.153470    1.985505   -2.473751
     48          8           0       -2.847113    1.847896   -4.662840
     49          1           0       -1.370381    3.473018   -1.207577
     50          1           0       -2.784957    5.800350   -2.568385
     51          1           0       -1.977044    4.133741   -4.272084
     52          1           0       -3.689965    4.509717   -4.213386
     53          7           0       -3.817088    4.021897   -0.294091
     54          6           0       -4.927397    3.834414    0.615944
     55          6           0       -5.929181    2.721506    0.332284
     56          8           0       -7.029286    2.800296    0.855027
     57          1           0       -3.002384    3.455890   -0.133486
     58          1           0       -5.447204    4.760165    0.860458
     59          1           0       -4.546722    3.451520    1.566985
     60          7           0       -5.633228    1.797529   -0.597274
     61          6           0       -6.506263    0.685064   -0.929136
     62          6           0       -6.568709   -0.408141    0.126328
     63          8           0       -7.365182   -1.342726    0.006827
     64          6           0       -6.125112    0.150979   -2.305936
     65          6           0       -4.949327   -0.816347   -2.242611
     66          7           0       -4.679049   -1.503886   -3.350601
     67          8           0       -4.120422   -0.930801   -1.336622
     68          1           0       -4.713373    1.822691   -0.984357
     69          1           0       -7.542576    1.000672   -1.024250
     70          1           0       -5.892779    0.949767   -3.003689
     71          1           0       -6.904600   -0.523135   -2.657744
     72          1           0       -5.416884   -1.581513   -4.040001
     73          1           0       -3.800058   -1.931383   -3.589598
     74          7           0       -5.942533   -0.201417    1.284201
     75          6           0       -5.952281   -0.996958    2.495612
     76          6           0       -4.943263   -2.134755    2.547594
     77          8           0       -4.910004   -2.860312    3.538432
     78          1           0       -5.219781    0.508038    1.304297
     79          1           0       -6.947483   -1.435213    2.590501
     80          1           0       -5.765629   -0.304496    3.317961
     81          7           0       -4.128939   -2.248687    1.491470
     82          6           0       -3.002096   -3.167609    1.511647
     83          6           0       -1.714560   -2.392198    1.273349
     84          8           0       -1.604308   -1.275741    0.787686
     85          6           0       -3.190144   -4.104544    0.328562
     86          6           0       -4.520380   -4.822210    0.397325
     87          6           0       -5.662568   -4.265272   -0.189978
     88          6           0       -4.643160   -6.040515    1.072645
     89          6           0       -6.886363   -4.955480   -0.141620
     90          6           0       -5.821680   -6.793924    1.017292
     91          6           0       -6.960555   -6.250228    0.395152
     92          8           0       -8.069269   -7.048764    0.432483
     93          1           0       -4.325497   -1.686159    0.679111
     94          1           0       -2.967951   -3.697417    2.456866
     95          1           0       -2.366681   -4.800366    0.169055
     96          1           0       -3.247968   -3.498136   -0.573395
     97          1           0       -5.679480   -3.305894   -0.668213
     98          1           0       -3.789401   -6.385005    1.632129
     99          1           0       -7.732824   -4.499619   -0.630796
    100          1           0       -5.927676   -7.759114    1.503269
    101          1           0       -7.872962   -7.945334    0.705847
    102          7           0       -0.605414   -3.104801    1.503333
    103          6           0        0.764810   -2.671006    1.339605
    104          6           0        1.586792   -3.777627    0.693126
    105          8           0        1.438710   -4.942351    1.058626
    106          6           0        1.390097   -2.398598    2.713544
    107          6           0        1.094499   -0.933842    2.995524
    108          6           0        2.911843   -2.452191    2.806904
    109          6           0        1.218086   -0.633015    4.486037
    110          1           0       -0.708609   -4.035464    1.878856
    111          1           0        0.748556   -1.720802    0.813250
    112          1           0        1.020175   -3.069401    3.493083
    113          1           0        0.122086   -0.608840    2.604388
    114          1           0        1.786368   -0.285814    2.453328
    115          1           0        3.302034   -3.358654    2.353280
    116          1           0        3.306157   -1.636969    2.187203
    117          1           0        3.246990   -2.321624    3.834002
    118          1           0        0.788939   -1.358130    5.162898
    119          1           0        2.255784   -0.424804    4.763940
    120          1           0        0.580056    0.224093    4.687988
    121          7           0        2.502729   -3.413492   -0.199210
    122          6           0        3.458677   -4.153355   -1.001063
    123          6           0        4.868809   -3.829745   -0.536407
    124          8           0        5.141651   -2.944005    0.275210
    125          6           0        3.214028   -3.787762   -2.466494
    126          8           0        3.479004   -2.421644   -2.710848
    127          1           0        2.400138   -2.433727   -0.420651
    128          1           0        3.283063   -5.213091   -0.838836
    129          1           0        2.162703   -4.021581   -2.644105
    130          1           0        3.876401   -4.400760   -3.080413
    131          1           0        2.869946   -1.864755   -2.222665
    132          7           0        5.819726   -4.552729   -1.121258
    133          6           0        7.241658   -4.398830   -0.906720
    134          6           0        7.786411   -2.994971   -1.150289
    135          8           0        8.561437   -2.382988   -0.425092
    136          6           0        7.982183   -5.348510   -1.850241
    137          1           0        5.555907   -5.348646   -1.696336
    138          1           0        7.413963   -4.709256    0.123254
    139          1           0        9.025795   -5.126369   -1.674665
    140          1           0        7.832617   -6.401165   -1.630818
    141          1           0        7.824144   -5.072188   -2.885987
    142          7           0        7.196584   -2.353550   -2.153475
    143          6           0        7.481059   -1.031060   -2.663567
    144          6           0        7.026579   -0.001672   -1.639893
    145          8           0        7.678392    0.989509   -1.346121
    146          6           0        6.723454   -0.840407   -3.982122
    147          1           0        6.453589   -2.828733   -2.654932
    148          1           0        8.550426   -0.957609   -2.862462
    149          1           0        5.674011   -0.648715   -3.758688
    150          1           0        7.081778    0.007461   -4.554506
    151          1           0        6.743837   -1.802472   -4.484233
    152          7           0        5.899078   -0.274126   -0.963276
    153          6           0        5.302467    0.558297    0.058599
    154          6           0        6.067656    0.391265    1.360285
    155          8           0        6.326303    1.330407    2.115807
    156          6           0        3.800311    0.290300    0.163977
    157          6           0        3.012086    0.900597   -0.989773
    158          6           0        1.650433    0.215228   -1.085539
    159          8           0        0.598832    0.739059   -0.646978
    160          8           0        1.587008   -0.970836   -1.458808
    161          1           0        5.472997   -1.181582   -1.020542
    162          1           0        5.321814    1.608173   -0.241045
    163          1           0        3.459510    0.637004    1.136474
    164          1           0        3.651121   -0.780270    0.091716
    165          1           0        3.545002    0.657455   -1.908731
    166          1           0        2.901121    1.974349   -0.834391
    167          7           0        6.563303   -0.821779    1.627415
    168          6           0        7.410213   -1.101186    2.772917
    169          1           0        7.196283   -0.383903    3.565524
    170          1           0        7.212868   -2.111011    3.133982
    171          1           0        8.457431   -1.017398    2.480724
    172          1           0        6.416823   -1.579861    0.980225
    173         20           0       -1.581887    0.172985   -1.566394
    174          8           0       -1.963117   -0.603830   -4.017092
    175          1           0       -1.781730   -1.040873   -4.849854
    176          1           0       -2.453454    0.174699   -4.267813
 ---------------------------------------------------------------------

 SCF Done:  E(RB3LYP) =  -5333.63117980     A.U. after   15 cycles

 The electronic state is 1-A.
 Alpha  occ. eigenvalues -- -145.40212 -19.16487 -19.14363 -19.14150 -19.14046
 Alpha  occ. eigenvalues --  -19.13411 -19.12334 -19.11733 -19.11405 -19.11045
 Alpha  occ. eigenvalues --  -19.10881 -19.10106 -19.08958 -19.08439 -19.07373
 Alpha  occ. eigenvalues --  -19.07359 -19.07216 -19.07069 -19.06361 -19.06252
 Alpha  occ. eigenvalues --  -19.05901 -19.05259 -19.04508 -19.04112 -15.45963
 Alpha  occ. eigenvalues --  -14.56384 -14.39997 -14.38972 -14.37176 -14.36333
 Alpha  occ. eigenvalues --  -14.36166 -14.35923 -14.34589 -14.34159 -14.32539
 Alpha  occ. eigenvalues --  -14.32437 -14.32330 -14.30735 -14.30309 -14.29418
 Alpha  occ. eigenvalues --  -12.59594 -12.59550 -12.59499 -10.32386 -10.32256
 Alpha  occ. eigenvalues --  -10.31675 -10.30705 -10.30335 -10.29915 -10.29682
 Alpha  occ. eigenvalues --  -10.28884 -10.27849 -10.27484 -10.26716 -10.26603
 Alpha  occ. eigenvalues --  -10.26272 -10.26109 -10.26047 -10.25786 -10.25587
 Alpha  occ. eigenvalues --  -10.24995 -10.24783 -10.24649 -10.24470 -10.23901
 Alpha  occ. eigenvalues --  -10.23665 -10.23285 -10.23199 -10.23180 -10.23115
 Alpha  occ. eigenvalues --  -10.22981 -10.22949 -10.22786 -10.22422 -10.21984
 Alpha  occ. eigenvalues --  -10.20971 -10.20460 -10.20434 -10.20304 -10.20133
 Alpha  occ. eigenvalues --  -10.20022 -10.19894 -10.19409 -10.19176 -10.19095
 Alpha  occ. eigenvalues --  -10.18826 -10.18335 -10.18046 -10.17997 -10.17425
 Alpha  occ. eigenvalues --  -10.17323 -10.17238 -10.17116 -10.17057 -10.16915
 Alpha  occ. eigenvalues --  -10.16567 -10.14857  -1.82810  -1.11831  -1.10502
 Alpha  occ. eigenvalues --   -1.10184  -1.10135  -1.07428  -1.06584  -1.06208
 Alpha  occ. eigenvalues --   -1.05059  -1.04956  -1.04768  -1.03319  -1.03058
 Alpha  occ. eigenvalues --   -1.02879  -1.02432  -1.02326  -1.02209  -1.01244
 Alpha  occ. eigenvalues --   -1.01029  -1.00108  -1.00023  -0.99438  -0.98723
 Alpha  occ. eigenvalues --   -0.97792  -0.97137  -0.97043  -0.95364  -0.95080
 Alpha  occ. eigenvalues --   -0.94294  -0.93362  -0.93029  -0.91856  -0.91814
 Alpha  occ. eigenvalues --   -0.91520  -0.91291  -0.91113  -0.90175  -0.89163
 Alpha  occ. eigenvalues --   -0.88441  -0.88430  -0.87100  -0.86825  -0.86047
 Alpha  occ. eigenvalues --   -0.83123  -0.82937  -0.82301  -0.80730  -0.80467
 Alpha  occ. eigenvalues --   -0.79467  -0.78913  -0.78039  -0.77739  -0.77086
 Alpha  occ. eigenvalues --   -0.76221  -0.75173  -0.74351  -0.73682  -0.73163
 Alpha  occ. eigenvalues --   -0.72181  -0.72139  -0.71987  -0.70716  -0.70587
 Alpha  occ. eigenvalues --   -0.69648  -0.69519  -0.68482  -0.68364  -0.67796
 Alpha  occ. eigenvalues --   -0.67322  -0.66404  -0.66169  -0.65717  -0.64695
 Alpha  occ. eigenvalues --   -0.64324  -0.63112  -0.63076  -0.62969  -0.62559
 Alpha  occ. eigenvalues --   -0.61358  -0.60954  -0.60383  -0.60223  -0.59845
 Alpha  occ. eigenvalues --   -0.59540  -0.59025  -0.58934  -0.58407  -0.57760
 Alpha  occ. eigenvalues --   -0.57606  -0.57394  -0.56619  -0.56509  -0.56398
 Alpha  occ. eigenvalues --   -0.56237  -0.56032  -0.55622  -0.55400  -0.55155
 Alpha  occ. eigenvalues --   -0.55084  -0.54536  -0.54434  -0.54293  -0.53774
 Alpha  occ. eigenvalues --   -0.53310  -0.53076  -0.53022  -0.52882  -0.52296
 Alpha  occ. eigenvalues --   -0.51899  -0.51490  -0.51177  -0.50534  -0.50127
 Alpha  occ. eigenvalues --   -0.49694  -0.49471  -0.49347  -0.49209  -0.49105
 Alpha  occ. eigenvalues --   -0.48959  -0.48906  -0.48702  -0.48619  -0.48503
 Alpha  occ. eigenvalues --   -0.48287  -0.48040  -0.47739  -0.47656  -0.47602
 Alpha  occ. eigenvalues --   -0.47120  -0.46768  -0.46410  -0.46188  -0.45873
 Alpha  occ. eigenvalues --   -0.45768  -0.45531  -0.45286  -0.45239  -0.45089
 Alpha  occ. eigenvalues --   -0.44898  -0.44757  -0.44679  -0.44587  -0.44307
 Alpha  occ. eigenvalues --   -0.44199  -0.44079  -0.44006  -0.43946  -0.43510
 Alpha  occ. eigenvalues --   -0.43422  -0.43292  -0.43174  -0.43033  -0.42920
 Alpha  occ. eigenvalues --   -0.42862  -0.42723  -0.42503  -0.42452  -0.42368
 Alpha  occ. eigenvalues --   -0.42264  -0.42161  -0.41961  -0.41731  -0.41639
 Alpha  occ. eigenvalues --   -0.41526  -0.41225  -0.41092  -0.40777  -0.40658
 Alpha  occ. eigenvalues --   -0.40458  -0.40400  -0.40288  -0.40256  -0.40140
 Alpha  occ. eigenvalues --   -0.39997  -0.39939  -0.39660  -0.39558  -0.39239
 Alpha  occ. eigenvalues --   -0.39202  -0.39043  -0.38886  -0.38807  -0.38430
 Alpha  occ. eigenvalues --   -0.38396  -0.38369  -0.38041  -0.37950  -0.37875
 Alpha  occ. eigenvalues --   -0.37762  -0.37523  -0.37436  -0.37356  -0.37289
 Alpha  occ. eigenvalues --   -0.37082  -0.36787  -0.36728  -0.36709  -0.36429
 Alpha  occ. eigenvalues --   -0.36058  -0.35989  -0.35801  -0.35604  -0.35448
 Alpha  occ. eigenvalues --   -0.35379  -0.35322  -0.34952  -0.34504  -0.34457
 Alpha  occ. eigenvalues --   -0.34356  -0.34177  -0.33597  -0.33434  -0.33406
 Alpha  occ. eigenvalues --   -0.33305  -0.32638  -0.32478  -0.31642  -0.31518
 Alpha  occ. eigenvalues --   -0.31487  -0.31344  -0.31080  -0.30905  -0.30705
 Alpha  occ. eigenvalues --   -0.30266  -0.29603  -0.29371  -0.29247  -0.29175
 Alpha  occ. eigenvalues --   -0.29029  -0.28769  -0.27844  -0.27798  -0.27432
 Alpha  occ. eigenvalues --   -0.27067  -0.27012  -0.26860  -0.26791  -0.26161
 Alpha  occ. eigenvalues --   -0.25418  -0.25379  -0.24938  -0.24820  -0.24596
 Alpha  occ. eigenvalues --   -0.24328  -0.24293  -0.24111  -0.24048  -0.23513
 Alpha  occ. eigenvalues --   -0.23407  -0.23099  -0.22893  -0.22757  -0.22674
 Alpha  occ. eigenvalues --   -0.22432  -0.22215  -0.21567  -0.20691  -0.20488
 Alpha  occ. eigenvalues --   -0.20202  -0.19910  -0.18827
 Alpha virt. eigenvalues --   -0.08872  -0.03320  -0.02694  -0.02663  -0.02255
 Alpha virt. eigenvalues --   -0.01524  -0.00723  -0.00306   0.00032   0.00277
 Alpha virt. eigenvalues --    0.00534   0.00632   0.00891   0.01459   0.01845

 Mulliken charges:
               1
     1  C    0.054538
     2  C    0.022784
     3  O   -0.308484
     4  H   -0.000764
     5  H    0.020260
     6  H    0.062864
     7  N   -0.074931
     8  C    0.135228
     9  C    0.030019
    10  O   -0.290830
    11  C    0.024495
    12  C    0.201807
    13  O   -0.357619
    14  O   -0.497608
    15  H    0.131232
    16  H   -0.007225
    17  H    0.025813
    18  H    0.015654
    19  N   -0.131571
    20  C    0.116920
    21  C    0.046643
    22  O   -0.294676
    23  C    0.056620
    24  C   -0.017360
    25  C   -0.050806
    26  C   -0.016517
    27  N    0.095363
    28  H    0.129614
    29  H    0.011608
    30  H    0.010258
    31  H    0.007581
    32  H    0.010529
    33  H    0.049741
    34  H    0.035410
    35  H    0.030098
    36  H    0.071132
    37  H    0.094483
    38  H    0.193633
    39  H    0.186899
    40  H    0.184775
    41  N   -0.131759
    42  C    0.129921
    43  C    0.047705
    44  O   -0.283847
    45  C    0.088760
    46  C    0.118673
    47  O   -0.481333
    48  O   -0.378317
    49  H    0.153078
    50  H    0.021821
    51  H    0.004983
    52  H    0.031701
    53  N   -0.157267
    54  C    0.233470
    55  C    0.007706
    56  O   -0.284866
    57  H    0.151562
    58  H    0.014144
    59  H    0.016691
    60  N   -0.158416
    61  C    0.177962
    62  C    0.021034
    63  O   -0.300728
    64  C    0.069966
    65  C    0.058130
    66  N   -0.027318
    67  O   -0.368570
    68  H    0.140589
    69  H    0.029082
    70  H    0.076957
    71  H    0.022157
    72  H    0.120105
    73  H    0.103768
    74  N   -0.169229
    75  C    0.230048
    76  C    0.038764
    77  O   -0.295747
    78  H    0.155024
    79  H    0.035785
    80  H    0.035752
    81  N   -0.154379
    82  C    0.115299
    83  C    0.130813
    84  O   -0.328832
    85  C    0.126726
    86  C   -0.003792
    87  C   -0.003036
    88  C    0.013230
    89  C   -0.034996
    90  C   -0.039892
    91  C    0.189461
    92  O   -0.201570
    93  H    0.154652
    94  H    0.019744
    95  H   -0.006708
    96  H   -0.027107
    97  H   -0.044557
    98  H   -0.046861
    99  H   -0.023472
   100  H   -0.050561
   101  H    0.170398
   102  N   -0.113726
   103  C    0.170285
   104  C    0.019510
   105  O   -0.294283
   106  C   -0.125260
   107  C   -0.054601
   108  C    0.111057
   109  C    0.047727
   110  H    0.122052
   111  H    0.018670
   112  H   -0.005904
   113  H    0.032631
   114  H    0.008759
   115  H    0.016623
   116  H   -0.017656
   117  H    0.005754
   118  H    0.006271
   119  H    0.014443
   120  H   -0.034399
   121  N   -0.132485
   122  C    0.053572
   123  C    0.120771
   124  O   -0.280345
   125  C    0.276336
   126  O   -0.343763
   127  H    0.139701
   128  H    0.022878
   129  H    0.017012
   130  H   -0.016240
   131  H    0.164546
   132  N   -0.123699
   133  C    0.078184
   134  C    0.049935
   135  O   -0.245496
   136  C    0.038030
   137  H    0.127312
   138  H    0.022175
   139  H    0.032742
   140  H    0.036441
   141  H    0.013096
   142  N   -0.150042
   143  C    0.076713
   144  C    0.085106
   145  O   -0.251056
   146  C    0.059625
   147  H    0.115859
   148  H    0.016491
   149  H    0.019115
   150  H    0.038447
   151  H    0.005040
   152  N   -0.178092
   153  C    0.148679
   154  C    0.075491
   155  O   -0.304808
   156  C   -0.056872
   157  C    0.113065
   158  C    0.157713
   159  O   -0.450750
   160  O   -0.404577
   161  H    0.117364
   162  H   -0.019522
   163  H    0.044584
   164  H    0.000719
   165  H    0.011856
   166  H   -0.016362
   167  N   -0.168601
   168  C    0.138573
   169  H    0.019779
   170  H    0.006073
   171  H    0.030173
   172  H    0.130975
   173  Ca   1.346395
   174  O   -0.332661
   175  H    0.189055
   176  H    0.147684
 Sum of Mulliken charges =  -0.00000

 Dipole moment (field-independent basis, Debye):
    X=             26.0876    Y=              1.6862    Z=              2.8507  Tot=             26.2970
 Quadrupole moment (field-independent basis, Debye-Ang):
   XX=           -676.1321   YY=           -434.7643   ZZ=           -511.9489
   XY=             90.1479   XZ=             35.7269   YZ=            126.9933

 ESP charges:
               1
     1  C   -0.384074
     2  C    0.754186
     3  O   -0.579955
     4  H    0.080606
     5  H    0.096466
     6  H    0.130864
     7  N   -0.731576
     8  C    0.282263
     9  C    0.620225
    10  O   -0.609603
    11  C   -0.280895
    12  C    0.838797
    13  O   -0.696329
    14  O   -0.970241
    15  H    0.363577
    16  H   -0.064809
    17  H    0.111394
    18  H    0.049762
    19  N   -0.092574
    20  C   -0.203265
    21  C    0.709203
    22  O   -0.587930
    23  C   -0.135518
    24  C    0.017789
    25  C   -0.004544
    26  C    0.127298
    27  N   -0.537283
    28  H    0.178298
    29  H    0.085887
    30  H    0.075992
    31  H    0.045034
    32  H    0.037284
    33  H    0.002028
    34  H    0.008189
    35  H    0.048549
    36  H    0.058859
    37  H    0.042529
    38  H    0.377187
    39  H    0.358818
    40  H    0.361002
    41  N   -0.545012
    42  C    0.006703
    43  C    0.518555
    44  O   -0.543577
    45  C   -0.242737
    46  C    0.735815
    47  O   -0.632384
    48  O   -0.688313
    49  H    0.265872
    50  H    0.129134
    51  H    0.080805
    52  H    0.086671
    53  N   -0.339663
    54  C   -0.166373
    55  C    0.600234
    56  O   -0.595713
    57  H    0.307962
    58  H    0.115121
    59  H    0.102993
    60  N   -0.349264
    61  C    0.086141
    62  C    0.301867
    63  O   -0.508473
    64  C   -0.379816
    65  C    0.744573
    66  N   -0.839227
    67  O   -0.662837
    68  H    0.217640
    69  H    0.126409
    70  H    0.168721
    71  H    0.112842
    72  H    0.363912
    73  H    0.397307
    74  N   -0.007098
    75  C   -0.552237
    76  C    0.747764
    77  O   -0.589392
    78  H    0.229765
    79  H    0.206165
    80  H    0.177782
    81  N   -0.492616
    82  C    0.425142
    83  C    0.180522
    84  O   -0.482614
    85  C   -0.025362
    86  C   -0.033324
    87  C   -0.268161
    88  C   -0.056371
    89  C   -0.157819
    90  C   -0.359770
    91  C    0.391732
    92  O   -0.555749
    93  H    0.327278
    94  H   -0.013681
    95  H    0.001773
    96  H    0.030734
    97  H    0.196787
    98  H    0.098542
    99  H    0.127384
   100  H    0.152551
   101  H    0.399742
   102  N   -0.383079
   103  C   -0.070225
   104  C    0.445814
   105  O   -0.545435
   106  C    0.169251
   107  C   -0.067908
   108  C   -0.275108
   109  C   -0.383588
   110  H    0.273679
   111  H    0.188038
   112  H    0.022708
   113  H    0.141560
   114  H    0.177592
   115  H    0.066742
   116  H    0.029125
   117  H    0.093405
   118  H    0.105865
   119  H    0.089806
   120  H    0.072201
   121  N    0.011944
   122  C   -0.209277
   123  C    0.576252
   124  O   -0.424855
   125  C    0.178653
   126  O   -0.587390
   127  H    0.064956
   128  H    0.090257
   129  H    0.038657
   130  H    0.022947
   131  H    0.425734
   132  N   -0.424088
   133  C    0.048156
   134  C    0.506602
   135  O   -0.533848
   136  C   -0.294019
   137  H    0.291064
   138  H    0.088920
   139  H    0.108563
   140  H    0.109833
   141  H    0.064040
   142  N   -0.350521
   143  C    0.099603
   144  C    0.388013
   145  O   -0.518142
   146  C   -0.330562
   147  H    0.284559
   148  H    0.084680
   149  H    0.083365
   150  H    0.126087
   151  H    0.074159
   152  N   -0.000810
   153  C   -0.283548
   154  C    0.566885
   155  O   -0.583504
   156  C    0.575889
   157  C   -0.110605
   158  C    0.677459
   159  O   -0.728730
   160  O   -0.655994
   161  H    0.149512
   162  H    0.067695
   163  H   -0.034685
   164  H   -0.682522
   165  H    0.028674
   166  H    0.006175
   167  N   -0.077538
   168  C   -0.274050
   169  H    0.105286
   170  H    0.085955
   171  H    0.112424
   172  H    0.159306
   173  Ca   1.638436
   174  O   -0.898277
   175  H    0.455642
   176  H    0.397288
 Sum of ESP charges =   0.00000

 Normal termination of Gaussian 16 at Wed Sep 18 19:04:33 2019.
