 Gaussian 16, Revision A.03,
 Gaussian 16:  ES64L-G16RevA.03 25-Dec-2016

 ----------------------------------------------------------------------
 #b3lyp/svp scf=(tight,noincore) Test #IOP(5/87=12) Density=Current Pop
 =(MK,readradii) iop(6/33=2) iop(6/42=6)
 ----------------------------------------------------------------------

 ------------------
 holoCaM_loop3_78.0
 ------------------
 Symbolic Z-matrix:
 Charge =  0 Multiplicity = 1

                         Standard orientation:
 ---------------------------------------------------------------------
 Center     Atomic      Atomic             Coordinates (Angstroms)
 Number     Number       Type             X           Y           Z
 ---------------------------------------------------------------------
      1          6           0        3.675362    3.000095    5.720578
      2          6           0        2.979911    2.448322    4.488914
      3          8           0        3.694955    1.740570    3.775683
      4          1           0        3.876221    4.061563    5.578333
      5          1           0        3.033978    2.865108    6.591346
      6          1           0        4.615247    2.470739    5.875482
      7          7           0        1.740886    2.834133    4.189970
      8          6           0        1.066849    2.680544    2.906426
      9          6           0        1.295333    3.978348    2.130734
     10          8           0        1.654594    4.993351    2.725377
     11          6           0       -0.389071    2.256796    3.062421
     12          6           0       -1.155743    1.761562    1.836307
     13          8           0       -1.333937    2.542630    0.889744
     14          8           0       -1.592506    0.600054    1.721694
     15          1           0        1.293102    3.299565    4.963638
     16          1           0        1.555482    1.883607    2.340450
     17          1           0       -0.916245    3.098369    3.507890
     18          1           0       -0.424709    1.448602    3.793485
     19          7           0        1.089794    3.998746    0.816565
     20          6           0        1.133986    5.155998   -0.063442
     21          6           0       -0.013112    5.422151   -1.026940
     22          8           0        0.102900    6.450543   -1.690530
     23          6           0        2.494401    5.218013   -0.751066
     24          6           0        3.149273    6.569156   -1.012708
     25          6           0        4.494840    6.530306   -1.746220
     26          6           0        5.221661    7.864533   -1.813087
     27          7           0        6.669812    7.641966   -1.772826
     28          1           0        0.751475    3.126156    0.427299
     29          1           0        1.033164    6.019713    0.600735
     30          1           0        2.323982    4.718756   -1.707987
     31          1           0        3.225938    4.596690   -0.240958
     32          1           0        3.331134    7.069487   -0.064027
     33          1           0        2.473759    7.114870   -1.673296
     34          1           0        4.436177    6.142426   -2.764015
     35          1           0        5.163546    5.838613   -1.235443
     36          1           0        4.852958    8.560454   -1.057341
     37          1           0        5.018801    8.409177   -2.739753
     38          1           0        7.200848    8.481747   -1.981794
     39          1           0        7.021577    7.319224   -0.889594
     40          1           0        6.891976    6.950905   -2.476586
     41          7           0       -1.136518    4.716336   -0.955636
     42          6           0       -2.353068    5.005285   -1.709237
     43          6           0       -3.584094    4.845189   -0.830462
     44          8           0       -4.563860    5.505026   -1.170572
     45          6           0       -2.352727    4.220953   -3.012242
     46          6           0       -2.613420    2.726743   -2.901447
     47          8           0       -2.789563    2.248233   -1.764344
     48          8           0       -2.700385    1.981971   -3.907951
     49          1           0       -1.187939    3.896585   -0.381472
     50          1           0       -2.413672    6.072260   -1.897097
     51          1           0       -1.391401    4.358257   -3.516127
     52          1           0       -3.133254    4.513257   -3.718172
     53          7           0       -3.580671    4.160914    0.310745
     54          6           0       -4.662773    4.265121    1.272981
     55          6           0       -5.794549    3.318140    0.900812
     56          8           0       -6.833739    3.234536    1.534131
     57          1           0       -2.735995    3.667822    0.569943
     58          1           0       -4.936678    5.301508    1.452362
     59          1           0       -4.175179    4.083277    2.229686
     60          7           0       -5.525613    2.419602   -0.044124
     61          6           0       -6.383832    1.422142   -0.661890
     62          6           0       -6.735592    0.252762    0.250587
     63          8           0       -7.667308   -0.477302   -0.070368
     64          6           0       -5.825184    0.885324   -1.970454
     65          6           0       -4.592434   -0.006799   -1.855381
     66          7           0       -4.111655   -0.597125   -2.951405
     67          8           0       -4.050178   -0.185104   -0.773778
     68          1           0       -4.560179    2.546713   -0.337344
     69          1           0       -7.325645    1.937648   -0.810354
     70          1           0       -5.472730    1.730304   -2.560187
     71          1           0       -6.580349    0.292744   -2.489468
     72          1           0       -4.574487   -0.430937   -3.827229
     73          1           0       -3.167975   -0.958418   -2.998683
     74          7           0       -6.044691    0.018867    1.373596
     75          6           0       -6.179837   -1.100882    2.289946
     76          6           0       -5.445210   -2.383978    1.941538
     77          8           0       -5.869747   -3.431194    2.441245
     78          1           0       -5.457793    0.771149    1.691907
     79          1           0       -7.262782   -1.290698    2.290490
     80          1           0       -5.986438   -0.851557    3.331163
     81          7           0       -4.382795   -2.261610    1.139228
     82          6           0       -3.542360   -3.374136    0.717262
     83          6           0       -2.071724   -3.015071    0.670351
     84          8           0       -1.701537   -2.137988   -0.108999
     85          6           0       -4.038382   -3.947089   -0.604286
     86          6           0       -5.532016   -4.045018   -0.810118
     87          6           0       -6.233178   -3.095125   -1.575019
     88          6           0       -6.291413   -4.994530   -0.107379
     89          6           0       -7.626711   -3.061026   -1.661066
     90          6           0       -7.686679   -4.895492   -0.102432
     91          6           0       -8.383541   -4.019914   -0.955982
     92          8           0       -9.746005   -3.981647   -0.974078
     93          1           0       -4.173918   -1.310933    0.873553
     94          1           0       -3.588398   -4.203166    1.419038
     95          1           0       -3.654353   -4.952030   -0.735875
     96          1           0       -3.632140   -3.292538   -1.374695
     97          1           0       -5.603960   -2.297521   -1.932249
     98          1           0       -5.793763   -5.709837    0.538980
     99          1           0       -8.201641   -2.299531   -2.166022
    100          1           0       -8.324376   -5.539728    0.493558
    101          1           0      -10.137563   -4.678473   -0.431479
    102          7           0       -1.242515   -3.555063    1.569362
    103          6           0        0.191431   -3.372378    1.497069
    104          6           0        0.837404   -4.292787    0.478215
    105          8           0        0.541582   -5.481758    0.397975
    106          6           0        0.847103   -3.542593    2.870685
    107          6           0        0.783480   -2.215534    3.598329
    108          6           0        2.277812   -4.059861    2.860476
    109          6           0        0.948172   -2.237254    5.122568
    110          1           0       -1.633365   -4.254667    2.185390
    111          1           0        0.470135   -2.376682    1.164331
    112          1           0        0.277350   -4.284820    3.426905
    113          1           0       -0.229102   -1.816549    3.530577
    114          1           0        1.434748   -1.471346    3.131279
    115          1           0        2.805639   -3.330390    2.256513
    116          1           0        2.776418   -3.971566    3.819120
    117          1           0        2.251714   -5.076433    2.449135
    118          1           0        0.278696   -2.936486    5.618730
    119          1           0        1.938367   -2.565835    5.411096
    120          1           0        0.880621   -1.232143    5.547997
    121          7           0        1.638661   -3.672135   -0.391255
    122          6           0        2.399929   -4.162224   -1.521602
    123          6           0        3.899052   -4.111237   -1.253590
    124          8           0        4.349503   -3.445889   -0.323050
    125          6           0        2.015842   -3.362130   -2.763707
    126          8           0        2.436865   -2.020171   -2.635310
    127          1           0        1.675706   -2.673437   -0.234002
    128          1           0        2.222277   -5.204051   -1.782631
    129          1           0        0.954950   -3.551758   -2.914536
    130          1           0        2.511384   -3.717923   -3.663068
    131          1           0        1.903475   -1.557710   -1.993029
    132          7           0        4.678425   -4.941445   -1.929854
    133          6           0        6.104524   -5.164199   -1.738221
    134          6           0        6.882853   -3.863148   -1.652949
    135          8           0        7.587927   -3.629378   -0.679901
    136          6           0        6.727259   -6.058565   -2.798084
    137          1           0        4.215167   -5.635926   -2.493670
    138          1           0        6.293018   -5.725954   -0.821596
    139          1           0        6.457995   -7.093724   -2.590859
    140          1           0        6.350708   -5.869775   -3.805987
    141          1           0        7.809844   -6.001371   -2.731461
    142          7           0        6.618991   -2.855381   -2.494783
    143          6           0        7.302147   -1.576179   -2.435294
    144          6           0        6.980107   -0.693201   -1.238490
    145          8           0        7.858120    0.093624   -0.887634
    146          6           0        6.951906   -0.856618   -3.737970
    147          1           0        6.014827   -3.104773   -3.256944
    148          1           0        8.368334   -1.833449   -2.456669
    149          1           0        5.863600   -0.887547   -3.821249
    150          1           0        7.223650    0.195624   -3.708971
    151          1           0        7.393712   -1.519674   -4.485007
    152          7           0        5.846910   -0.867283   -0.565468
    153          6           0        5.489343   -0.282919    0.712994
    154          6           0        6.029200   -1.052010    1.908466
    155          8           0        6.476495   -0.423375    2.866247
    156          6           0        3.967375   -0.197648    0.673700
    157          6           0        3.349737    0.491476   -0.543111
    158          6           0        1.843859    0.314502   -0.497146
    159          8           0        1.139911    1.212330    0.025695
    160          8           0        1.247103   -0.658137   -1.003461
    161          1           0        5.157617   -1.529532   -0.880748
    162          1           0        5.974649    0.690973    0.749226
    163          1           0        3.656815    0.307125    1.582357
    164          1           0        3.520257   -1.187985    0.700485
    165          1           0        3.653181    0.114526   -1.529940
    166          1           0        3.616805    1.550221   -0.568296
    167          7           0        6.147891   -2.383729    1.827000
    168          6           0        6.695893   -3.235597    2.853116
    169          1           0        7.304019   -4.014024    2.392368
    170          1           0        7.315388   -2.642774    3.525977
    171          1           0        5.884102   -3.695561    3.417034
    172          1           0        5.741500   -2.883840    1.039832
    173         20           0       -1.200696    0.461361   -0.883042
    174          8           0       -1.414830   -1.320293   -2.868578
    175          1           0       -1.288258   -2.268981   -2.877075
    176          1           0       -1.073451   -1.033464   -3.716274
 ---------------------------------------------------------------------

 SCF Done:  E(RB3LYP) =  -5333.58073366     A.U. after   16 cycles

 The electronic state is 1-A.
 Alpha  occ. eigenvalues -- -145.38307 -19.20823 -19.13143 -19.12958 -19.11570
 Alpha  occ. eigenvalues --  -19.11458 -19.11315 -19.10141 -19.09738 -19.09330
 Alpha  occ. eigenvalues --  -19.08680 -19.08151 -19.07558 -19.07267 -19.07029
 Alpha  occ. eigenvalues --  -19.06424 -19.06421 -19.05839 -19.05549 -19.05522
 Alpha  occ. eigenvalues --  -19.05206 -19.05076 -19.04935 -19.03325 -15.44002
 Alpha  occ. eigenvalues --  -14.59612 -14.39424 -14.36922 -14.36444 -14.35935
 Alpha  occ. eigenvalues --  -14.33501 -14.33278 -14.33134 -14.32657 -14.32580
 Alpha  occ. eigenvalues --  -14.32289 -14.31498 -14.31189 -14.31106 -14.30672
 Alpha  occ. eigenvalues --  -12.57635 -12.57589 -12.57558 -10.35455 -10.31431
 Alpha  occ. eigenvalues --  -10.29493 -10.29433 -10.29049 -10.28104 -10.27583
 Alpha  occ. eigenvalues --  -10.27503 -10.27165 -10.26667 -10.26380 -10.26161
 Alpha  occ. eigenvalues --  -10.25932 -10.25756 -10.25503 -10.25451 -10.24844
 Alpha  occ. eigenvalues --  -10.24513 -10.24379 -10.24289 -10.24176 -10.23825
 Alpha  occ. eigenvalues --  -10.23572 -10.23020 -10.22753 -10.22696 -10.22182
 Alpha  occ. eigenvalues --  -10.22150 -10.21969 -10.21345 -10.20905 -10.20763
 Alpha  occ. eigenvalues --  -10.20387 -10.20378 -10.20255 -10.20053 -10.19384
 Alpha  occ. eigenvalues --  -10.18810 -10.18669 -10.18649 -10.18042 -10.17793
 Alpha  occ. eigenvalues --  -10.17759 -10.17139 -10.17000 -10.16682 -10.16676
 Alpha  occ. eigenvalues --  -10.16261 -10.16014 -10.15710 -10.15621 -10.15320
 Alpha  occ. eigenvalues --  -10.15179 -10.14992  -1.80813  -1.14917  -1.08591
 Alpha  occ. eigenvalues --   -1.08562  -1.08219  -1.06750  -1.06541  -1.06051
 Alpha  occ. eigenvalues --   -1.04212  -1.03833  -1.02675  -1.02331  -1.01933
 Alpha  occ. eigenvalues --   -1.01506  -1.01499  -1.00810  -1.00648  -1.00635
 Alpha  occ. eigenvalues --   -0.99755  -0.99412  -0.99097  -0.98939  -0.98391
 Alpha  occ. eigenvalues --   -0.98053  -0.98043  -0.95980  -0.95063  -0.93208
 Alpha  occ. eigenvalues --   -0.93054  -0.92657  -0.91732  -0.90695  -0.90653
 Alpha  occ. eigenvalues --   -0.90094  -0.89668  -0.89551  -0.89167  -0.88973
 Alpha  occ. eigenvalues --   -0.88615  -0.88289  -0.87803  -0.87177  -0.86765
 Alpha  occ. eigenvalues --   -0.82300  -0.81478  -0.81356  -0.81222  -0.78781
 Alpha  occ. eigenvalues --   -0.77984  -0.77594  -0.77331  -0.76855  -0.76201
 Alpha  occ. eigenvalues --   -0.75837  -0.74998  -0.74000  -0.73298  -0.72845
 Alpha  occ. eigenvalues --   -0.71957  -0.71302  -0.70622  -0.70443  -0.70262
 Alpha  occ. eigenvalues --   -0.69958  -0.69053  -0.68760  -0.68516  -0.67143
 Alpha  occ. eigenvalues --   -0.66686  -0.65518  -0.65468  -0.64942  -0.64249
 Alpha  occ. eigenvalues --   -0.63863  -0.63483  -0.63330  -0.62051  -0.61450
 Alpha  occ. eigenvalues --   -0.60961  -0.60372  -0.59612  -0.59575  -0.59050
 Alpha  occ. eigenvalues --   -0.58704  -0.58401  -0.58381  -0.57659  -0.57211
 Alpha  occ. eigenvalues --   -0.56896  -0.56667  -0.56213  -0.55990  -0.55940
 Alpha  occ. eigenvalues --   -0.55792  -0.55412  -0.54912  -0.54862  -0.54693
 Alpha  occ. eigenvalues --   -0.54565  -0.54476  -0.54212  -0.53757  -0.52893
 Alpha  occ. eigenvalues --   -0.52681  -0.52092  -0.51760  -0.51583  -0.51102
 Alpha  occ. eigenvalues --   -0.50932  -0.50246  -0.50204  -0.49961  -0.49770
 Alpha  occ. eigenvalues --   -0.49603  -0.49411  -0.49154  -0.48819  -0.48513
 Alpha  occ. eigenvalues --   -0.48290  -0.48105  -0.47900  -0.47416  -0.47402
 Alpha  occ. eigenvalues --   -0.46822  -0.46712  -0.46498  -0.46403  -0.46259
 Alpha  occ. eigenvalues --   -0.46118  -0.45840  -0.45449  -0.45236  -0.45098
 Alpha  occ. eigenvalues --   -0.44960  -0.44841  -0.44624  -0.44467  -0.44412
 Alpha  occ. eigenvalues --   -0.44122  -0.43950  -0.43824  -0.43772  -0.43648
 Alpha  occ. eigenvalues --   -0.43303  -0.43263  -0.43044  -0.42777  -0.42697
 Alpha  occ. eigenvalues --   -0.42454  -0.42385  -0.42321  -0.42087  -0.41955
 Alpha  occ. eigenvalues --   -0.41885  -0.41690  -0.41600  -0.41521  -0.41407
 Alpha  occ. eigenvalues --   -0.41314  -0.41165  -0.40994  -0.40696  -0.40584
 Alpha  occ. eigenvalues --   -0.40497  -0.40309  -0.39999  -0.39925  -0.39877
 Alpha  occ. eigenvalues --   -0.39579  -0.39555  -0.39460  -0.39389  -0.39199
 Alpha  occ. eigenvalues --   -0.39020  -0.38820  -0.38483  -0.38382  -0.38346
 Alpha  occ. eigenvalues --   -0.38252  -0.38065  -0.38028  -0.37948  -0.37651
 Alpha  occ. eigenvalues --   -0.37513  -0.37476  -0.37353  -0.37320  -0.36876
 Alpha  occ. eigenvalues --   -0.36858  -0.36688  -0.36603  -0.36418  -0.36259
 Alpha  occ. eigenvalues --   -0.35999  -0.35894  -0.35729  -0.35455  -0.35383
 Alpha  occ. eigenvalues --   -0.35099  -0.34975  -0.34906  -0.34490  -0.34420
 Alpha  occ. eigenvalues --   -0.34319  -0.34259  -0.34062  -0.33824  -0.33663
 Alpha  occ. eigenvalues --   -0.33315  -0.33261  -0.33108  -0.32997  -0.32798
 Alpha  occ. eigenvalues --   -0.32787  -0.32725  -0.32267  -0.31964  -0.31511
 Alpha  occ. eigenvalues --   -0.30535  -0.30184  -0.30163  -0.29588  -0.29208
 Alpha  occ. eigenvalues --   -0.29058  -0.28486  -0.28365  -0.28029  -0.27766
 Alpha  occ. eigenvalues --   -0.27155  -0.26306  -0.26298  -0.26101  -0.25960
 Alpha  occ. eigenvalues --   -0.25819  -0.25598  -0.25352  -0.25211  -0.24988
 Alpha  occ. eigenvalues --   -0.24890  -0.24575  -0.24355  -0.24008  -0.23683
 Alpha  occ. eigenvalues --   -0.23441  -0.23417  -0.23258  -0.23048  -0.22980
 Alpha  occ. eigenvalues --   -0.22548  -0.22229  -0.21900  -0.21654  -0.21474
 Alpha  occ. eigenvalues --   -0.21214  -0.21154  -0.20644  -0.20529  -0.20365
 Alpha  occ. eigenvalues --   -0.20014  -0.19051  -0.18698
 Alpha virt. eigenvalues --   -0.11208  -0.05313  -0.04823  -0.02557  -0.01428
 Alpha virt. eigenvalues --   -0.01251  -0.00299  -0.00105   0.00842   0.00890
 Alpha virt. eigenvalues --    0.01269   0.01601   0.01976   0.02163   0.02517

 Mulliken charges:
               1
     1  C    0.044309
     2  C    0.000446
     3  O   -0.277444
     4  H    0.032730
     5  H    0.002365
     6  H    0.038850
     7  N   -0.100705
     8  C    0.081494
     9  C    0.050630
    10  O   -0.307241
    11  C    0.145216
    12  C    0.107821
    13  O   -0.441153
    14  O   -0.383490
    15  H    0.108558
    16  H    0.039700
    17  H   -0.010986
    18  H    0.007851
    19  N   -0.124124
    20  C    0.121385
    21  C    0.055701
    22  O   -0.309674
    23  C    0.059501
    24  C    0.036050
    25  C   -0.065415
    26  C    0.049524
    27  N    0.070381
    28  H    0.139538
    29  H    0.024636
    30  H   -0.011881
    31  H    0.007406
    32  H    0.010604
    33  H    0.038680
    34  H    0.032928
    35  H    0.004174
    36  H    0.077709
    37  H    0.069690
    38  H    0.187685
    39  H    0.195033
    40  H    0.196635
    41  N   -0.140671
    42  C    0.164421
    43  C    0.044170
    44  O   -0.288478
    45  C    0.099793
    46  C    0.040381
    47  O   -0.471735
    48  O   -0.381863
    49  H    0.133442
    50  H    0.014822
    51  H    0.006457
    52  H    0.023487
    53  N   -0.188203
    54  C    0.218268
    55  C    0.022845
    56  O   -0.287663
    57  H    0.140445
    58  H    0.021712
    59  H    0.010151
    60  N   -0.172595
    61  C    0.198877
    62  C    0.041639
    63  O   -0.275310
    64  C    0.079001
    65  C    0.057564
    66  N   -0.024382
    67  O   -0.331139
    68  H    0.154035
    69  H    0.018355
    70  H    0.053741
    71  H    0.031768
    72  H    0.112288
    73  H    0.080125
    74  N   -0.132194
    75  C    0.188459
    76  C    0.061725
    77  O   -0.302811
    78  H    0.126720
    79  H    0.033538
    80  H    0.028211
    81  N   -0.132118
    82  C    0.173939
    83  C    0.124853
    84  O   -0.358137
    85  C    0.167230
    86  C   -0.078176
    87  C    0.025406
    88  C    0.033701
    89  C    0.037335
    90  C   -0.036584
    91  C    0.129119
    92  O   -0.199087
    93  H    0.154625
    94  H   -0.026860
    95  H   -0.011383
    96  H   -0.037197
    97  H   -0.077522
    98  H   -0.040001
    99  H   -0.031142
   100  H   -0.059151
   101  H    0.173310
   102  N   -0.088896
   103  C    0.188829
   104  C   -0.010458
   105  O   -0.279163
   106  C   -0.156618
   107  C   -0.002127
   108  C    0.134457
   109  C    0.036431
   110  H    0.136696
   111  H    0.001027
   112  H   -0.024078
   113  H    0.011213
   114  H    0.014218
   115  H   -0.009204
   116  H    0.010315
   117  H    0.024761
   118  H    0.001796
   119  H   -0.007014
   120  H    0.011258
   121  N   -0.117373
   122  C    0.080075
   123  C    0.103679
   124  O   -0.283694
   125  C    0.276798
   126  O   -0.354521
   127  H    0.134358
   128  H    0.001987
   129  H   -0.024204
   130  H   -0.027623
   131  H    0.165727
   132  N   -0.099050
   133  C    0.112658
   134  C    0.029721
   135  O   -0.252673
   136  C    0.021819
   137  H    0.116316
   138  H    0.021020
   139  H    0.023375
   140  H    0.011052
   141  H    0.044379
   142  N   -0.139248
   143  C    0.096416
   144  C    0.074352
   145  O   -0.294209
   146  C    0.029816
   147  H    0.100916
   148  H    0.025397
   149  H    0.011297
   150  H    0.026260
   151  H    0.016267
   152  N   -0.139358
   153  C    0.165403
   154  C    0.079092
   155  O   -0.272700
   156  C   -0.069951
   157  C    0.123789
   158  C    0.137519
   159  O   -0.408466
   160  O   -0.440140
   161  H    0.132781
   162  H   -0.002542
   163  H    0.053060
   164  H    0.009538
   165  H   -0.002219
   166  H   -0.015625
   167  N   -0.168478
   168  C    0.129764
   169  H    0.015230
   170  H    0.031577
   171  H    0.005866
   172  H    0.132421
   173  Ca   1.282538
   174  O   -0.248967
   175  H    0.204041
   176  H    0.194617
 Sum of Mulliken charges =  -0.00000

 Dipole moment (field-independent basis, Debye):
    X=             31.8099    Y=             12.3100    Z=            -14.7321  Tot=             37.1543
 Quadrupole moment (field-independent basis, Debye-Ang):
   XX=           -588.1621   YY=           -367.6099   ZZ=           -527.7974
   XY=            196.7175   XZ=            -99.3108   YZ=            -14.2347

 ESP charges:
               1
     1  C   -0.448009
     2  C    0.840477
     3  O   -0.614130
     4  H    0.116035
     5  H    0.080730
     6  H    0.139453
     7  N   -0.824793
     8  C    0.476552
     9  C    0.559323
    10  O   -0.562808
    11  C   -0.436492
    12  C    0.859164
    13  O   -0.671301
    14  O   -0.750388
    15  H    0.360507
    16  H    0.004863
    17  H    0.096909
    18  H    0.111370
    19  N   -0.653563
    20  C    0.297422
    21  C    0.610590
    22  O   -0.577741
    23  C   -0.013459
    24  C   -0.167882
    25  C    0.121936
    26  C    0.145232
    27  N   -0.416567
    28  H    0.331789
    29  H    0.015222
    30  H   -0.009156
    31  H    0.062720
    32  H    0.050108
    33  H    0.039888
    34  H    0.003320
    35  H   -0.027923
    36  H    0.048047
    37  H    0.050138
    38  H    0.336035
    39  H    0.351288
    40  H    0.320937
    41  N   -0.543916
    42  C    0.140999
    43  C    0.564457
    44  O   -0.578569
    45  C   -0.375651
    46  C    0.677855
    47  O   -0.546918
    48  O   -0.713161
    49  H    0.173373
    50  H    0.081083
    51  H    0.101233
    52  H    0.121377
    53  N   -0.278234
    54  C   -0.197142
    55  C    0.533791
    56  O   -0.583041
    57  H    0.219811
    58  H    0.127427
    59  H    0.109650
    60  N   -0.201706
    61  C    0.100977
    62  C    0.199843
    63  O   -0.417568
    64  C   -0.529944
    65  C    1.359465
    66  N   -1.117361
    67  O   -0.913632
    68  H    0.079797
    69  H    0.118896
    70  H    0.154501
    71  H    0.115559
    72  H    0.378223
    73  H    0.519890
    74  N    0.020871
    75  C   -0.355408
    76  C    0.752303
    77  O   -0.569785
    78  H    0.180429
    79  H    0.143765
    80  H    0.111238
    81  N   -0.658159
    82  C    0.097422
    83  C    0.772623
    84  O   -0.614271
    85  C   -0.155531
    86  C    0.278377
    87  C   -0.391562
    88  C   -0.417766
    89  C   -0.065526
    90  C   -0.036175
    91  C    0.189153
    92  O   -0.509162
    93  H    0.407835
    94  H    0.045113
    95  H    0.045520
    96  H    0.007454
    97  H    0.170468
    98  H    0.202479
    99  H    0.128115
   100  H    0.078606
   101  H    0.394476
   102  N   -0.669086
   103  C    0.090156
   104  C    0.490258
   105  O   -0.544387
   106  C    0.239591
   107  C    0.055920
   108  C   -0.410381
   109  C   -0.232929
   110  H    0.338458
   111  H    0.022038
   112  H    0.000678
   113  H    0.002699
   114  H    0.026084
   115  H    0.058650
   116  H    0.122011
   117  H    0.101758
   118  H    0.046574
   119  H    0.044647
   120  H    0.066862
   121  N   -0.314032
   122  C   -0.006586
   123  C    0.623830
   124  O   -0.511763
   125  C    0.175692
   126  O   -0.582777
   127  H    0.288469
   128  H    0.045879
   129  H    0.003608
   130  H    0.013612
   131  H    0.306903
   132  N   -0.603125
   133  C    0.347928
   134  C    0.405680
   135  O   -0.531331
   136  C   -0.432902
   137  H    0.317481
   138  H    0.043781
   139  H    0.120578
   140  H    0.094720
   141  H    0.139176
   142  N   -0.396938
   143  C    0.234749
   144  C    0.319784
   145  O   -0.537867
   146  C   -0.473845
   147  H    0.260333
   148  H    0.083692
   149  H    0.119853
   150  H    0.150658
   151  H    0.113181
   152  N   -0.014535
   153  C   -0.157026
   154  C    0.493196
   155  O   -0.538168
   156  C    0.187909
   157  C   -0.232440
   158  C    0.837139
   159  O   -0.820119
   160  O   -0.652415
   161  H    0.081558
   162  H    0.110710
   163  H    0.041354
   164  H   -0.107999
   165  H    0.033423
   166  H    0.025375
   167  N   -0.155340
   168  C   -0.146271
   169  H    0.061201
   170  H    0.093439
   171  H    0.048449
   172  H    0.209148
   173  Ca   1.536978
   174  O   -0.878355
   175  H    0.447754
   176  H    0.436902
 Sum of ESP charges =   0.00000

 Normal termination of Gaussian 16 at Sat Sep 14 22:37:53 2019.
