 Gaussian 16, Revision A.03,
 Gaussian 16:  ES64L-G16RevA.03 25-Dec-2016

 ----------------------------------------------------------------------
 #b3lyp/svp scf=(tight,noincore) Test #IOP(5/87=12) Density=Current Pop
 =(MK,readradii) iop(6/33=2) iop(6/42=6)
 ----------------------------------------------------------------------

 ------------------
 holoCaM_loop3_30.0
 ------------------
 Symbolic Z-matrix:
 Charge =  0 Multiplicity = 1

                         Standard orientation:
 ---------------------------------------------------------------------
 Center     Atomic      Atomic             Coordinates (Angstroms)
 Number     Number       Type             X           Y           Z
 ---------------------------------------------------------------------
      1          6           0        2.026107    2.525000    5.446788
      2          6           0        1.508451    2.404881    4.025238
      3          8           0        2.257174    2.011572    3.131469
      4          1           0        1.628928    1.706689    6.047706
      5          1           0        3.115029    2.477069    5.442673
      6          1           0        1.705479    3.476228    5.871743
      7          7           0        0.266145    2.855425    3.779709
      8          6           0       -0.355393    2.664863    2.490998
      9          6           0       -0.434526    4.022784    1.809243
     10          8           0       -1.228424    4.857725    2.258242
     11          6           0       -1.763416    2.114736    2.690323
     12          6           0       -2.570605    2.119067    1.408712
     13          8           0       -3.778889    2.451630    1.389949
     14          8           0       -2.003901    1.745922    0.356947
     15          1           0       -0.294559    3.232879    4.532065
     16          1           0        0.258193    1.983423    1.888294
     17          1           0       -2.197060    2.675559    3.520342
     18          1           0       -1.644949    1.063178    2.948764
     19          7           0        0.310915    4.204884    0.724966
     20          6           0        0.532682    5.443921    0.005448
     21          6           0       -0.239013    5.707116   -1.270724
     22          8           0       -0.053184    6.708571   -1.957642
     23          6           0        2.029459    5.760797    0.050696
     24          6           0        2.582017    5.875618    1.459843
     25          6           0        4.108793    5.977242    1.423438
     26          6           0        4.774512    6.485101    2.692887
     27          7           0        4.964821    5.383114    3.650752
     28          1           0        0.849221    3.380893    0.503460
     29          1           0        0.046821    6.215272    0.606662
     30          1           0        2.300102    6.673398   -0.472479
     31          1           0        2.543322    4.931497   -0.438903
     32          1           0        2.369371    4.952052    1.997717
     33          1           0        2.191796    6.760773    1.959071
     34          1           0        4.354622    6.671270    0.617403
     35          1           0        4.507265    5.016555    1.100639
     36          1           0        4.205538    7.371652    2.986820
     37          1           0        5.772997    6.913008    2.562416
     38          1           0        4.130615    5.220287    4.194800
     39          1           0        5.256575    4.520801    3.203319
     40          1           0        5.639577    5.595552    4.378403
     41          7           0       -1.246208    4.915894   -1.662676
     42          6           0       -2.015819    5.001221   -2.889264
     43          6           0       -3.459491    4.554332   -2.737596
     44          8           0       -4.288938    4.429738   -3.639756
     45          6           0       -1.315895    4.314494   -4.061105
     46          6           0       -1.198395    2.801595   -3.938913
     47          8           0       -0.746265    2.103737   -4.876075
     48          8           0       -1.596968    2.192230   -2.929649
     49          1           0       -1.385112    4.099570   -1.084040
     50          1           0       -2.188131    6.002414   -3.285777
     51          1           0       -0.347048    4.694703   -4.375550
     52          1           0       -1.924868    4.486490   -4.945226
     53          7           0       -3.890211    4.417385   -1.480366
     54          6           0       -5.280631    4.388159   -1.091165
     55          6           0       -6.014986    3.090833   -1.386071
     56          8           0       -7.224164    3.235894   -1.520774
     57          1           0       -3.179959    4.503378   -0.776202
     58          1           0       -5.736168    5.302290   -1.489598
     59          1           0       -5.361673    4.490088   -0.008186
     60          7           0       -5.337650    1.933235   -1.364108
     61          6           0       -6.056479    0.687134   -1.532385
     62          6           0       -6.145819   -0.121128   -0.245245
     63          8           0       -6.558765   -1.280641   -0.242823
     64          6           0       -5.553347   -0.021604   -2.780964
     65          6           0       -4.462667   -1.026694   -2.418871
     66          7           0       -4.664504   -2.314719   -2.678589
     67          8           0       -3.441130   -0.589496   -1.891784
     68          1           0       -4.354293    1.934371   -1.161355
     69          1           0       -7.114468    0.883553   -1.715087
     70          1           0       -5.238083    0.694714   -3.538194
     71          1           0       -6.408013   -0.595246   -3.143014
     72          1           0       -5.480709   -2.710768   -3.121144
     73          1           0       -3.888401   -2.940361   -2.493019
     74          7           0       -5.790737    0.498706    0.884322
     75          6           0       -5.751907   -0.240926    2.131935
     76          6           0       -4.611477   -1.197535    2.435938
     77          8           0       -4.100369   -1.237772    3.552786
     78          1           0       -5.397910    1.427371    0.931948
     79          1           0       -6.739329   -0.709683    2.222294
     80          1           0       -5.604472    0.496900    2.917031
     81          7           0       -4.280092   -2.060208    1.471273
     82          6           0       -3.269775   -3.098350    1.540706
     83          6           0       -1.873936   -2.606613    1.203025
     84          8           0       -1.687587   -1.614835    0.513640
     85          6           0       -3.719895   -4.231457    0.620946
     86          6           0       -5.111212   -4.817411    0.761642
     87          6           0       -5.754349   -5.337345   -0.374599
     88          6           0       -5.852122   -4.617513    1.929329
     89          6           0       -7.084780   -5.764903   -0.355983
     90          6           0       -7.189832   -5.032667    1.938291
     91          6           0       -7.800885   -5.699571    0.858359
     92          8           0       -9.078290   -6.129586    0.978867
     93          1           0       -4.828912   -1.926281    0.627555
     94          1           0       -3.254575   -3.528233    2.541141
     95          1           0       -3.073971   -5.105481    0.699466
     96          1           0       -3.670935   -3.817194   -0.385776
     97          1           0       -5.179102   -5.322126   -1.286004
     98          1           0       -5.388259   -4.209580    2.818554
     99          1           0       -7.534092   -6.058482   -1.285354
    100          1           0       -7.684580   -4.943371    2.902579
    101          1           0       -9.330139   -5.885974    1.875430
    102          7           0       -0.893007   -3.352758    1.742326
    103          6           0        0.527274   -3.101861    1.584362
    104          6           0        1.090639   -3.976225    0.471209
    105          8           0        0.857848   -5.173286    0.496741
    106          6           0        1.280775   -3.149435    2.902684
    107          6           0        0.537187   -2.527447    4.076058
    108          6           0        2.619219   -2.414742    2.775426
    109          6           0        0.045712   -1.096365    3.871714
    110          1           0       -1.128228   -4.157258    2.294820
    111          1           0        0.665367   -2.108296    1.161563
    112          1           0        1.374516   -4.193984    3.209492
    113          1           0        1.141927   -2.510556    4.988530
    114          1           0       -0.368687   -3.066288    4.377458
    115          1           0        2.899368   -2.029077    3.753833
    116          1           0        3.277074   -3.184761    2.367386
    117          1           0        2.525093   -1.535202    2.142930
    118          1           0       -0.967877   -1.024052    3.496071
    119          1           0        0.021696   -0.696123    4.890993
    120          1           0        0.746322   -0.431825    3.358262
    121          7           0        1.896755   -3.349572   -0.398379
    122          6           0        2.725375   -3.870357   -1.464387
    123          6           0        4.223725   -3.876918   -1.203996
    124          8           0        4.640065   -3.270733   -0.210668
    125          6           0        2.348510   -3.360268   -2.855675
    126          8           0        2.602390   -1.979402   -2.868119
    127          1           0        1.898902   -2.343823   -0.330087
    128          1           0        2.502679   -4.938151   -1.497913
    129          1           0        1.287112   -3.569682   -2.987508
    130          1           0        2.934091   -3.844598   -3.629444
    131          1           0        2.176467   -1.575338   -2.110674
    132          7           0        5.007575   -4.486862   -2.091829
    133          6           0        6.445696   -4.590032   -1.951601
    134          6           0        7.107568   -3.229245   -1.758767
    135          8           0        7.855407   -3.094427   -0.792299
    136          6           0        7.044105   -5.291240   -3.169104
    137          1           0        4.629635   -4.975313   -2.890313
    138          1           0        6.772486   -5.130678   -1.059070
    139          1           0        8.131566   -5.168763   -3.096115
    140          1           0        6.635157   -6.273057   -3.376464
    141          1           0        6.766697   -4.792303   -4.090303
    142          7           0        6.865579   -2.236899   -2.621721
    143          6           0        7.691111   -1.040917   -2.639730
    144          6           0        7.438831   -0.315896   -1.321095
    145          8           0        8.243748    0.455415   -0.812578
    146          6           0        7.268658   -0.164426   -3.815909
    147          1           0        6.211391   -2.378930   -3.378005
    148          1           0        8.714333   -1.406724   -2.772779
    149          1           0        7.297361   -0.807007   -4.694297
    150          1           0        6.235634    0.150698   -3.688795
    151          1           0        7.938243    0.686463   -3.931854
    152          7           0        6.189955   -0.460399   -0.855233
    153          6           0        5.673901    0.132644    0.358022
    154          6           0        6.373266   -0.552266    1.530151
    155          8           0        6.812693    0.203497    2.387487
    156          6           0        4.161832    0.029420    0.484876
    157          6           0        3.418137    0.866125   -0.562379
    158          6           0        1.915495    0.616404   -0.547996
    159          8           0        1.034174    1.497679   -0.501875
    160          8           0        1.460218   -0.548616   -0.613968
    161          1           0        5.621410   -1.179014   -1.277428
    162          1           0        5.988824    1.170644    0.325167
    163          1           0        3.856149    0.313571    1.494835
    164          1           0        3.850164   -0.995178    0.263153
    165          1           0        3.820358    0.621047   -1.543121
    166          1           0        3.675744    1.896450   -0.333975
    167          7           0        6.304081   -1.867003    1.768017
    168          6           0        7.142896   -2.580225    2.715752
    169          1           0        6.518868   -3.210314    3.349368
    170          1           0        7.855384   -3.202728    2.174295
    171          1           0        7.682838   -1.863758    3.334932
    172          1           0        5.845718   -2.325290    0.996410
    173         20           0       -1.044794    0.200830   -1.292782
    174          8           0       -0.843157   -2.229140   -2.290155
    175          1           0       -1.762282   -2.218206   -2.567263
    176          1           0       -0.346399   -2.138684   -3.107864
 ---------------------------------------------------------------------

 SCF Done:  E(RB3LYP) =  -5333.58921087     A.U. after   18 cycles

 The electronic state is 1-A.
 Alpha  occ. eigenvalues -- -145.35996 -19.19259 -19.16493 -19.14038 -19.13553
 Alpha  occ. eigenvalues --  -19.13370 -19.12258 -19.11465 -19.11383 -19.10003
 Alpha  occ. eigenvalues --  -19.09705 -19.08748 -19.08638 -19.08545 -19.08228
 Alpha  occ. eigenvalues --  -19.08135 -19.06398 -19.05951 -19.05102 -19.04672
 Alpha  occ. eigenvalues --  -19.04283 -19.03310 -19.00921 -18.97810 -15.41817
 Alpha  occ. eigenvalues --  -14.58087 -14.39920 -14.38682 -14.37663 -14.36735
 Alpha  occ. eigenvalues --  -14.36651 -14.35275 -14.34488 -14.34091 -14.33650
 Alpha  occ. eigenvalues --  -14.32802 -14.32126 -14.31944 -14.31602 -14.29981
 Alpha  occ. eigenvalues --  -12.55421 -12.55391 -12.55370 -10.34890 -10.32045
 Alpha  occ. eigenvalues --  -10.31673 -10.30349 -10.30238 -10.30034 -10.28562
 Alpha  occ. eigenvalues --  -10.28252 -10.27482 -10.26816 -10.26708 -10.26676
 Alpha  occ. eigenvalues --  -10.26629 -10.26224 -10.26191 -10.26087 -10.25152
 Alpha  occ. eigenvalues --  -10.25008 -10.24922 -10.24452 -10.24048 -10.24032
 Alpha  occ. eigenvalues --  -10.23864 -10.23518 -10.23469 -10.23354 -10.22536
 Alpha  occ. eigenvalues --  -10.22462 -10.22373 -10.21940 -10.21679 -10.21608
 Alpha  occ. eigenvalues --  -10.21303 -10.20569 -10.20477 -10.20378 -10.19967
 Alpha  occ. eigenvalues --  -10.19551 -10.19281 -10.19244 -10.19095 -10.19090
 Alpha  occ. eigenvalues --  -10.19009 -10.19005 -10.19001 -10.18934 -10.18767
 Alpha  occ. eigenvalues --  -10.18616 -10.18135 -10.17851 -10.16845 -10.16567
 Alpha  occ. eigenvalues --  -10.16231 -10.12792  -1.78769  -1.13143  -1.07050
 Alpha  occ. eigenvalues --   -1.06704  -1.06519  -1.06237  -1.05697  -1.05682
 Alpha  occ. eigenvalues --   -1.04813  -1.04713  -1.04618  -1.04525  -1.04166
 Alpha  occ. eigenvalues --   -1.03169  -1.02473  -1.01887  -1.01605  -1.01249
 Alpha  occ. eigenvalues --   -1.00693  -1.00017  -0.99523  -0.98584  -0.98440
 Alpha  occ. eigenvalues --   -0.97335  -0.96566  -0.94717  -0.94667  -0.93525
 Alpha  occ. eigenvalues --   -0.93376  -0.93334  -0.93148  -0.92420  -0.91877
 Alpha  occ. eigenvalues --   -0.91219  -0.91136  -0.90287  -0.88723  -0.88530
 Alpha  occ. eigenvalues --   -0.88425  -0.88198  -0.88178  -0.86020  -0.84843
 Alpha  occ. eigenvalues --   -0.83155  -0.82282  -0.81903  -0.81623  -0.79616
 Alpha  occ. eigenvalues --   -0.79064  -0.78573  -0.78163  -0.77426  -0.77412
 Alpha  occ. eigenvalues --   -0.76296  -0.74560  -0.74252  -0.73866  -0.73650
 Alpha  occ. eigenvalues --   -0.73041  -0.72524  -0.72307  -0.71287  -0.70990
 Alpha  occ. eigenvalues --   -0.69836  -0.69323  -0.68889  -0.68573  -0.68262
 Alpha  occ. eigenvalues --   -0.67515  -0.66371  -0.66044  -0.65146  -0.64945
 Alpha  occ. eigenvalues --   -0.64523  -0.63382  -0.63059  -0.62500  -0.62206
 Alpha  occ. eigenvalues --   -0.62004  -0.61864  -0.61401  -0.61216  -0.60607
 Alpha  occ. eigenvalues --   -0.60465  -0.59412  -0.58849  -0.58639  -0.58520
 Alpha  occ. eigenvalues --   -0.58342  -0.58270  -0.57117  -0.56941  -0.56548
 Alpha  occ. eigenvalues --   -0.56272  -0.55917  -0.55749  -0.54972  -0.54805
 Alpha  occ. eigenvalues --   -0.54715  -0.54522  -0.54197  -0.53766  -0.53621
 Alpha  occ. eigenvalues --   -0.53395  -0.53072  -0.52757  -0.52516  -0.52282
 Alpha  occ. eigenvalues --   -0.51840  -0.51641  -0.50817  -0.50711  -0.50539
 Alpha  occ. eigenvalues --   -0.50372  -0.49770  -0.49579  -0.49341  -0.49290
 Alpha  occ. eigenvalues --   -0.49024  -0.48827  -0.48470  -0.48300  -0.48165
 Alpha  occ. eigenvalues --   -0.47884  -0.47520  -0.47335  -0.47067  -0.46844
 Alpha  occ. eigenvalues --   -0.46621  -0.46500  -0.46389  -0.46150  -0.46027
 Alpha  occ. eigenvalues --   -0.45830  -0.45434  -0.45247  -0.45232  -0.45072
 Alpha  occ. eigenvalues --   -0.44677  -0.44585  -0.44452  -0.44301  -0.44207
 Alpha  occ. eigenvalues --   -0.44023  -0.43914  -0.43726  -0.43667  -0.43542
 Alpha  occ. eigenvalues --   -0.43480  -0.43274  -0.43175  -0.42902  -0.42738
 Alpha  occ. eigenvalues --   -0.42613  -0.42453  -0.42426  -0.42333  -0.41923
 Alpha  occ. eigenvalues --   -0.41828  -0.41724  -0.41511  -0.41478  -0.41167
 Alpha  occ. eigenvalues --   -0.41048  -0.40886  -0.40839  -0.40589  -0.40452
 Alpha  occ. eigenvalues --   -0.40363  -0.40225  -0.39804  -0.39751  -0.39717
 Alpha  occ. eigenvalues --   -0.39590  -0.39538  -0.39441  -0.39430  -0.39295
 Alpha  occ. eigenvalues --   -0.39103  -0.38834  -0.38643  -0.38555  -0.38461
 Alpha  occ. eigenvalues --   -0.38228  -0.38142  -0.37998  -0.37851  -0.37814
 Alpha  occ. eigenvalues --   -0.37647  -0.37581  -0.37528  -0.37340  -0.36978
 Alpha  occ. eigenvalues --   -0.36722  -0.36622  -0.36445  -0.36151  -0.35985
 Alpha  occ. eigenvalues --   -0.35864  -0.35793  -0.35464  -0.35084  -0.35059
 Alpha  occ. eigenvalues --   -0.34887  -0.34729  -0.34628  -0.34269  -0.34162
 Alpha  occ. eigenvalues --   -0.33966  -0.33849  -0.33626  -0.33526  -0.33296
 Alpha  occ. eigenvalues --   -0.32903  -0.32797  -0.32563  -0.31860  -0.31616
 Alpha  occ. eigenvalues --   -0.31399  -0.31025  -0.30906  -0.30390  -0.29983
 Alpha  occ. eigenvalues --   -0.29129  -0.28980  -0.28889  -0.28714  -0.28634
 Alpha  occ. eigenvalues --   -0.28194  -0.28116  -0.27944  -0.27195  -0.27059
 Alpha  occ. eigenvalues --   -0.26877  -0.26451  -0.26403  -0.26390  -0.26074
 Alpha  occ. eigenvalues --   -0.26035  -0.25352  -0.24933  -0.24536  -0.24427
 Alpha  occ. eigenvalues --   -0.24000  -0.23675  -0.23203  -0.23025  -0.22760
 Alpha  occ. eigenvalues --   -0.22600  -0.22293  -0.22164  -0.21964  -0.21800
 Alpha  occ. eigenvalues --   -0.21658  -0.21311  -0.20087  -0.19698  -0.19028
 Alpha  occ. eigenvalues --   -0.18686  -0.16812  -0.13767
 Alpha virt. eigenvalues --   -0.09772  -0.04643  -0.03504  -0.02226  -0.01637
 Alpha virt. eigenvalues --   -0.01434  -0.01228  -0.00429  -0.00381  -0.00070
 Alpha virt. eigenvalues --   -0.00006   0.00130   0.00898   0.01590   0.01758

 Mulliken charges:
               1
     1  C    0.050768
     2  C    0.028173
     3  O   -0.307078
     4  H    0.057294
     5  H    0.002096
     6  H    0.005683
     7  N   -0.126663
     8  C    0.067719
     9  C    0.033784
    10  O   -0.293901
    11  C    0.140409
    12  C    0.126749
    13  O   -0.380630
    14  O   -0.481775
    15  H    0.120890
    16  H    0.026743
    17  H   -0.013547
    18  H    0.014581
    19  N   -0.143806
    20  C    0.183746
    21  C    0.053076
    22  O   -0.292198
    23  C    0.019702
    24  C    0.016133
    25  C   -0.065486
    26  C    0.049040
    27  N    0.073632
    28  H    0.137429
    29  H    0.021826
    30  H    0.017729
    31  H    0.016979
    32  H    0.004174
    33  H    0.004334
    34  H    0.042203
    35  H    0.034744
    36  H    0.082307
    37  H    0.059728
    38  H    0.192549
    39  H    0.212824
    40  H    0.186820
    41  N   -0.138584
    42  C    0.179897
    43  C    0.037604
    44  O   -0.284713
    45  C    0.059375
    46  C    0.078932
    47  O   -0.384885
    48  O   -0.461618
    49  H    0.139391
    50  H    0.022015
    51  H    0.004145
    52  H    0.013446
    53  N   -0.151007
    54  C    0.226940
    55  C    0.056868
    56  O   -0.291323
    57  H    0.106039
    58  H    0.014106
    59  H    0.026056
    60  N   -0.158765
    61  C    0.123924
    62  C    0.030135
    63  O   -0.325348
    64  C    0.158567
    65  C    0.037206
    66  N   -0.025470
    67  O   -0.354097
    68  H    0.149195
    69  H    0.038000
    70  H    0.076118
    71  H   -0.018345
    72  H    0.146317
    73  H    0.126266
    74  N   -0.128355
    75  C    0.201916
    76  C    0.036112
    77  O   -0.291473
    78  H    0.151120
    79  H    0.035250
    80  H    0.016646
    81  N   -0.123992
    82  C    0.073693
    83  C    0.172067
    84  O   -0.327655
    85  C    0.133918
    86  C   -0.023047
    87  C   -0.008271
    88  C   -0.007556
    89  C   -0.020905
    90  C   -0.045588
    91  C    0.187082
    92  O   -0.173188
    93  H    0.149518
    94  H    0.002107
    95  H    0.021377
    96  H   -0.048116
    97  H   -0.060576
    98  H   -0.014477
    99  H   -0.030716
   100  H   -0.037569
   101  H    0.172608
   102  N   -0.124343
   103  C    0.115055
   104  C    0.079085
   105  O   -0.275622
   106  C   -0.069603
   107  C    0.027134
   108  C    0.072990
   109  C   -0.066724
   110  H    0.124248
   111  H    0.009151
   112  H   -0.016813
   113  H   -0.007088
   114  H   -0.024600
   115  H   -0.001042
   116  H    0.028276
   117  H    0.019020
   118  H    0.068598
   119  H   -0.017530
   120  H    0.028314
   121  N   -0.147514
   122  C    0.051959
   123  C    0.129706
   124  O   -0.272784
   125  C    0.261432
   126  O   -0.332309
   127  H    0.153808
   128  H    0.007633
   129  H   -0.013553
   130  H   -0.021139
   131  H    0.157146
   132  N   -0.116774
   133  C    0.107911
   134  C    0.024938
   135  O   -0.245543
   136  C    0.040515
   137  H    0.121424
   138  H    0.023058
   139  H    0.050595
   140  H    0.026999
   141  H   -0.009940
   142  N   -0.167564
   143  C    0.071305
   144  C    0.098691
   145  O   -0.263674
   146  C    0.065983
   147  H    0.114962
   148  H    0.018814
   149  H    0.009674
   150  H    0.019757
   151  H    0.044564
   152  N   -0.177883
   153  C    0.172025
   154  C    0.045277
   155  O   -0.308486
   156  C   -0.049398
   157  C    0.092957
   158  C    0.180288
   159  O   -0.381027
   160  O   -0.456296
   161  H    0.117434
   162  H   -0.037905
   163  H    0.047312
   164  H    0.017447
   165  H    0.013876
   166  H   -0.027262
   167  N   -0.153106
   168  C    0.140533
   169  H    0.007449
   170  H    0.026704
   171  H    0.027909
   172  H    0.126077
   173  Ca   1.273747
   174  O   -0.276945
   175  H    0.158213
   176  H    0.195379
 Sum of Mulliken charges =  -0.00000

 Dipole moment (field-independent basis, Debye):
    X=             20.6524    Y=             -2.1626    Z=             13.0158  Tot=             24.5073
 Quadrupole moment (field-independent basis, Debye-Ang):
   XX=           -587.0254   YY=           -475.7732   ZZ=           -514.2348
   XY=            132.2140   XZ=              6.1697   YZ=            153.0457

 ESP charges:
               1
     1  C   -0.413791
     2  C    0.763167
     3  O   -0.595492
     4  H    0.135573
     5  H    0.088385
     6  H    0.088444
     7  N   -0.840925
     8  C    0.511792
     9  C    0.257658
    10  O   -0.522617
    11  C   -0.554248
    12  C    1.031998
    13  O   -0.721143
    14  O   -0.872820
    15  H    0.410099
    16  H   -0.002335
    17  H    0.115691
    18  H    0.134379
    19  N    0.003076
    20  C   -0.243102
    21  C    0.756365
    22  O   -0.591077
    23  C    0.011352
    24  C    0.278187
    25  C   -0.132623
    26  C    0.027727
    27  N   -0.415211
    28  H    0.162344
    29  H    0.092346
    30  H    0.017895
    31  H    0.003378
    32  H   -0.101623
    33  H   -0.038045
    34  H    0.054821
    35  H    0.047547
    36  H    0.099336
    37  H    0.083140
    38  H    0.327898
    39  H    0.373663
    40  H    0.346724
    41  N   -0.626360
    42  C    0.052191
    43  C    0.459088
    44  O   -0.525671
    45  C   -0.145188
    46  C    0.725126
    47  O   -0.721927
    48  O   -0.709512
    49  H    0.297091
    50  H    0.112365
    51  H    0.059928
    52  H    0.051905
    53  N   -0.255354
    54  C   -0.218946
    55  C    0.647721
    56  O   -0.591224
    57  H    0.237423
    58  H    0.119978
    59  H    0.115801
    60  N   -0.438349
    61  C    0.189106
    62  C    0.363422
    63  O   -0.500859
    64  C   -0.316542
    65  C    0.648942
    66  N   -0.804617
    67  O   -0.562084
    68  H    0.259602
    69  H    0.093842
    70  H    0.175308
    71  H    0.071808
    72  H    0.404557
    73  H    0.365522
    74  N   -0.295398
    75  C   -0.242994
    76  C    0.612050
    77  O   -0.563886
    78  H    0.298921
    79  H    0.139967
    80  H    0.113592
    81  N   -0.556729
    82  C    0.199073
    83  C    0.833874
    84  O   -0.609553
    85  C   -0.253785
    86  C    0.170034
    87  C   -0.252364
    88  C   -0.251727
    89  C   -0.192340
    90  C   -0.257525
    91  C    0.338416
    92  O   -0.509583
    93  H    0.384847
    94  H    0.019508
    95  H    0.087678
    96  H    0.034299
    97  H    0.140536
    98  H    0.194760
    99  H    0.153787
   100  H    0.127963
   101  H    0.391096
   102  N   -0.767536
   103  C    0.187814
   104  C    0.361243
   105  O   -0.528558
   106  C    0.299330
   107  C   -0.159552
   108  C   -0.621828
   109  C    0.142216
   110  H    0.359188
   111  H   -0.077555
   112  H   -0.022213
   113  H    0.041423
   114  H    0.013341
   115  H    0.147580
   116  H    0.162192
   117  H    0.135543
   118  H   -0.037366
   119  H   -0.024628
   120  H    0.021036
   121  N    0.074682
   122  C   -0.333038
   123  C    0.765984
   124  O   -0.615945
   125  C    0.295664
   126  O   -0.582054
   127  H    0.147026
   128  H    0.074272
   129  H   -0.022089
   130  H    0.016922
   131  H    0.296644
   132  N   -0.642184
   133  C    0.307593
   134  C    0.514299
   135  O   -0.530627
   136  C   -0.441074
   137  H    0.346514
   138  H    0.032315
   139  H    0.132862
   140  H    0.133718
   141  H    0.095330
   142  N   -0.440887
   143  C    0.057186
   144  C    0.378045
   145  O   -0.511919
   146  C   -0.304226
   147  H    0.283423
   148  H    0.102102
   149  H    0.085048
   150  H    0.083179
   151  H    0.125759
   152  N    0.084392
   153  C   -0.685033
   154  C    0.793790
   155  O   -0.626445
   156  C    0.493409
   157  C   -0.353828
   158  C    0.728281
   159  O   -0.709565
   160  O   -0.473271
   161  H    0.127872
   162  H    0.185953
   163  H   -0.025154
   164  H   -0.174023
   165  H    0.068552
   166  H    0.092871
   167  N   -0.410763
   168  C   -0.101861
   169  H    0.053827
   170  H    0.068248
   171  H    0.092106
   172  H    0.340650
   173  Ca   1.382719
   174  O   -0.753054
   175  H    0.378127
   176  H    0.399468
 Sum of ESP charges =  -0.00000

 Normal termination of Gaussian 16 at Wed Sep 18 17:27:06 2019.
