 Gaussian 16, Revision A.03,
 Gaussian 16:  ES64L-G16RevA.03 25-Dec-2016

 ----------------------------------------------------------------------
 #b3lyp/svp scf=(tight,noincore) Test #IOP(5/87=12) Density=Current Pop
 =(MK,readradii) iop(6/33=2) iop(6/42=6)
 ----------------------------------------------------------------------

 ------------------
 holoCaM_loop3_38.0
 ------------------
 Symbolic Z-matrix:
 Charge =  0 Multiplicity = 1

                         Standard orientation:
 ---------------------------------------------------------------------
 Center     Atomic      Atomic             Coordinates (Angstroms)
 Number     Number       Type             X           Y           Z
 ---------------------------------------------------------------------
      1          6           0        1.285010    3.004327    6.343064
      2          6           0        1.002531    2.978576    4.846487
      3          8           0        1.849897    3.292337    4.013825
      4          1           0        2.316522    2.701754    6.522587
      5          1           0        1.131341    4.013117    6.724869
      6          1           0        0.611026    2.315175    6.852394
      7          7           0       -0.224753    2.665224    4.436385
      8          6           0       -0.563341    2.523903    3.031434
      9          6           0       -0.543204    3.863253    2.325504
     10          8           0       -1.112673    4.832133    2.819039
     11          6           0       -1.977967    1.937966    2.914761
     12          6           0       -2.367667    1.606675    1.483370
     13          8           0       -2.010875    2.294466    0.507745
     14          8           0       -2.997785    0.543487    1.274609
     15          1           0       -0.886987    2.486237    5.168239
     16          1           0        0.083291    1.843527    2.483023
     17          1           0       -2.739895    2.616478    3.298541
     18          1           0       -2.021644    0.963584    3.388863
     19          7           0        0.275329    4.032439    1.286283
     20          6           0        0.555415    5.164674    0.423732
     21          6           0       -0.651510    5.713280   -0.326244
     22          8           0       -0.998805    6.889053   -0.307718
     23          6           0        1.697064    4.901576   -0.562330
     24          6           0        2.160900    6.204762   -1.208058
     25          6           0        3.240736    5.930868   -2.246680
     26          6           0        3.857634    7.192341   -2.854564
     27          7           0        5.032332    7.720866   -2.145237
     28          1           0        0.727066    3.173808    0.980856
     29          1           0        0.901806    5.905501    1.144627
     30          1           0        1.350413    4.265423   -1.372911
     31          1           0        2.497618    4.386548   -0.039588
     32          1           0        2.657241    6.818076   -0.454671
     33          1           0        1.370576    6.809891   -1.649086
     34          1           0        2.848979    5.325661   -3.060038
     35          1           0        4.044834    5.345365   -1.810660
     36          1           0        3.143325    7.987513   -3.060633
     37          1           0        4.178542    6.904250   -3.859611
     38          1           0        4.875182    7.730428   -1.142384
     39          1           0        5.823332    7.109934   -2.284093
     40          1           0        5.354812    8.638542   -2.414267
     41          7           0       -1.444029    4.862479   -0.967923
     42          6           0       -2.609782    5.177993   -1.779324
     43          6           0       -3.946595    4.878683   -1.117929
     44          8           0       -4.955924    5.334221   -1.649286
     45          6           0       -2.526411    4.344550   -3.058903
     46          6           0       -2.229284    2.871438   -2.803252
     47          8           0       -1.075772    2.476197   -2.537555
     48          8           0       -3.150616    2.040546   -2.643051
     49          1           0       -1.047072    3.938243   -0.862503
     50          1           0       -2.541021    6.216132   -2.094347
     51          1           0       -1.665201    4.710189   -3.610287
     52          1           0       -3.451098    4.418647   -3.634285
     53          7           0       -3.968237    4.172761    0.009505
     54          6           0       -5.179335    3.828492    0.720645
     55          6           0       -6.150950    2.835547    0.107599
     56          8           0       -7.354203    3.035427    0.237326
     57          1           0       -3.072788    3.824435    0.308404
     58          1           0       -5.722147    4.745672    0.925188
     59          1           0       -4.959950    3.479874    1.734762
     60          7           0       -5.687811    1.821905   -0.634110
     61          6           0       -6.436536    0.635047   -1.014738
     62          6           0       -6.478562   -0.477078    0.022235
     63          8           0       -7.277823   -1.402314   -0.151027
     64          6           0       -6.000397    0.058315   -2.354761
     65          6           0       -4.796695   -0.868881   -2.278550
     66          7           0       -4.733426   -1.867340   -3.161940
     67          8           0       -3.818578   -0.695945   -1.546580
     68          1           0       -4.711569    1.750718   -0.863858
     69          1           0       -7.465741    0.991540   -1.030541
     70          1           0       -5.738556    0.777727   -3.128186
     71          1           0       -6.828599   -0.557209   -2.711709
     72          1           0       -5.535095   -1.994955   -3.770168
     73          1           0       -3.940354   -2.459500   -3.341334
     74          7           0       -5.661492   -0.497543    1.070843
     75          6           0       -5.740291   -1.501350    2.111690
     76          6           0       -4.843946   -2.706410    1.851118
     77          8           0       -5.227740   -3.816549    2.195637
     78          1           0       -4.916477    0.179602    1.160990
     79          1           0       -6.765743   -1.865654    2.176738
     80          1           0       -5.498983   -1.072684    3.077358
     81          7           0       -3.689593   -2.415084    1.255637
     82          6           0       -2.736960   -3.440890    0.853998
     83          6           0       -1.349331   -2.846118    0.751370
     84          8           0       -1.169800   -1.831167    0.071118
     85          6           0       -3.102566   -4.031418   -0.508723
     86          6           0       -4.287391   -4.958259   -0.450821
     87          6           0       -5.555580   -4.542186   -0.890342
     88          6           0       -4.035830   -6.331757   -0.289514
     89          6           0       -6.599552   -5.445215   -1.090497
     90          6           0       -5.041175   -7.275017   -0.521123
     91          6           0       -6.320005   -6.820449   -0.898961
     92          8           0       -7.354962   -7.706446   -0.947693
     93          1           0       -3.375465   -1.489458    0.994795
     94          1           0       -2.695214   -4.251473    1.585923
     95          1           0       -2.279661   -4.672514   -0.817791
     96          1           0       -3.233250   -3.226550   -1.228105
     97          1           0       -5.721459   -3.483100   -1.049783
     98          1           0       -3.018917   -6.624194   -0.116403
     99          1           0       -7.610429   -5.160150   -1.335783
    100          1           0       -4.756497   -8.289714   -0.320256
    101          1           0       -7.262636   -8.664183   -0.912825
    102          7           0       -0.309888   -3.482942    1.294060
    103          6           0        1.030208   -2.945720    1.394234
    104          6           0        1.911050   -3.806663    0.502834
    105          8           0        2.084921   -5.001068    0.752966
    106          6           0        1.446749   -3.030522    2.866206
    107          6           0        0.937411   -1.796997    3.603764
    108          6           0        2.947407   -3.232634    3.066397
    109          6           0        1.389377   -1.638865    5.046963
    110          1           0       -0.516454   -4.376059    1.718528
    111          1           0        1.058662   -1.929397    1.022647
    112          1           0        0.856626   -3.823438    3.327335
    113          1           0       -0.154552   -1.829650    3.547634
    114          1           0        1.245825   -0.939527    3.000253
    115          1           0        3.290985   -4.174150    2.657859
    116          1           0        3.544652   -2.377774    2.747788
    117          1           0        3.117686   -3.353521    4.139053
    118          1           0        0.809895   -0.809402    5.445827
    119          1           0        1.198720   -2.576619    5.579848
    120          1           0        2.465238   -1.482293    5.125114
    121          7           0        2.335683   -3.230734   -0.624727
    122          6           0        3.337124   -3.780879   -1.523924
    123          6           0        4.743679   -3.805062   -0.945203
    124          8           0        4.958006   -3.136987    0.065806
    125          6           0        3.314431   -2.987597   -2.830251
    126          8           0        3.743439   -1.673257   -2.569743
    127          1           0        2.080884   -2.262685   -0.786464
    128          1           0        3.058001   -4.823800   -1.626423
    129          1           0        2.303999   -3.001772   -3.248612
    130          1           0        4.049546   -3.535947   -3.416611
    131          1           0        3.977598   -1.428035   -3.460550
    132          7           0        5.706556   -4.398011   -1.658981
    133          6           0        7.107565   -4.226057   -1.325208
    134          6           0        7.680956   -2.815415   -1.328480
    135          8           0        8.678627   -2.467907   -0.697219
    136          6           0        7.979855   -5.115056   -2.210302
    137          1           0        5.563120   -4.635574   -2.624895
    138          1           0        7.287919   -4.664100   -0.349559
    139          1           0        8.850722   -5.335267   -1.596789
    140          1           0        7.385776   -5.970257   -2.523191
    141          1           0        8.193053   -4.552475   -3.113103
    142          7           0        7.028480   -1.924944   -2.089162
    143          6           0        7.335674   -0.508753   -2.064001
    144          6           0        6.767481    0.280338   -0.893876
    145          8           0        7.348370    1.309252   -0.555493
    146          6           0        6.903383    0.085588   -3.399510
    147          1           0        6.217083   -2.266685   -2.584892
    148          1           0        8.423890   -0.499274   -1.989191
    149          1           0        7.284408   -0.654152   -4.112325
    150          1           0        5.826827    0.132321   -3.541433
    151          1           0        7.292287    1.098222   -3.473167
    152          7           0        5.721974   -0.246695   -0.263834
    153          6           0        5.115168    0.439661    0.856746
    154          6           0        5.714051   -0.157414    2.120566
    155          8           0        5.628794    0.462690    3.177922
    156          6           0        3.592266    0.425735    0.806997
    157          6           0        2.998387    1.063698   -0.442568
    158          6           0        1.505374    0.802514   -0.600348
    159          8           0        0.637932    1.325142    0.120281
    160          8           0        1.043509   -0.003860   -1.436434
    161          1           0        5.220120   -1.004340   -0.699513
    162          1           0        5.362294    1.508173    0.791850
    163          1           0        3.213654    0.911217    1.708086
    164          1           0        3.167839   -0.576155    0.785141
    165          1           0        3.518504    0.769977   -1.361103
    166          1           0        3.247013    2.130571   -0.370005
    167          7           0        6.346538   -1.327539    2.069896
    168          6           0        7.043722   -1.947428    3.175233
    169          1           0        7.927920   -2.465527    2.801924
    170          1           0        7.347011   -1.182129    3.889470
    171          1           0        6.384062   -2.662622    3.665838
    172          1           0        6.281913   -1.845522    1.200173
    173         20           0       -1.486377    0.412601   -1.111416
    174          8           0       -1.308521   -1.616593   -3.063195
    175          1           0       -0.794144   -1.319001   -3.816757
    176          1           0       -1.861936   -2.322611   -3.418400
 ---------------------------------------------------------------------

 SCF Done:  E(RB3LYP) =  -5333.58812148     A.U. after   18 cycles

 The electronic state is 1-A.
 Alpha  occ. eigenvalues -- -145.32459 -19.19544 -19.16698 -19.14157 -19.13519
 Alpha  occ. eigenvalues --  -19.11679 -19.11069 -19.10444 -19.10037 -19.09559
 Alpha  occ. eigenvalues --  -19.06042 -19.05991 -19.05925 -19.05883 -19.05854
 Alpha  occ. eigenvalues --  -19.05572 -19.05571 -19.05489 -19.05325 -19.04611
 Alpha  occ. eigenvalues --  -19.04526 -19.03772 -19.03753 -19.03147 -15.38198
 Alpha  occ. eigenvalues --  -14.59246 -14.40530 -14.37650 -14.36706 -14.36345
 Alpha  occ. eigenvalues --  -14.36340 -14.35078 -14.32731 -14.32475 -14.32270
 Alpha  occ. eigenvalues --  -14.31107 -14.30549 -14.30370 -14.30257 -14.29668
 Alpha  occ. eigenvalues --  -12.51814 -12.51769 -12.51765 -10.35108 -10.32485
 Alpha  occ. eigenvalues --  -10.30469 -10.29572 -10.29330 -10.29012 -10.28510
 Alpha  occ. eigenvalues --  -10.28135 -10.27160 -10.26430 -10.26234 -10.25372
 Alpha  occ. eigenvalues --  -10.25164 -10.25141 -10.25125 -10.24749 -10.24416
 Alpha  occ. eigenvalues --  -10.24374 -10.24190 -10.23630 -10.23606 -10.23366
 Alpha  occ. eigenvalues --  -10.23269 -10.22896 -10.22790 -10.22655 -10.22319
 Alpha  occ. eigenvalues --  -10.22232 -10.21928 -10.21709 -10.21521 -10.20598
 Alpha  occ. eigenvalues --  -10.20508 -10.20168 -10.19935 -10.19722 -10.18987
 Alpha  occ. eigenvalues --  -10.18653 -10.18411 -10.18302 -10.18223 -10.17954
 Alpha  occ. eigenvalues --  -10.17681 -10.17243 -10.16878 -10.16727 -10.16715
 Alpha  occ. eigenvalues --  -10.16611 -10.16498 -10.16423 -10.16413 -10.16377
 Alpha  occ. eigenvalues --  -10.15897 -10.15059  -1.75239  -1.14303  -1.08656
 Alpha  occ. eigenvalues --   -1.07041  -1.04699  -1.04330  -1.03696  -1.03533
 Alpha  occ. eigenvalues --   -1.02959  -1.02822  -1.02538  -1.02527  -1.02439
 Alpha  occ. eigenvalues --   -1.01832  -1.01089  -1.00837  -0.99607  -0.99377
 Alpha  occ. eigenvalues --   -0.99333  -0.99294  -0.98798  -0.98574  -0.97695
 Alpha  occ. eigenvalues --   -0.97561  -0.97365  -0.96755  -0.94398  -0.93285
 Alpha  occ. eigenvalues --   -0.93205  -0.92307  -0.90896  -0.90792  -0.89794
 Alpha  occ. eigenvalues --   -0.89493  -0.89120  -0.88877  -0.88410  -0.88381
 Alpha  occ. eigenvalues --   -0.88112  -0.87639  -0.87336  -0.86963  -0.86015
 Alpha  occ. eigenvalues --   -0.82868  -0.82628  -0.81614  -0.81116  -0.79862
 Alpha  occ. eigenvalues --   -0.78878  -0.78024  -0.77318  -0.76589  -0.76382
 Alpha  occ. eigenvalues --   -0.75216  -0.74183  -0.73917  -0.72836  -0.72539
 Alpha  occ. eigenvalues --   -0.72179  -0.72138  -0.71580  -0.70619  -0.69930
 Alpha  occ. eigenvalues --   -0.69632  -0.69252  -0.68691  -0.68335  -0.68229
 Alpha  occ. eigenvalues --   -0.67709  -0.66017  -0.65556  -0.65097  -0.64044
 Alpha  occ. eigenvalues --   -0.63961  -0.63251  -0.62776  -0.62328  -0.61744
 Alpha  occ. eigenvalues --   -0.61272  -0.61156  -0.60967  -0.60021  -0.59663
 Alpha  occ. eigenvalues --   -0.59565  -0.59456  -0.58315  -0.57882  -0.57232
 Alpha  occ. eigenvalues --   -0.56846  -0.56687  -0.56064  -0.55950  -0.55513
 Alpha  occ. eigenvalues --   -0.55282  -0.55172  -0.55164  -0.54967  -0.54306
 Alpha  occ. eigenvalues --   -0.54096  -0.53853  -0.53280  -0.53165  -0.53056
 Alpha  occ. eigenvalues --   -0.52820  -0.52765  -0.52427  -0.51795  -0.51716
 Alpha  occ. eigenvalues --   -0.51273  -0.51013  -0.50965  -0.50066  -0.49938
 Alpha  occ. eigenvalues --   -0.49820  -0.49293  -0.48847  -0.48497  -0.48378
 Alpha  occ. eigenvalues --   -0.48245  -0.48058  -0.47855  -0.47380  -0.47303
 Alpha  occ. eigenvalues --   -0.47037  -0.46895  -0.46691  -0.46584  -0.45999
 Alpha  occ. eigenvalues --   -0.45845  -0.45733  -0.45316  -0.45174  -0.45039
 Alpha  occ. eigenvalues --   -0.45010  -0.44560  -0.44317  -0.44237  -0.44122
 Alpha  occ. eigenvalues --   -0.43902  -0.43731  -0.43581  -0.43529  -0.43315
 Alpha  occ. eigenvalues --   -0.43039  -0.42814  -0.42779  -0.42729  -0.42598
 Alpha  occ. eigenvalues --   -0.42381  -0.42209  -0.41974  -0.41889  -0.41702
 Alpha  occ. eigenvalues --   -0.41592  -0.41418  -0.41356  -0.41236  -0.41072
 Alpha  occ. eigenvalues --   -0.40999  -0.40825  -0.40736  -0.40639  -0.40572
 Alpha  occ. eigenvalues --   -0.40256  -0.40052  -0.39914  -0.39682  -0.39633
 Alpha  occ. eigenvalues --   -0.39586  -0.39387  -0.39329  -0.39142  -0.39088
 Alpha  occ. eigenvalues --   -0.38925  -0.38769  -0.38745  -0.38584  -0.38457
 Alpha  occ. eigenvalues --   -0.38352  -0.38263  -0.38045  -0.37892  -0.37737
 Alpha  occ. eigenvalues --   -0.37506  -0.37485  -0.37299  -0.37202  -0.37094
 Alpha  occ. eigenvalues --   -0.36720  -0.36581  -0.36514  -0.36454  -0.36261
 Alpha  occ. eigenvalues --   -0.36061  -0.36010  -0.35531  -0.35297  -0.34991
 Alpha  occ. eigenvalues --   -0.34818  -0.34694  -0.34639  -0.34395  -0.34376
 Alpha  occ. eigenvalues --   -0.34196  -0.34001  -0.33833  -0.33589  -0.33363
 Alpha  occ. eigenvalues --   -0.33282  -0.33079  -0.33046  -0.32899  -0.32680
 Alpha  occ. eigenvalues --   -0.32530  -0.32483  -0.32069  -0.32037  -0.31834
 Alpha  occ. eigenvalues --   -0.31594  -0.31507  -0.30926  -0.30624  -0.30419
 Alpha  occ. eigenvalues --   -0.29717  -0.29293  -0.28369  -0.28015  -0.27334
 Alpha  occ. eigenvalues --   -0.27183  -0.27043  -0.26897  -0.26326  -0.25713
 Alpha  occ. eigenvalues --   -0.25028  -0.24894  -0.24722  -0.24479  -0.24146
 Alpha  occ. eigenvalues --   -0.23797  -0.23722  -0.23561  -0.23349  -0.23118
 Alpha  occ. eigenvalues --   -0.23076  -0.22887  -0.22653  -0.22426  -0.22060
 Alpha  occ. eigenvalues --   -0.21811  -0.21488  -0.21396  -0.21146  -0.20605
 Alpha  occ. eigenvalues --   -0.20482  -0.20325  -0.19990  -0.19930  -0.19422
 Alpha  occ. eigenvalues --   -0.19233  -0.19049  -0.18469
 Alpha virt. eigenvalues --   -0.10884  -0.05192  -0.04589  -0.03192  -0.02410
 Alpha virt. eigenvalues --   -0.01240  -0.00893  -0.00486   0.00011   0.00808
 Alpha virt. eigenvalues --    0.00959   0.01370   0.01582   0.01677   0.01998

 Mulliken charges:
               1
     1  C    0.060854
     2  C    0.013730
     3  O   -0.297952
     4  H    0.038016
     5  H    0.043306
     6  H   -0.003621
     7  N   -0.093399
     8  C    0.115946
     9  C    0.067189
    10  O   -0.294607
    11  C    0.085212
    12  C    0.097064
    13  O   -0.429120
    14  O   -0.410775
    15  H    0.107149
    16  H    0.008952
    17  H    0.022718
    18  H    0.001920
    19  N   -0.103246
    20  C    0.167038
    21  C    0.006549
    22  O   -0.287323
    23  C    0.001382
    24  C    0.025061
    25  C   -0.037632
    26  C    0.044822
    27  N    0.073703
    28  H    0.127793
    29  H   -0.010291
    30  H    0.029859
    31  H    0.029886
    32  H   -0.033044
    33  H    0.042995
    34  H    0.053530
    35  H    0.008729
    36  H    0.076298
    37  H    0.059829
    38  H    0.195263
    39  H    0.190274
    40  H    0.191344
    41  N   -0.145599
    42  C    0.129143
    43  C    0.061938
    44  O   -0.289024
    45  C    0.147032
    46  C    0.061197
    47  O   -0.444098
    48  O   -0.401144
    49  H    0.156721
    50  H    0.012281
    51  H   -0.036528
    52  H    0.015673
    53  N   -0.134389
    54  C    0.231399
    55  C    0.027299
    56  O   -0.278017
    57  H    0.153261
    58  H    0.011893
    59  H    0.016615
    60  N   -0.157169
    61  C    0.159861
    62  C    0.026573
    63  O   -0.309121
    64  C    0.104340
    65  C    0.075031
    66  N   -0.040611
    67  O   -0.344754
    68  H    0.141945
    69  H    0.029905
    70  H    0.065415
    71  H    0.011342
    72  H    0.123887
    73  H    0.099234
    74  N   -0.137106
    75  C    0.231608
    76  C    0.033798
    77  O   -0.272823
    78  H    0.128596
    79  H    0.024438
    80  H    0.017262
    81  N   -0.149549
    82  C    0.122578
    83  C    0.116998
    84  O   -0.368206
    85  C    0.153356
    86  C    0.022064
    87  C   -0.003574
    88  C   -0.030389
    89  C    0.000611
    90  C   -0.035193
    91  C    0.195118
    92  O   -0.234956
    93  H    0.154994
    94  H   -0.017847
    95  H   -0.025287
    96  H   -0.032011
    97  H   -0.021232
    98  H   -0.053574
    99  H   -0.023983
   100  H   -0.055042
   101  H    0.177291
   102  N   -0.111895
   103  C    0.157360
   104  C    0.076598
   105  O   -0.294342
   106  C   -0.105574
   107  C   -0.022217
   108  C    0.082566
   109  C    0.056928
   110  H    0.129829
   111  H    0.018946
   112  H   -0.028008
   113  H   -0.006933
   114  H    0.010135
   115  H    0.019704
   116  H    0.026763
   117  H   -0.006549
   118  H    0.009711
   119  H   -0.001880
   120  H    0.028444
   121  N   -0.134551
   122  C    0.109750
   123  C    0.080769
   124  O   -0.266981
   125  C    0.203659
   126  O   -0.258880
   127  H    0.145977
   128  H    0.022523
   129  H    0.039453
   130  H   -0.028726
   131  H    0.173817
   132  N   -0.124621
   133  C    0.035526
   134  C    0.076443
   135  O   -0.258653
   136  C    0.062761
   137  H    0.120657
   138  H    0.032492
   139  H    0.058442
   140  H    0.020099
   141  H    0.002893
   142  N   -0.172145
   143  C    0.103967
   144  C    0.073446
   145  O   -0.284969
   146  C    0.037231
   147  H    0.077617
   148  H    0.032749
   149  H    0.014204
   150  H   -0.009669
   151  H    0.030573
   152  N   -0.171259
   153  C    0.137109
   154  C    0.071522
   155  O   -0.287767
   156  C   -0.012494
   157  C    0.114365
   158  C    0.152395
   159  O   -0.408861
   160  O   -0.442844
   161  H    0.143067
   162  H    0.008517
   163  H    0.054503
   164  H   -0.022783
   165  H   -0.031313
   166  H   -0.041475
   167  N   -0.162162
   168  C    0.132437
   169  H    0.017689
   170  H    0.035447
   171  H    0.016097
   172  H    0.135375
   173  Ca   1.242910
   174  O   -0.251861
   175  H    0.177735
   176  H    0.153342
 Sum of Mulliken charges =  -0.00000

 Dipole moment (field-independent basis, Debye):
    X=             31.1825    Y=              4.5351    Z=            -21.3748  Tot=             38.0762
 Quadrupole moment (field-independent basis, Debye-Ang):
   XX=           -631.4454   YY=           -398.5389   ZZ=           -485.9948
   XY=            163.1422   XZ=            -85.0075   YZ=            -31.4238

 ESP charges:
               1
     1  C   -0.465729
     2  C    0.794589
     3  O   -0.623529
     4  H    0.134279
     5  H    0.134719
     6  H    0.088888
     7  N   -0.615736
     8  C    0.078024
     9  C    0.544309
    10  O   -0.566187
    11  C   -0.313613
    12  C    0.446826
    13  O   -0.123295
    14  O   -0.554216
    15  H    0.330472
    16  H    0.070797
    17  H    0.119682
    18  H    0.093751
    19  N    0.009600
    20  C   -0.469355
    21  C    0.600282
    22  O   -0.592070
    23  C    0.152450
    24  C   -0.100234
    25  C   -0.107932
    26  C    0.227262
    27  N   -0.516962
    28  H    0.042269
    29  H    0.157618
    30  H    0.010195
    31  H    0.064030
    32  H    0.009727
    33  H    0.068652
    34  H    0.079112
    35  H    0.028250
    36  H    0.057665
    37  H    0.024693
    38  H    0.367070
    39  H    0.363499
    40  H    0.362455
    41  N   -0.221146
    42  C    0.000988
    43  C    0.438056
    44  O   -0.525587
    45  C   -0.335799
    46  C    0.742802
    47  O   -0.751446
    48  O   -0.710874
    49  H    0.199217
    50  H    0.116438
    51  H    0.066949
    52  H    0.118129
    53  N   -0.106779
    54  C   -0.143450
    55  C    0.438223
    56  O   -0.533178
    57  H   -0.031515
    58  H    0.105880
    59  H    0.088670
    60  N   -0.066518
    61  C   -0.185540
    62  C    0.410781
    63  O   -0.512584
    64  C   -0.098124
    65  C    0.806473
    66  N   -1.010727
    67  O   -0.581377
    68  H    0.052758
    69  H    0.151058
    70  H    0.098764
    71  H    0.036597
    72  H    0.394413
    73  H    0.449370
    74  N   -0.077341
    75  C   -0.327427
    76  C    0.657361
    77  O   -0.508070
    78  H    0.132280
    79  H    0.140340
    80  H    0.126739
    81  N   -0.685912
    82  C    0.537989
    83  C    0.652014
    84  O   -0.625589
    85  C   -0.372761
    86  C    0.099995
    87  C   -0.183696
    88  C   -0.066578
    89  C   -0.241737
    90  C   -0.380070
    91  C    0.397770
    92  O   -0.571506
    93  H    0.262020
    94  H   -0.067350
    95  H    0.060972
    96  H    0.113641
    97  H    0.189388
    98  H    0.094102
    99  H    0.157412
   100  H    0.163613
   101  H    0.415180
   102  N   -0.782592
   103  C    0.068633
   104  C    0.742194
   105  O   -0.578093
   106  C   -0.037848
   107  C    0.309418
   108  C   -0.265798
   109  C   -0.380499
   110  H    0.380724
   111  H    0.109987
   112  H    0.037603
   113  H   -0.037353
   114  H   -0.046672
   115  H    0.077863
   116  H    0.078820
   117  H    0.078955
   118  H    0.081288
   119  H    0.075789
   120  H    0.100066
   121  N   -0.490289
   122  C   -0.000854
   123  C    0.617269
   124  O   -0.478648
   125  C    0.022456
   126  O   -0.519971
   127  H    0.335310
   128  H    0.078728
   129  H    0.091717
   130  H   -0.002499
   131  H    0.400212
   132  N   -0.676058
   133  C    0.387043
   134  C    0.358422
   135  O   -0.509538
   136  C   -0.317848
   137  H    0.354023
   138  H    0.045632
   139  H    0.109577
   140  H    0.084253
   141  H    0.064511
   142  N   -0.348651
   143  C    0.219743
   144  C    0.246936
   145  O   -0.519794
   146  C   -0.351153
   147  H    0.214196
   148  H    0.084493
   149  H    0.063286
   150  H    0.086112
   151  H    0.114042
   152  N    0.203110
   153  C   -0.543786
   154  C    0.608048
   155  O   -0.563424
   156  C    0.438183
   157  C   -0.115049
   158  C    0.694217
   159  O   -0.722449
   160  O   -0.689524
   161  H    0.105092
   162  H    0.175467
   163  H    0.010285
   164  H   -0.209619
   165  H   -0.028175
   166  H   -0.012430
   167  N   -0.219300
   168  C   -0.138914
   169  H    0.072282
   170  H    0.096998
   171  H    0.057006
   172  H    0.141534
   173  Ca   1.438481
   174  O   -0.727525
   175  H    0.398592
   176  H    0.349756
 Sum of ESP charges =  -0.00000

 Normal termination of Gaussian 16 at Wed Sep 18 17:59:20 2019.
