 Gaussian 16, Revision A.03,
 Gaussian 16:  ES64L-G16RevA.03 25-Dec-2016

 ----------------------------------------------------------------------
 #b3lyp/svp scf=(tight,noincore) Test #IOP(5/87=12) Density=Current Pop
 =(MK,readradii) iop(6/33=2) iop(6/42=6)
 ----------------------------------------------------------------------

 ------------------
 holoCaM_loop3_54.0
 ------------------
 Symbolic Z-matrix:
 Charge =  0 Multiplicity = 1

                         Standard orientation:
 ---------------------------------------------------------------------
 Center     Atomic      Atomic             Coordinates (Angstroms)
 Number     Number       Type             X           Y           Z
 ---------------------------------------------------------------------
      1          6           0        2.084383    1.605933    5.780820
      2          6           0        1.476744    1.697250    4.392462
      3          8           0        2.280192    1.611659    3.465885
      4          1           0        2.746155    2.456431    5.943542
      5          1           0        1.290132    1.616187    6.527518
      6          1           0        2.654559    0.681275    5.868119
      7          7           0        0.154506    1.721426    4.174975
      8          6           0       -0.430524    1.878181    2.857376
      9          6           0       -0.363768    3.317474    2.360003
     10          8           0       -0.906479    4.225207    2.979990
     11          6           0       -1.858523    1.347414    2.871737
     12          6           0       -2.687365    1.356983    1.590086
     13          8           0       -2.209972    1.800008    0.521899
     14          8           0       -3.842089    0.882237    1.595346
     15          1           0       -0.487296    1.570898    4.941808
     16          1           0        0.239687    1.315113    2.210019
     17          1           0       -2.462638    1.927264    3.574318
     18          1           0       -1.835720    0.298774    3.155875
     19          7           0        0.292495    3.485478    1.212008
     20          6           0        0.820131    4.768954    0.793450
     21          6           0       -0.168503    5.625645    0.016029
     22          8           0       -0.182608    6.853479    0.096191
     23          6           0        2.135776    4.479059    0.067406
     24          6           0        2.962293    5.699820   -0.322225
     25          6           0        4.196581    5.387092   -1.159443
     26          6           0        4.938108    6.691465   -1.443785
     27          7           0        6.125368    6.544305   -2.300381
     28          1           0        0.616694    2.653783    0.739907
     29          1           0        0.980713    5.292363    1.727878
     30          1           0        1.934234    3.846631   -0.801165
     31          1           0        2.750801    3.794102    0.638612
     32          1           0        3.335743    6.236083    0.556329
     33          1           0        2.321450    6.336780   -0.931242
     34          1           0        3.927118    5.067044   -2.166597
     35          1           0        4.724372    4.570207   -0.657412
     36          1           0        5.202704    6.943181   -0.410040
     37          1           0        4.207454    7.406211   -1.820459
     38          1           0        6.685466    5.719751   -2.128043
     39          1           0        5.817694    6.399504   -3.255300
     40          1           0        6.748401    7.341245   -2.266964
     41          7           0       -1.003735    4.874261   -0.702587
     42          6           0       -2.111121    5.302205   -1.531718
     43          6           0       -3.507743    5.109830   -0.931604
     44          8           0       -4.395927    5.895032   -1.242549
     45          6           0       -1.954293    4.716625   -2.921323
     46          6           0       -1.805548    3.206950   -2.836145
     47          8           0       -2.842961    2.511515   -2.699604
     48          8           0       -0.690789    2.640554   -2.846583
     49          1           0       -0.758999    3.898875   -0.599501
     50          1           0       -1.983626    6.377268   -1.645233
     51          1           0       -1.054268    5.198400   -3.301121
     52          1           0       -2.726845    5.049568   -3.609881
     53          7           0       -3.712610    4.066360   -0.123024
     54          6           0       -4.879670    3.959192    0.730549
     55          6           0       -5.903702    2.935477    0.259098
     56          8           0       -7.068836    3.092746    0.611703
     57          1           0       -3.044068    3.371404    0.191597
     58          1           0       -5.287273    4.963201    0.802834
     59          1           0       -4.464124    3.648634    1.682061
     60          7           0       -5.605627    2.071964   -0.720747
     61          6           0       -6.595142    1.160895   -1.242391
     62          6           0       -6.908569   -0.053892   -0.374950
     63          8           0       -7.686298   -0.972084   -0.635451
     64          6           0       -6.074854    0.727819   -2.613576
     65          6           0       -4.902519   -0.237406   -2.559048
     66          7           0       -4.907862   -1.206008   -3.473368
     67          8           0       -3.960355   -0.099618   -1.769275
     68          1           0       -4.654443    1.978555   -1.061225
     69          1           0       -7.581292    1.604026   -1.348425
     70          1           0       -5.727800    1.651595   -3.086960
     71          1           0       -6.810542    0.149858   -3.165411
     72          1           0       -5.595127   -1.362608   -4.185859
     73          1           0       -4.208622   -1.931898   -3.394333
     74          7           0       -6.289869   -0.034537    0.807182
     75          6           0       -6.392146   -1.026250    1.850276
     76          6           0       -5.382583   -2.163619    1.737257
     77          8           0       -5.717091   -3.270384    2.175180
     78          1           0       -5.487037    0.581649    0.841494
     79          1           0       -7.411927   -1.394401    1.860820
     80          1           0       -6.246801   -0.477638    2.778985
     81          7           0       -4.197430   -1.916328    1.190667
     82          6           0       -3.219200   -2.907112    0.775439
     83          6           0       -1.858181   -2.213652    0.817156
     84          8           0       -1.662733   -1.047819    0.467965
     85          6           0       -3.508566   -3.493309   -0.599639
     86          6           0       -4.755602   -4.335048   -0.636746
     87          6           0       -5.867185   -3.899172   -1.367291
     88          6           0       -4.889786   -5.553896    0.049988
     89          6           0       -7.082785   -4.601822   -1.417292
     90          6           0       -6.060039   -6.327904    0.054317
     91          6           0       -7.119023   -5.817777   -0.716477
     92          8           0       -8.255523   -6.565869   -0.582961
     93          1           0       -4.006801   -0.967557    0.876991
     94          1           0       -3.256547   -3.655135    1.565355
     95          1           0       -2.672219   -4.169343   -0.788589
     96          1           0       -3.565369   -2.635853   -1.268475
     97          1           0       -5.734692   -3.072556   -2.046888
     98          1           0       -4.154256   -5.810557    0.788650
     99          1           0       -7.836374   -4.275513   -2.115666
    100          1           0       -6.236972   -7.231384    0.618515
    101          1           0       -8.259068   -7.340015   -0.015700
    102          7           0       -0.882503   -3.060159    1.114443
    103          6           0        0.542147   -2.796161    1.192402
    104          6           0        1.300114   -3.825000    0.357012
    105          8           0        1.085749   -5.036237    0.364179
    106          6           0        1.043973   -2.774530    2.626000
    107          6           0        0.236217   -1.928361    3.610900
    108          6           0        2.480402   -2.261091    2.670194
    109          6           0        0.249670   -2.435097    5.048967
    110          1           0       -1.134668   -4.037891    1.237135
    111          1           0        0.675204   -1.871031    0.630681
    112          1           0        1.019409   -3.833337    2.886624
    113          1           0       -0.821364   -1.966317    3.376206
    114          1           0        0.527602   -0.873878    3.512104
    115          1           0        2.511644   -1.219161    2.352381
    116          1           0        2.852951   -2.307003    3.695962
    117          1           0        3.117824   -2.968509    2.138543
    118          1           0        1.232290   -2.371563    5.508664
    119          1           0       -0.421129   -1.790561    5.619757
    120          1           0        0.022607   -3.503600    5.037010
    121          7           0        2.301190   -3.450065   -0.448079
    122          6           0        3.335298   -4.193588   -1.146573
    123          6           0        4.717647   -3.865354   -0.602905
    124          8           0        4.859240   -3.155328    0.382648
    125          6           0        3.215978   -4.122852   -2.667677
    126          8           0        3.689545   -2.863920   -3.102792
    127          1           0        2.482461   -2.463688   -0.448708
    128          1           0        3.107012   -5.258351   -1.051364
    129          1           0        2.187813   -4.314480   -2.975989
    130          1           0        3.895173   -4.879940   -3.074878
    131          1           0        3.877266   -3.051893   -4.029090
    132          7           0        5.697991   -4.552909   -1.208786
    133          6           0        7.067068   -4.455662   -0.738391
    134          6           0        7.628527   -3.052512   -0.877067
    135          8           0        8.279179   -2.550135    0.040358
    136          6           0        7.945200   -5.443176   -1.502001
    137          1           0        5.502479   -5.035988   -2.064771
    138          1           0        7.152058   -4.618109    0.330154
    139          1           0        8.524301   -4.980155   -2.315914
    140          1           0        8.589664   -6.039317   -0.862640
    141          1           0        7.240210   -6.148762   -1.928658
    142          7           0        7.282073   -2.390184   -1.983770
    143          6           0        7.670179   -1.021141   -2.230544
    144          6           0        7.085272   -0.071423   -1.190728
    145          8           0        7.815291    0.872104   -0.866335
    146          6           0        7.268247   -0.629642   -3.648493
    147          1           0        6.949184   -2.908405   -2.785974
    148          1           0        8.749592   -0.875069   -2.311974
    149          1           0        6.190844   -0.661471   -3.803378
    150          1           0        7.641671    0.376673   -3.810925
    151          1           0        7.695999   -1.334635   -4.362716
    152          7           0        5.933462   -0.351056   -0.578243
    153          6           0        5.349649    0.585920    0.350055
    154          6           0        5.949058    0.403456    1.743366
    155          8           0        6.040401    1.329209    2.536989
    156          6           0        3.842207    0.347332    0.359845
    157          6           0        3.164978    0.812521   -0.926647
    158          6           0        1.669282    0.516914   -0.937128
    159          8           0        1.155564   -0.411730   -1.597366
    160          8           0        0.929152    1.342091   -0.347306
    161          1           0        5.491625   -1.260982   -0.613115
    162          1           0        5.526182    1.609658    0.019605
    163          1           0        3.384383    0.885780    1.189646
    164          1           0        3.704072   -0.716173    0.587610
    165          1           0        3.589297    0.202190   -1.721662
    166          1           0        3.439880    1.864693   -0.974228
    167          7           0        6.436702   -0.795682    2.049257
    168          6           0        7.154220   -1.016880    3.289435
    169          1           0        7.945237   -0.273205    3.388961
    170          1           0        6.464822   -0.927648    4.129285
    171          1           0        7.593425   -2.014246    3.282877
    172          1           0        6.323289   -1.508376    1.344059
    173         20           0       -1.334400    0.531309   -1.543913
    174          8           0       -1.339509   -1.878617   -2.532968
    175          1           0       -1.675459   -1.819982   -3.425324
    176          1           0       -0.908135   -2.736171   -2.495318
 ---------------------------------------------------------------------

 SCF Done:  E(RB3LYP) =  -5333.56855331     A.U. after   18 cycles

 The electronic state is 1-A.
 Alpha  occ. eigenvalues -- -145.34972 -19.19289 -19.18237 -19.15534 -19.12747
 Alpha  occ. eigenvalues --  -19.12673 -19.11515 -19.11431 -19.10735 -19.10079
 Alpha  occ. eigenvalues --  -19.07259 -19.06605 -19.06556 -19.06306 -19.06016
 Alpha  occ. eigenvalues --  -19.05445 -19.04763 -19.04490 -19.04334 -19.04300
 Alpha  occ. eigenvalues --  -19.03925 -19.03514 -19.03503 -19.03241 -15.40729
 Alpha  occ. eigenvalues --  -14.58904 -14.40720 -14.38980 -14.37182 -14.36747
 Alpha  occ. eigenvalues --  -14.36640 -14.35954 -14.33372 -14.32480 -14.31107
 Alpha  occ. eigenvalues --  -14.30634 -14.29853 -14.29769 -14.28136 -14.28080
 Alpha  occ. eigenvalues --  -12.54342 -12.54304 -12.54289 -10.34168 -10.33494
 Alpha  occ. eigenvalues --  -10.31084 -10.30054 -10.29789 -10.29649 -10.29058
 Alpha  occ. eigenvalues --  -10.28679 -10.26982 -10.26973 -10.26199 -10.26101
 Alpha  occ. eigenvalues --  -10.25959 -10.25436 -10.25004 -10.24369 -10.24036
 Alpha  occ. eigenvalues --  -10.23840 -10.23541 -10.23531 -10.23490 -10.23417
 Alpha  occ. eigenvalues --  -10.22746 -10.22614 -10.22339 -10.22219 -10.22192
 Alpha  occ. eigenvalues --  -10.22185 -10.22004 -10.21996 -10.20165 -10.19979
 Alpha  occ. eigenvalues --  -10.19845 -10.19322 -10.18979 -10.18917 -10.18891
 Alpha  occ. eigenvalues --  -10.18555 -10.18375 -10.17876 -10.17583 -10.17339
 Alpha  occ. eigenvalues --  -10.17090 -10.17046 -10.17032 -10.16895 -10.16799
 Alpha  occ. eigenvalues --  -10.16643 -10.16570 -10.16422 -10.16351 -10.16275
 Alpha  occ. eigenvalues --  -10.15674 -10.15080  -1.77694  -1.13733  -1.08533
 Alpha  occ. eigenvalues --   -1.06639  -1.06131  -1.05569  -1.05466  -1.05286
 Alpha  occ. eigenvalues --   -1.04588  -1.04460  -1.03711  -1.03659  -1.02880
 Alpha  occ. eigenvalues --   -1.01647  -1.01536  -1.00012  -0.99817  -0.99365
 Alpha  occ. eigenvalues --   -0.99219  -0.98747  -0.98067  -0.97867  -0.97684
 Alpha  occ. eigenvalues --   -0.97109  -0.96582  -0.96137  -0.95587  -0.93840
 Alpha  occ. eigenvalues --   -0.93158  -0.92969  -0.91967  -0.91384  -0.89600
 Alpha  occ. eigenvalues --   -0.89424  -0.88993  -0.88519  -0.88490  -0.88421
 Alpha  occ. eigenvalues --   -0.88249  -0.87538  -0.87433  -0.85476  -0.84897
 Alpha  occ. eigenvalues --   -0.83564  -0.82468  -0.81768  -0.80321  -0.79940
 Alpha  occ. eigenvalues --   -0.78977  -0.78488  -0.77151  -0.75920  -0.75684
 Alpha  occ. eigenvalues --   -0.74629  -0.74448  -0.73948  -0.72531  -0.72192
 Alpha  occ. eigenvalues --   -0.71940  -0.71567  -0.71380  -0.70630  -0.70375
 Alpha  occ. eigenvalues --   -0.70020  -0.69061  -0.68558  -0.67992  -0.67148
 Alpha  occ. eigenvalues --   -0.66783  -0.66569  -0.65304  -0.64789  -0.63553
 Alpha  occ. eigenvalues --   -0.63219  -0.63197  -0.63019  -0.62341  -0.61861
 Alpha  occ. eigenvalues --   -0.61325  -0.60749  -0.60318  -0.60123  -0.59870
 Alpha  occ. eigenvalues --   -0.59815  -0.59675  -0.58867  -0.58717  -0.57633
 Alpha  occ. eigenvalues --   -0.57598  -0.57416  -0.56406  -0.56194  -0.55844
 Alpha  occ. eigenvalues --   -0.55620  -0.55461  -0.55019  -0.54868  -0.54655
 Alpha  occ. eigenvalues --   -0.54412  -0.54274  -0.53929  -0.53350  -0.52972
 Alpha  occ. eigenvalues --   -0.52458  -0.52221  -0.52186  -0.51804  -0.51274
 Alpha  occ. eigenvalues --   -0.50688  -0.50626  -0.50239  -0.49484  -0.49411
 Alpha  occ. eigenvalues --   -0.49127  -0.48901  -0.48683  -0.48509  -0.48283
 Alpha  occ. eigenvalues --   -0.47999  -0.47830  -0.47632  -0.47311  -0.47195
 Alpha  occ. eigenvalues --   -0.47065  -0.46863  -0.46687  -0.46501  -0.46018
 Alpha  occ. eigenvalues --   -0.45762  -0.45598  -0.45478  -0.45184  -0.45136
 Alpha  occ. eigenvalues --   -0.44945  -0.44763  -0.44611  -0.44428  -0.44246
 Alpha  occ. eigenvalues --   -0.44183  -0.44059  -0.43949  -0.43708  -0.43363
 Alpha  occ. eigenvalues --   -0.43273  -0.43097  -0.42955  -0.42698  -0.42636
 Alpha  occ. eigenvalues --   -0.42458  -0.42214  -0.42046  -0.41879  -0.41800
 Alpha  occ. eigenvalues --   -0.41660  -0.41406  -0.41317  -0.41255  -0.41097
 Alpha  occ. eigenvalues --   -0.40978  -0.40926  -0.40624  -0.40446  -0.40411
 Alpha  occ. eigenvalues --   -0.40305  -0.40178  -0.40004  -0.39850  -0.39783
 Alpha  occ. eigenvalues --   -0.39352  -0.39259  -0.39053  -0.39050  -0.38983
 Alpha  occ. eigenvalues --   -0.38793  -0.38640  -0.38509  -0.38388  -0.38327
 Alpha  occ. eigenvalues --   -0.38010  -0.37933  -0.37828  -0.37711  -0.37570
 Alpha  occ. eigenvalues --   -0.37452  -0.37357  -0.37142  -0.36982  -0.36935
 Alpha  occ. eigenvalues --   -0.36633  -0.36328  -0.36311  -0.36198  -0.35977
 Alpha  occ. eigenvalues --   -0.35918  -0.35703  -0.35574  -0.35443  -0.35106
 Alpha  occ. eigenvalues --   -0.34981  -0.34528  -0.34430  -0.34276  -0.34048
 Alpha  occ. eigenvalues --   -0.34008  -0.33778  -0.33502  -0.33372  -0.33310
 Alpha  occ. eigenvalues --   -0.33084  -0.32940  -0.32904  -0.32730  -0.32418
 Alpha  occ. eigenvalues --   -0.32307  -0.32097  -0.31548  -0.31373  -0.31350
 Alpha  occ. eigenvalues --   -0.31140  -0.30905  -0.30749  -0.30583  -0.30501
 Alpha  occ. eigenvalues --   -0.30022  -0.30014  -0.29139  -0.28153  -0.27890
 Alpha  occ. eigenvalues --   -0.27713  -0.27521  -0.27334  -0.26818  -0.26255
 Alpha  occ. eigenvalues --   -0.25585  -0.25481  -0.24894  -0.24651  -0.23991
 Alpha  occ. eigenvalues --   -0.23600  -0.23362  -0.23308  -0.23020  -0.22995
 Alpha  occ. eigenvalues --   -0.22813  -0.22671  -0.22465  -0.22244  -0.22048
 Alpha  occ. eigenvalues --   -0.21846  -0.21609  -0.21399  -0.21222  -0.20642
 Alpha  occ. eigenvalues --   -0.20287  -0.19760  -0.19462  -0.19211  -0.18766
 Alpha  occ. eigenvalues --   -0.18726  -0.18446  -0.17714
 Alpha virt. eigenvalues --   -0.10529  -0.04634  -0.03989  -0.03681  -0.03196
 Alpha virt. eigenvalues --   -0.02413  -0.01385  -0.00604  -0.00362   0.00231
 Alpha virt. eigenvalues --    0.00286   0.00750   0.01118   0.01309   0.01687

 Mulliken charges:
               1
     1  C    0.089213
     2  C    0.027636
     3  O   -0.299033
     4  H    0.042092
     5  H   -0.016828
     6  H    0.036616
     7  N   -0.131270
     8  C    0.117736
     9  C    0.064506
    10  O   -0.278534
    11  C    0.063931
    12  C    0.171832
    13  O   -0.476013
    14  O   -0.382870
    15  H    0.116830
    16  H   -0.005323
    17  H    0.022253
    18  H    0.001268
    19  N   -0.162233
    20  C    0.138597
    21  C    0.047006
    22  O   -0.288940
    23  C    0.016114
    24  C    0.012343
    25  C   -0.063637
    26  C    0.008969
    27  N    0.093736
    28  H    0.162371
    29  H   -0.000941
    30  H    0.021123
    31  H    0.022777
    32  H    0.015135
    33  H    0.025612
    34  H    0.005579
    35  H    0.057953
    36  H    0.077778
    37  H    0.088022
    38  H    0.194390
    39  H    0.189765
    40  H    0.196599
    41  N   -0.132898
    42  C    0.082431
    43  C    0.109101
    44  O   -0.284602
    45  C    0.190519
    46  C    0.050811
    47  O   -0.402748
    48  O   -0.434979
    49  H    0.144242
    50  H    0.003822
    51  H   -0.040218
    52  H    0.003173
    53  N   -0.188980
    54  C    0.229217
    55  C    0.045350
    56  O   -0.294233
    57  H    0.139762
    58  H    0.027302
    59  H    0.019685
    60  N   -0.177133
    61  C    0.146175
    62  C    0.016700
    63  O   -0.292833
    64  C    0.092880
    65  C    0.071548
    66  N   -0.039283
    67  O   -0.330017
    68  H    0.163908
    69  H    0.029718
    70  H    0.066884
    71  H   -0.006754
    72  H    0.132288
    73  H    0.106241
    74  N   -0.175452
    75  C    0.255225
    76  C    0.029236
    77  O   -0.305962
    78  H    0.163712
    79  H    0.019319
    80  H    0.018369
    81  N   -0.155205
    82  C    0.063716
    83  C    0.118714
    84  O   -0.350135
    85  C    0.214898
    86  C    0.020923
    87  C   -0.011075
    88  C   -0.001837
    89  C    0.017038
    90  C   -0.011866
    91  C    0.168807
    92  O   -0.227708
    93  H    0.159649
    94  H   -0.002289
    95  H   -0.039836
    96  H   -0.025547
    97  H   -0.093863
    98  H   -0.044214
    99  H   -0.028692
   100  H   -0.050146
   101  H    0.171251
   102  N   -0.124097
   103  C    0.167775
   104  C    0.024019
   105  O   -0.295353
   106  C   -0.072753
   107  C   -0.008092
   108  C    0.051366
   109  C    0.040378
   110  H    0.132280
   111  H    0.012955
   112  H   -0.028608
   113  H    0.006489
   114  H    0.029598
   115  H    0.043789
   116  H   -0.006139
   117  H    0.015001
   118  H   -0.004018
   119  H    0.013674
   120  H    0.005906
   121  N   -0.106700
   122  C    0.090877
   123  C    0.127663
   124  O   -0.254104
   125  C    0.182508
   126  O   -0.280067
   127  H    0.127165
   128  H    0.034750
   129  H    0.021091
   130  H   -0.024414
   131  H    0.161794
   132  N   -0.130114
   133  C    0.072352
   134  C    0.037742
   135  O   -0.245133
   136  C    0.062867
   137  H    0.117075
   138  H    0.029119
   139  H    0.028647
   140  H    0.048505
   141  H   -0.002605
   142  N   -0.123731
   143  C    0.118306
   144  C    0.071098
   145  O   -0.289413
   146  C    0.013889
   147  H    0.093889
   148  H    0.012164
   149  H    0.015596
   150  H    0.025349
   151  H    0.011343
   152  N   -0.161591
   153  C    0.135758
   154  C    0.069231
   155  O   -0.279239
   156  C   -0.107224
   157  C    0.159902
   158  C    0.163524
   159  O   -0.424911
   160  O   -0.419277
   161  H    0.144526
   162  H   -0.028673
   163  H    0.074435
   164  H   -0.004491
   165  H   -0.027161
   166  H   -0.038106
   167  N   -0.160062
   168  C    0.161650
   169  H    0.022372
   170  H    0.019598
   171  H    0.006597
   172  H    0.121081
   173  Ca   1.262638
   174  O   -0.267348
   175  H    0.170125
   176  H    0.188697
 Sum of Mulliken charges =  -0.00000

 Dipole moment (field-independent basis, Debye):
    X=             38.0858    Y=             -3.8410    Z=            -21.8241  Tot=             44.0633
 Quadrupole moment (field-independent basis, Debye-Ang):
   XX=           -574.6336   YY=           -456.1228   ZZ=           -485.6690
   XY=            138.7968   XZ=            -81.8738   YZ=            -27.3496

 ESP charges:
               1
     1  C   -0.417498
     2  C    0.763509
     3  O   -0.590248
     4  H    0.134838
     5  H    0.067703
     6  H    0.127543
     7  N   -0.733063
     8  C    0.272177
     9  C    0.609950
    10  O   -0.569426
    11  C   -0.570014
    12  C    0.950615
    13  O   -0.564010
    14  O   -0.730292
    15  H    0.379499
    16  H   -0.051160
    17  H    0.141815
    18  H    0.124176
    19  N   -0.137657
    20  C   -0.639247
    21  C    0.806768
    22  O   -0.595213
    23  C    0.386041
    24  C   -0.378805
    25  C    0.327456
    26  C   -0.030551
    27  N   -0.327638
    28  H    0.134212
    29  H    0.198395
    30  H   -0.006171
    31  H    0.013986
    32  H    0.093757
    33  H    0.089147
    34  H   -0.062560
    35  H   -0.054404
    36  H    0.069057
    37  H    0.094931
    38  H    0.312276
    39  H    0.319672
    40  H    0.328733
    41  N   -0.558411
    42  C    0.244317
    43  C    0.377444
    44  O   -0.547984
    45  C   -0.278450
    46  C    0.757318
    47  O   -0.732473
    48  O   -0.762465
    49  H    0.254205
    50  H    0.040750
    51  H    0.055222
    52  H    0.095055
    53  N    0.023120
    54  C   -0.337223
    55  C    0.652395
    56  O   -0.599421
    57  H   -0.005573
    58  H    0.155207
    59  H    0.122049
    60  N   -0.263458
    61  C    0.034892
    62  C    0.326103
    63  O   -0.503771
    64  C   -0.359446
    65  C    0.780301
    66  N   -0.833024
    67  O   -0.578123
    68  H    0.112810
    69  H    0.121170
    70  H    0.154003
    71  H    0.092455
    72  H    0.391832
    73  H    0.348216
    74  N    0.014173
    75  C   -0.466870
    76  C    0.832708
    77  O   -0.572306
    78  H    0.109736
    79  H    0.176147
    80  H    0.144568
    81  N   -1.091620
    82  C    1.277691
    83  C    0.005818
    84  O   -0.464688
    85  C   -0.263046
    86  C    0.201498
    87  C   -0.412928
    88  C   -0.362380
    89  C    0.036032
    90  C   -0.091899
    91  C    0.202284
    92  O   -0.567856
    93  H    0.535367
    94  H   -0.202279
    95  H   -0.012941
    96  H   -0.004169
    97  H    0.174417
    98  H    0.162879
    99  H    0.097105
   100  H    0.112316
   101  H    0.421833
   102  N   -0.345241
   103  C    0.039055
   104  C    0.587679
   105  O   -0.567848
   106  C    0.225204
   107  C    0.076342
   108  C   -0.419194
   109  C   -0.369550
   110  H    0.189440
   111  H    0.042160
   112  H   -0.006498
   113  H    0.017686
   114  H    0.096650
   115  H    0.081599
   116  H    0.106839
   117  H    0.084948
   118  H    0.076877
   119  H    0.093323
   120  H    0.084306
   121  N   -0.472484
   122  C    0.150554
   123  C    0.544142
   124  O   -0.431094
   125  C    0.035660
   126  O   -0.569479
   127  H    0.391604
   128  H    0.057788
   129  H    0.084015
   130  H   -0.001821
   131  H    0.401887
   132  N   -0.686535
   133  C    0.419120
   134  C    0.388977
   135  O   -0.504082
   136  C   -0.348122
   137  H    0.352578
   138  H    0.021092
   139  H    0.085736
   140  H    0.115423
   141  H    0.077699
   142  N   -0.366192
   143  C    0.138054
   144  C    0.408918
   145  O   -0.530855
   146  C   -0.330009
   147  H    0.250709
   148  H    0.080340
   149  H    0.074434
   150  H    0.105717
   151  H    0.089142
   152  N   -0.087923
   153  C   -0.519526
   154  C    0.594368
   155  O   -0.564660
   156  C    0.588349
   157  C   -0.145289
   158  C    0.847438
   159  O   -0.820665
   160  O   -0.712345
   161  H    0.122093
   162  H    0.184503
   163  H   -0.035496
   164  H   -0.262572
   165  H   -0.025297
   166  H   -0.053780
   167  N   -0.087398
   168  C   -0.270296
   169  H    0.116213
   170  H    0.093401
   171  H    0.101768
   172  H    0.157172
   173  Ca   1.541176
   174  O   -0.700162
   175  H    0.355001
   176  H    0.398302
 Sum of ESP charges =   0.00000

 Normal termination of Gaussian 16 at Wed Sep 18 20:12:49 2019.
