 Gaussian 16, Revision A.03,
 Gaussian 16:  ES64L-G16RevA.03 25-Dec-2016

 ----------------------------------------------------------------------
 #b3lyp/svp scf=(tight,noincore) Test #IOP(5/87=12) Density=Current Pop
 =(MK,readradii) iop(6/33=2) iop(6/42=6)
 ----------------------------------------------------------------------

 -------------------
 holoCaM_loop3_100.0
 -------------------
 Symbolic Z-matrix:
 Charge =  0 Multiplicity = 1

                         Standard orientation:
 ---------------------------------------------------------------------
 Center     Atomic      Atomic             Coordinates (Angstroms)
 Number     Number       Type             X           Y           Z
 ---------------------------------------------------------------------
      1          6           0        2.088634    3.686218    4.496988
      2          6           0        1.351263    2.973354    3.370619
      3          8           0        2.054484    2.735284    2.389037
      4          1           0        2.376982    2.960819    5.257380
      5          1           0        2.980882    4.169276    4.098759
      6          1           0        1.435369    4.437426    4.941088
      7          7           0        0.036069    2.729778    3.358920
      8          6           0       -0.817413    2.188543    2.309762
      9          6           0       -1.288238    3.334757    1.423975
     10          8           0       -2.320472    3.981788    1.576763
     11          6           0       -1.919907    1.468419    3.078870
     12          6           0       -2.827350    0.786286    2.071377
     13          8           0       -3.995541    0.502077    2.398262
     14          8           0       -2.432397    0.563934    0.902115
     15          1           0       -0.466129    2.724675    4.224928
     16          1           0       -0.209466    1.492349    1.729233
     17          1           0       -2.479054    2.052910    3.798470
     18          1           0       -1.448042    0.661972    3.646133
     19          7           0       -0.409550    3.850465    0.564177
     20          6           0       -0.522798    5.197267    0.025383
     21          6           0       -1.643314    5.514553   -0.948051
     22          8           0       -2.021331    6.673164   -1.088497
     23          6           0        0.802529    5.507471   -0.677311
     24          6           0        1.986126    5.467529    0.286071
     25          6           0        3.182283    6.118460   -0.391717
     26          6           0        4.518316    6.103806    0.345781
     27          7           0        4.346536    6.314934    1.790120
     28          1           0        0.501960    3.440502    0.653515
     29          1           0       -0.777793    5.887640    0.829723
     30          1           0        0.630417    6.473448   -1.149715
     31          1           0        0.932185    4.765295   -1.459145
     32          1           0        2.100272    4.417910    0.554160
     33          1           0        1.690462    5.991071    1.186397
     34          1           0        2.951752    7.172080   -0.583396
     35          1           0        3.370873    5.685519   -1.364340
     36          1           0        5.159740    6.883243   -0.068649
     37          1           0        4.928189    5.098806    0.288517
     38          1           0        3.696359    5.701693    2.258421
     39          1           0        5.248964    6.112865    2.196314
     40          1           0        4.142173    7.292239    1.955080
     41          7           0       -2.265770    4.481498   -1.522721
     42          6           0       -3.512256    4.548558   -2.271838
     43          6           0       -4.686012    4.090601   -1.411679
     44          8           0       -5.834726    4.066547   -1.852674
     45          6           0       -3.328556    3.641900   -3.482303
     46          6           0       -2.758759    2.250475   -3.249567
     47          8           0       -2.516801    1.581493   -4.281662
     48          8           0       -2.555560    1.754390   -2.122310
     49          1           0       -1.900805    3.560852   -1.364885
     50          1           0       -3.702511    5.596855   -2.486958
     51          1           0       -2.602266    4.122351   -4.152280
     52          1           0       -4.235574    3.593156   -4.082588
     53          7           0       -4.518634    3.691173   -0.150353
     54          6           0       -5.625293    3.185079    0.648316
     55          6           0       -6.310865    1.919083    0.154610
     56          8           0       -7.509891    1.834624    0.387425
     57          1           0       -3.597931    3.717593    0.248154
     58          1           0       -6.353196    3.970605    0.801960
     59          1           0       -5.211263    2.942891    1.627971
     60          7           0       -5.649065    1.108253   -0.674231
     61          6           0       -6.271894   -0.093333   -1.185676
     62          6           0       -6.516741   -1.194870   -0.166036
     63          8           0       -7.269279   -2.136355   -0.383503
     64          6           0       -5.541691   -0.513772   -2.463422
     65          6           0       -4.093649   -0.963576   -2.334775
     66          7           0       -3.520641   -1.572212   -3.374882
     67          8           0       -3.527462   -1.045446   -1.249542
     68          1           0       -4.677982    1.274816   -0.907801
     69          1           0       -7.232258    0.283350   -1.534831
     70          1           0       -5.552686    0.382886   -3.091182
     71          1           0       -6.159459   -1.295112   -2.908024
     72          1           0       -4.034410   -1.965569   -4.151228
     73          1           0       -2.689976   -2.125564   -3.212719
     74          7           0       -5.905715   -1.103742    1.029474
     75          6           0       -6.083299   -1.987012    2.166311
     76          6           0       -4.788142   -2.610695    2.656195
     77          8           0       -4.839996   -3.287225    3.680557
     78          1           0       -5.175902   -0.430428    1.196271
     79          1           0       -6.768325   -2.766422    1.840337
     80          1           0       -6.701034   -1.598500    2.970526
     81          7           0       -3.655511   -2.537029    1.957681
     82          6           0       -2.503317   -3.407503    2.083071
     83          6           0       -1.155656   -2.815518    1.704570
     84          8           0       -1.188704   -1.812815    0.989242
     85          6           0       -2.719086   -4.734087    1.373691
     86          6           0       -3.880658   -4.889898    0.420081
     87          6           0       -3.944681   -4.067121   -0.708608
     88          6           0       -4.982594   -5.711536    0.709819
     89          6           0       -5.016635   -4.056353   -1.597259
     90          6           0       -6.014401   -5.813918   -0.233468
     91          6           0       -6.033705   -5.008431   -1.379513
     92          8           0       -7.123843   -5.108354   -2.193218
     93          1           0       -3.501257   -1.710770    1.399468
     94          1           0       -2.330653   -3.480935    3.160009
     95          1           0       -2.913789   -5.518769    2.108922
     96          1           0       -1.828766   -5.033510    0.808558
     97          1           0       -3.093516   -3.466886   -1.020594
     98          1           0       -4.899961   -6.313088    1.602684
     99          1           0       -5.099219   -3.378685   -2.439070
    100          1           0       -6.834131   -6.505188   -0.107020
    101          1           0       -7.751488   -5.775103   -1.895883
    102          7           0        0.005624   -3.336597    2.116037
    103          6           0        1.357306   -2.849897    1.921924
    104          6           0        2.050644   -3.716426    0.878367
    105          8           0        2.263065   -4.917892    1.055441
    106          6           0        2.111163   -2.805569    3.249755
    107          6           0        1.319164   -2.076241    4.325588
    108          6           0        3.449789   -2.115337    3.038184
    109          6           0        0.999983   -0.609298    4.058378
    110          1           0       -0.157545   -4.211413    2.601705
    111          1           0        1.212037   -1.888676    1.437000
    112          1           0        2.314677   -3.818178    3.607531
    113          1           0        1.930325   -2.179943    5.220031
    114          1           0        0.427975   -2.692911    4.470159
    115          1           0        3.281991   -1.083392    2.741649
    116          1           0        3.975914   -2.203674    3.992065
    117          1           0        4.026853   -2.687898    2.312532
    118          1           0        0.590266   -0.486905    3.053613
    119          1           0        0.315018   -0.314910    4.858040
    120          1           0        1.886453    0.020257    4.090476
    121          7           0        2.442449   -3.051512   -0.203427
    122          6           0        3.391050   -3.615273   -1.150174
    123          6           0        4.866982   -3.324106   -0.915768
    124          8           0        5.233711   -2.525838   -0.057411
    125          6           0        3.049593   -3.145074   -2.556026
    126          8           0        2.967052   -1.734324   -2.629989
    127          1           0        2.144589   -2.092919   -0.335634
    128          1           0        3.308745   -4.697385   -1.131185
    129          1           0        2.034408   -3.402206   -2.829853
    130          1           0        3.810119   -3.587634   -3.209279
    131          1           0        2.487960   -1.385186   -1.872973
    132          7           0        5.779534   -3.899940   -1.695618
    133          6           0        7.223935   -3.838515   -1.561335
    134          6           0        7.660215   -2.391647   -1.630869
    135          8           0        8.531548   -2.086767   -0.813050
    136          6           0        7.899580   -4.642678   -2.666516
    137          1           0        5.345784   -4.501464   -2.381059
    138          1           0        7.602043   -4.187927   -0.601988
    139          1           0        8.981478   -4.705517   -2.495493
    140          1           0        7.370080   -5.569103   -2.491392
    141          1           0        7.803245   -4.359517   -3.715391
    142          7           0        7.242660   -1.482376   -2.512103
    143          6           0        7.674252   -0.101461   -2.510726
    144          6           0        7.065569    0.680850   -1.349523
    145          8           0        7.656708    1.640921   -0.846215
    146          6           0        7.144971    0.450964   -3.831366
    147          1           0        6.505402   -1.702294   -3.178577
    148          1           0        8.756538   -0.026579   -2.447095
    149          1           0        6.058332    0.488629   -3.851247
    150          1           0        7.450899    1.501898   -3.894184
    151          1           0        7.436150   -0.085075   -4.736561
    152          7           0        5.910332    0.343538   -0.775024
    153          6           0        5.319251    0.962903    0.397968
    154          6           0        6.108237    0.515516    1.620525
    155          8           0        6.358600    1.304193    2.528549
    156          6           0        3.833891    0.597828    0.403038
    157          6           0        3.147968    1.145984   -0.844493
    158          6           0        1.698471    0.708717   -0.974708
    159          8           0        0.760752    1.524839   -1.034934
    160          8           0        1.423539   -0.512977   -0.892382
    161          1           0        5.431173   -0.432774   -1.195914
    162          1           0        5.482030    2.037090    0.386800
    163          1           0        3.417330    1.040383    1.314533
    164          1           0        3.769502   -0.489569    0.398552
    165          1           0        3.734597    0.824027   -1.708732
    166          1           0        3.261365    2.226784   -0.724444
    167          7           0        6.589159   -0.722645    1.644428
    168          6           0        7.633531   -1.182612    2.540764
    169          1           0        7.246211   -1.986267    3.167348
    170          1           0        8.476805   -1.551910    1.958017
    171          1           0        7.961742   -0.356350    3.171732
    172          1           0        6.378928   -1.407899    0.926912
    173         20           0       -1.105741   -0.145167   -1.194716
    174          8           0       -0.466488    0.061669   -3.752327
    175          1           0       -1.068618    0.724092   -4.096907
    176          1           0        0.151489   -0.097594   -4.467408
 ---------------------------------------------------------------------

 SCF Done:  E(RB3LYP) =  -5333.58112395     A.U. after   19 cycles

 The electronic state is 1-A.
 Alpha  occ. eigenvalues -- -145.37325 -19.14228 -19.13869 -19.13602 -19.12918
 Alpha  occ. eigenvalues --  -19.12712 -19.12625 -19.11436 -19.11318 -19.11140
 Alpha  occ. eigenvalues --  -19.11042 -19.10795 -19.10252 -19.09432 -19.07768
 Alpha  occ. eigenvalues --  -19.07611 -19.06905 -19.04616 -19.04586 -19.04286
 Alpha  occ. eigenvalues --  -19.03992 -19.03865 -19.03249 -19.02717 -15.43088
 Alpha  occ. eigenvalues --  -14.57765 -14.40272 -14.38396 -14.38270 -14.37186
 Alpha  occ. eigenvalues --  -14.36841 -14.36063 -14.35687 -14.35567 -14.32693
 Alpha  occ. eigenvalues --  -14.32368 -14.30708 -14.29620 -14.29302 -14.28207
 Alpha  occ. eigenvalues --  -12.56717 -12.56668 -12.56628 -10.34634 -10.32638
 Alpha  occ. eigenvalues --  -10.32072 -10.30554 -10.30268 -10.29955 -10.29927
 Alpha  occ. eigenvalues --  -10.29402 -10.28727 -10.28645 -10.27459 -10.27262
 Alpha  occ. eigenvalues --  -10.26779 -10.26527 -10.26455 -10.26305 -10.25857
 Alpha  occ. eigenvalues --  -10.25261 -10.24726 -10.24299 -10.24191 -10.23956
 Alpha  occ. eigenvalues --  -10.23822 -10.23766 -10.23498 -10.23432 -10.23036
 Alpha  occ. eigenvalues --  -10.22852 -10.22779 -10.22676 -10.22490 -10.22163
 Alpha  occ. eigenvalues --  -10.21954 -10.21669 -10.20248 -10.20238 -10.19970
 Alpha  occ. eigenvalues --  -10.19832 -10.19735 -10.19452 -10.18812 -10.18752
 Alpha  occ. eigenvalues --  -10.18708 -10.18216 -10.17745 -10.17622 -10.17184
 Alpha  occ. eigenvalues --  -10.17161 -10.16896 -10.16855 -10.16671 -10.16576
 Alpha  occ. eigenvalues --  -10.16503 -10.16202  -1.80071  -1.13294  -1.08792
 Alpha  occ. eigenvalues --   -1.07896  -1.07683  -1.07409  -1.06206  -1.06039
 Alpha  occ. eigenvalues --   -1.04916  -1.04597  -1.04485  -1.04072  -1.03754
 Alpha  occ. eigenvalues --   -1.03015  -1.02718  -1.02194  -1.01151  -1.00695
 Alpha  occ. eigenvalues --   -1.00620  -0.98801  -0.98508  -0.98086  -0.97684
 Alpha  occ. eigenvalues --   -0.97095  -0.96992  -0.96235  -0.96140  -0.95072
 Alpha  occ. eigenvalues --   -0.94825  -0.93932  -0.93653  -0.92809  -0.92386
 Alpha  occ. eigenvalues --   -0.91001  -0.90532  -0.89558  -0.89000  -0.88578
 Alpha  occ. eigenvalues --   -0.88379  -0.88026  -0.87355  -0.85344  -0.84751
 Alpha  occ. eigenvalues --   -0.83382  -0.82687  -0.82683  -0.82554  -0.80820
 Alpha  occ. eigenvalues --   -0.79720  -0.79372  -0.78705  -0.77273  -0.77128
 Alpha  occ. eigenvalues --   -0.75679  -0.75535  -0.74801  -0.74615  -0.73679
 Alpha  occ. eigenvalues --   -0.73181  -0.72460  -0.72003  -0.71433  -0.70508
 Alpha  occ. eigenvalues --   -0.70043  -0.69195  -0.68805  -0.68535  -0.67799
 Alpha  occ. eigenvalues --   -0.67514  -0.67100  -0.66908  -0.65231  -0.64987
 Alpha  occ. eigenvalues --   -0.64363  -0.64050  -0.63518  -0.63180  -0.63025
 Alpha  occ. eigenvalues --   -0.62179  -0.61959  -0.61665  -0.60585  -0.59948
 Alpha  occ. eigenvalues --   -0.59906  -0.59679  -0.59361  -0.59079  -0.58279
 Alpha  occ. eigenvalues --   -0.57393  -0.57232  -0.57082  -0.57049  -0.56388
 Alpha  occ. eigenvalues --   -0.56194  -0.55497  -0.55187  -0.54894  -0.54756
 Alpha  occ. eigenvalues --   -0.54345  -0.54285  -0.53950  -0.53415  -0.53334
 Alpha  occ. eigenvalues --   -0.53008  -0.52820  -0.52685  -0.52465  -0.52393
 Alpha  occ. eigenvalues --   -0.52093  -0.51560  -0.51458  -0.51143  -0.50603
 Alpha  occ. eigenvalues --   -0.50281  -0.50119  -0.49995  -0.49753  -0.49555
 Alpha  occ. eigenvalues --   -0.49348  -0.49037  -0.48963  -0.48904  -0.48720
 Alpha  occ. eigenvalues --   -0.48428  -0.48350  -0.47751  -0.47532  -0.47485
 Alpha  occ. eigenvalues --   -0.47313  -0.46819  -0.46649  -0.46187  -0.46026
 Alpha  occ. eigenvalues --   -0.45894  -0.45785  -0.45736  -0.45600  -0.45391
 Alpha  occ. eigenvalues --   -0.45218  -0.45104  -0.44955  -0.44729  -0.44645
 Alpha  occ. eigenvalues --   -0.44323  -0.44132  -0.44079  -0.43981  -0.43599
 Alpha  occ. eigenvalues --   -0.43463  -0.43195  -0.43188  -0.42954  -0.42535
 Alpha  occ. eigenvalues --   -0.42401  -0.42330  -0.42252  -0.42174  -0.41950
 Alpha  occ. eigenvalues --   -0.41868  -0.41642  -0.41503  -0.41349  -0.41240
 Alpha  occ. eigenvalues --   -0.41047  -0.40984  -0.40843  -0.40764  -0.40734
 Alpha  occ. eigenvalues --   -0.40625  -0.40495  -0.40360  -0.40273  -0.40100
 Alpha  occ. eigenvalues --   -0.40043  -0.39921  -0.39751  -0.39665  -0.39437
 Alpha  occ. eigenvalues --   -0.39089  -0.39014  -0.38882  -0.38851  -0.38729
 Alpha  occ. eigenvalues --   -0.38508  -0.38285  -0.38242  -0.38090  -0.37801
 Alpha  occ. eigenvalues --   -0.37771  -0.37719  -0.37644  -0.37433  -0.37065
 Alpha  occ. eigenvalues --   -0.36948  -0.36862  -0.36844  -0.36446  -0.36352
 Alpha  occ. eigenvalues --   -0.35663  -0.35485  -0.35355  -0.35232  -0.35105
 Alpha  occ. eigenvalues --   -0.34839  -0.34334  -0.34265  -0.34156  -0.33957
 Alpha  occ. eigenvalues --   -0.33810  -0.33749  -0.33322  -0.33103  -0.32750
 Alpha  occ. eigenvalues --   -0.32721  -0.32486  -0.31880  -0.31861  -0.31537
 Alpha  occ. eigenvalues --   -0.31186  -0.30905  -0.30655  -0.30449  -0.30298
 Alpha  occ. eigenvalues --   -0.30028  -0.29682  -0.29645  -0.29555  -0.29066
 Alpha  occ. eigenvalues --   -0.28944  -0.28789  -0.28674  -0.27872  -0.27685
 Alpha  occ. eigenvalues --   -0.27349  -0.27021  -0.26881  -0.26682  -0.26558
 Alpha  occ. eigenvalues --   -0.25893  -0.25745  -0.25026  -0.24766  -0.24242
 Alpha  occ. eigenvalues --   -0.23905  -0.23726  -0.23576  -0.23457  -0.23083
 Alpha  occ. eigenvalues --   -0.22617  -0.21917  -0.21694  -0.21647  -0.21291
 Alpha  occ. eigenvalues --   -0.20878  -0.20702  -0.19863  -0.19551  -0.19058
 Alpha  occ. eigenvalues --   -0.18954  -0.18719  -0.18444
 Alpha virt. eigenvalues --   -0.10029  -0.04630  -0.03742  -0.02655  -0.02265
 Alpha virt. eigenvalues --   -0.01611  -0.01144  -0.00566  -0.00324  -0.00272
 Alpha virt. eigenvalues --    0.00068   0.00675   0.00904   0.01023   0.01222

 Mulliken charges:
               1
     1  C    0.070333
     2  C    0.030490
     3  O   -0.321033
     4  H    0.057674
     5  H   -0.013845
     6  H    0.024090
     7  N   -0.097555
     8  C    0.053792
     9  C    0.112231
    10  O   -0.298127
    11  C    0.096546
    12  C    0.135777
    13  O   -0.370718
    14  O   -0.453343
    15  H    0.122465
    16  H    0.026066
    17  H    0.011652
    18  H    0.002372
    19  N   -0.124955
    20  C    0.131846
    21  C    0.046810
    22  O   -0.285948
    23  C   -0.016535
    24  C   -0.022668
    25  C   -0.023879
    26  C    0.054544
    27  N    0.055817
    28  H    0.131510
    29  H    0.008349
    30  H    0.018129
    31  H    0.033415
    32  H    0.052351
    33  H   -0.023396
    34  H    0.024239
    35  H    0.050783
    36  H    0.076368
    37  H    0.086684
    38  H    0.200925
    39  H    0.195011
    40  H    0.189875
    41  N   -0.168888
    42  C    0.179262
    43  C    0.021333
    44  O   -0.293395
    45  C    0.079819
    46  C    0.139735
    47  O   -0.406753
    48  O   -0.460728
    49  H    0.141804
    50  H    0.021811
    51  H    0.006604
    52  H    0.034092
    53  N   -0.151565
    54  C    0.254051
    55  C    0.045589
    56  O   -0.286737
    57  H    0.127408
    58  H    0.007913
    59  H    0.016062
    60  N   -0.180226
    61  C    0.161311
    62  C    0.096753
    63  O   -0.291214
    64  C    0.021805
    65  C    0.071455
    66  N   -0.025569
    67  O   -0.322789
    68  H    0.151301
    69  H    0.020616
    70  H    0.057882
    71  H    0.044186
    72  H    0.131433
    73  H    0.102457
    74  N   -0.181596
    75  C    0.254201
    76  C    0.038288
    77  O   -0.308244
    78  H    0.144739
    79  H    0.022034
    80  H    0.013202
    81  N   -0.148451
    82  C    0.168208
    83  C    0.043326
    84  O   -0.342302
    85  C    0.164880
    86  C   -0.074415
    87  C    0.021170
    88  C    0.026180
    89  C   -0.013954
    90  C   -0.027608
    91  C    0.191600
    92  O   -0.195209
    93  H    0.172015
    94  H    0.002925
    95  H   -0.012428
    96  H    0.002436
    97  H   -0.076883
    98  H   -0.031943
    99  H   -0.082547
   100  H   -0.054777
   101  H    0.172934
   102  N   -0.121214
   103  C    0.159762
   104  C    0.071757
   105  O   -0.280683
   106  C   -0.116725
   107  C    0.063515
   108  C    0.056254
   109  C   -0.042982
   110  H    0.129281
   111  H   -0.003057
   112  H   -0.003760
   113  H   -0.009754
   114  H   -0.011085
   115  H    0.017749
   116  H    0.001197
   117  H    0.026980
   118  H    0.048394
   119  H    0.025146
   120  H    0.022015
   121  N   -0.143855
   122  C    0.064456
   123  C    0.095231
   124  O   -0.281227
   125  C    0.259715
   126  O   -0.359094
   127  H    0.151057
   128  H    0.027132
   129  H    0.008420
   130  H   -0.024794
   131  H    0.173497
   132  N   -0.126169
   133  C    0.136396
   134  C    0.041897
   135  O   -0.278381
   136  C    0.025817
   137  H    0.116245
   138  H    0.026787
   139  H    0.051177
   140  H    0.022803
   141  H    0.022223
   142  N   -0.130913
   143  C    0.122337
   144  C    0.050249
   145  O   -0.292519
   146  C    0.016939
   147  H    0.114665
   148  H    0.030101
   149  H    0.012480
   150  H    0.030465
   151  H    0.028216
   152  N   -0.148548
   153  C    0.144193
   154  C    0.065295
   155  O   -0.299646
   156  C   -0.040859
   157  C    0.093967
   158  C    0.214158
   159  O   -0.389279
   160  O   -0.492954
   161  H    0.110034
   162  H   -0.035635
   163  H    0.046279
   164  H    0.006623
   165  H    0.006762
   166  H   -0.034112
   167  N   -0.164596
   168  C    0.119080
   169  H    0.006996
   170  H    0.031397
   171  H    0.027126
   172  H    0.138686
   173  Ca   1.288229
   174  O   -0.334980
   175  H    0.163639
   176  H    0.171258
 Sum of Mulliken charges =  -0.00000

 Dipole moment (field-independent basis, Debye):
    X=             32.9401    Y=              7.0584    Z=             -1.7342  Tot=             33.7325
 Quadrupole moment (field-independent basis, Debye-Ang):
   XX=           -686.2295   YY=           -434.3994   ZZ=           -521.3194
   XY=            108.6653   XZ=             -3.0170   YZ=             88.9701

 ESP charges:
               1
     1  C   -0.416180
     2  C    0.685035
     3  O   -0.582185
     4  H    0.137922
     5  H    0.110560
     6  H    0.098601
     7  N   -0.684628
     8  C    0.236323
     9  C    0.547347
    10  O   -0.491752
    11  C   -0.448623
    12  C    0.874579
    13  O   -0.675190
    14  O   -0.791972
    15  H    0.361098
    16  H    0.027420
    17  H    0.135171
    18  H    0.110142
    19  N   -0.356715
    20  C    0.064167
    21  C    0.565103
    22  O   -0.574131
    23  C   -0.378949
    24  C    0.208284
    25  C   -0.041642
    26  C    0.023737
    27  N   -0.330133
    28  H    0.263784
    29  H    0.065961
    30  H    0.105345
    31  H    0.116732
    32  H    0.001941
    33  H   -0.027857
    34  H    0.031058
    35  H    0.059721
    36  H    0.087812
    37  H    0.067173
    38  H    0.280275
    39  H    0.328911
    40  H    0.323620
    41  N   -0.353348
    42  C    0.091657
    43  C    0.372900
    44  O   -0.540206
    45  C   -0.397777
    46  C    0.788800
    47  O   -0.703984
    48  O   -0.669503
    49  H    0.199583
    50  H    0.116148
    51  H    0.100054
    52  H    0.136946
    53  N   -0.067801
    54  C   -0.178181
    55  C    0.584519
    56  O   -0.568562
    57  H    0.058095
    58  H    0.101166
    59  H    0.086165
    60  N   -0.250611
    61  C   -0.104150
    62  C    0.369856
    63  O   -0.485893
    64  C   -0.367924
    65  C    0.695960
    66  N   -0.741451
    67  O   -0.319878
    68  H    0.246429
    69  H    0.155583
    70  H    0.138356
    71  H    0.144238
    72  H    0.338475
    73  H    0.321347
    74  N   -0.165775
    75  C    0.037933
    76  C    0.446464
    77  O   -0.585208
    78  H    0.157492
    79  H    0.085193
    80  H    0.046954
    81  N    0.072266
    82  C    0.147044
    83  C    0.615107
    84  O   -0.588473
    85  C   -0.161186
    86  C   -0.008969
    87  C   -0.032683
    88  C   -0.101318
    89  C   -0.394380
    90  C   -0.348789
    91  C    0.428878
    92  O   -0.558140
    93  H   -0.157188
    94  H   -0.009967
    95  H    0.044446
    96  H    0.042940
    97  H    0.028522
    98  H    0.142663
    99  H    0.191571
   100  H    0.145019
   101  H    0.415347
   102  N   -0.477025
   103  C   -0.158774
   104  C    0.519526
   105  O   -0.531675
   106  C    0.435997
   107  C   -0.065572
   108  C   -0.501354
   109  C   -0.180492
   110  H    0.269303
   111  H    0.115621
   112  H   -0.042999
   113  H    0.008391
   114  H    0.000636
   115  H    0.081743
   116  H    0.112628
   117  H    0.142740
   118  H    0.111868
   119  H    0.055366
   120  H    0.075836
   121  N   -0.112590
   122  C   -0.303117
   123  C    0.714298
   124  O   -0.536212
   125  C    0.219713
   126  O   -0.580600
   127  H    0.074193
   128  H    0.107032
   129  H    0.029945
   130  H    0.005760
   131  H    0.388254
   132  N   -0.553650
   133  C    0.247417
   134  C    0.582919
   135  O   -0.569996
   136  C   -0.387663
   137  H    0.307034
   138  H    0.058179
   139  H    0.133809
   140  H    0.096083
   141  H    0.109922
   142  N   -0.524351
   143  C    0.214136
   144  C    0.305784
   145  O   -0.539192
   146  C   -0.370052
   147  H    0.293556
   148  H    0.097017
   149  H    0.102701
   150  H    0.107654
   151  H    0.107958
   152  N    0.116257
   153  C   -0.500516
   154  C    0.663043
   155  O   -0.605463
   156  C    0.201850
   157  C   -0.152902
   158  C    0.646552
   159  O   -0.688726
   160  O   -0.542185
   161  H    0.077894
   162  H    0.178477
   163  H    0.077387
   164  H   -0.178512
   165  H    0.006125
   166  H    0.042172
   167  N   -0.163904
   168  C   -0.231056
   169  H    0.064237
   170  H    0.100170
   171  H    0.109488
   172  H    0.216946
   173  Ca   1.456924
   174  O   -0.870478
   175  H    0.416654
   176  H    0.411232
 Sum of ESP charges =   0.00000

 Normal termination of Gaussian 16 at Sat Sep 14 22:39:10 2019.
