 Gaussian 09, Revision D.01,
 Gaussian 09:  ES64L-G09RevD.01 24-Apr-2013

 ----------------------------------------------------------------------
 #maxdisk=50GB #B3LYP/SVP Density=Current scf=(tight) #IOP(5/87=12)Pop=
 (MK,readradii) iop(6/33=2) iop(6/42=6)
 ----------------------------------------------------------------------

 ------------
 SOL molecule
 ------------
 Symbolic Z-matrix:
 Charge =  0 Multiplicity = 1

                         Standard orientation:
 ---------------------------------------------------------------------
 Center     Atomic      Atomic             Coordinates (Angstroms)
 Number     Number       Type             X           Y           Z
 ---------------------------------------------------------------------
      1          6           0        2.080183    3.627695    5.046485
      2          6           0        1.572762    3.071511    3.727325
      3          8           0        2.305082    2.800375    2.774071
      4          1           0        3.054309    3.193266    5.272576
      5          1           0        2.174239    4.711387    4.972393
      6          1           0        1.377927    3.376807    5.841392
      7          7           0        0.237416    3.002367    3.675655
      8          6           0       -0.463812    2.695462    2.444806
      9          6           0       -0.252111    3.937717    1.583770
     10          8           0       -0.719298    5.010143    1.955442
     11          6           0       -1.905915    2.234422    2.626419
     12          6           0       -2.663817    1.968428    1.334625
     13          8           0       -2.013726    1.892964    0.272511
     14          8           0       -3.817381    1.492900    1.467910
     15          1           0       -0.317088    3.291326    4.470595
     16          1           0        0.029442    1.866721    1.938458
     17          1           0       -2.391883    3.090975    3.087234
     18          1           0       -1.885567    1.335952    3.244836
     19          7           0        0.492483    3.852804    0.478297
     20          6           0        0.852881    5.072209   -0.208190
     21          6           0       -0.190819    5.607991   -1.176760
     22          8           0       -0.043689    6.699482   -1.709771
     23          6           0        2.212063    4.781918   -0.833454
     24          6           0        3.359713    4.727309    0.164553
     25          6           0        3.551739    6.095374    0.822294
     26          6           0        4.919570    6.259953    1.482106
     27          7           0        4.846728    7.338908    2.474301
     28          1           0        0.940195    2.975437    0.275365
     29          1           0        0.926755    5.768587    0.622111
     30          1           0        2.558132    5.617686   -1.449106
     31          1           0        2.239366    3.868614   -1.437466
     32          1           0        4.236875    4.567591   -0.458084
     33          1           0        3.196513    3.850955    0.797854
     34          1           0        2.719510    6.211280    1.513208
     35          1           0        3.367671    6.901137    0.123249
     36          1           0        5.687244    6.404918    0.722789
     37          1           0        5.095402    5.308210    1.987445
     38          1           0        5.497735    7.075237    3.208037
     39          1           0        5.199577    8.232597    2.165242
     40          1           0        3.966915    7.477558    2.934307
     41          7           0       -1.224024    4.764482   -1.323659
     42          6           0       -2.209002    4.885363   -2.375945
     43          6           0       -3.639790    4.580722   -1.991573
     44          8           0       -4.564415    4.780466   -2.779590
     45          6           0       -1.939562    4.040104   -3.615598
     46          6           0       -1.690765    2.576576   -3.264051
     47          8           0       -2.680061    1.804825   -3.298599
     48          8           0       -0.540031    2.229765   -2.935976
     49          1           0       -1.231287    3.894785   -0.806287
     50          1           0       -2.265675    5.910162   -2.729746
     51          1           0       -0.993650    4.352013   -4.064334
     52          1           0       -2.709583    4.065866   -4.388517
     53          7           0       -3.900949    3.998055   -0.812423
     54          6           0       -5.242914    3.936486   -0.285129
     55          6           0       -6.050644    2.711469   -0.699260
     56          8           0       -7.245707    2.656111   -0.438951
     57          1           0       -3.120915    3.787437   -0.205721
     58          1           0       -5.713670    4.780487   -0.787076
     59          1           0       -5.225507    4.077828    0.794464
     60          7           0       -5.387312    1.741383   -1.343793
     61          6           0       -6.115359    0.565022   -1.774749
     62          6           0       -6.559370   -0.335034   -0.632054
     63          8           0       -7.310997   -1.282611   -0.887506
     64          6           0       -5.509817   -0.245195   -2.926039
     65          6           0       -4.430744   -1.239751   -2.546091
     66          7           0       -4.349477   -2.482123   -3.043793
     67          8           0       -3.638262   -0.929867   -1.658992
     68          1           0       -4.422082    1.897152   -1.564172
     69          1           0       -7.000381    0.982289   -2.263241
     70          1           0       -5.137438    0.363397   -3.753112
     71          1           0       -6.366476   -0.841578   -3.251712
     72          1           0       -5.003402   -2.823125   -3.721289
     73          1           0       -3.728139   -3.128712   -2.577252
     74          7           0       -6.140072   -0.075725    0.605867
     75          6           0       -6.435082   -0.916700    1.751392
     76          6           0       -5.267639   -1.728115    2.277114
     77          8           0       -5.387683   -2.388869    3.310358
     78          1           0       -5.435312    0.625669    0.729798
     79          1           0       -7.339934   -1.511351    1.594760
     80          1           0       -6.623186   -0.261042    2.596158
     81          7           0       -4.152125   -1.688060    1.542318
     82          6           0       -3.166824   -2.744734    1.583816
     83          6           0       -1.751406   -2.207333    1.389672
     84          8           0       -1.471496   -1.319604    0.593125
     85          6           0       -3.445084   -3.975134    0.719648
     86          6           0       -4.844330   -4.533701    0.822193
     87          6           0       -5.875791   -3.936782    0.088384
     88          6           0       -5.106896   -5.651593    1.623677
     89          6           0       -7.153071   -4.511571    0.079747
     90          6           0       -6.373461   -6.250763    1.595273
     91          6           0       -7.427378   -5.632363    0.888562
     92          8           0       -8.676495   -6.196300    0.902041
     93          1           0       -4.160860   -1.051240    0.757154
     94          1           0       -3.157264   -3.242234    2.561825
     95          1           0       -2.669863   -4.669630    1.045389
     96          1           0       -3.339042   -3.688357   -0.320262
     97          1           0       -5.645903   -3.143344   -0.593677
     98          1           0       -4.374832   -6.044791    2.313226
     99          1           0       -7.974256   -4.014823   -0.411472
    100          1           0       -6.575087   -7.125082    2.195118
    101          1           0       -8.702379   -7.106511    1.196228
    102          7           0       -0.770136   -2.947121    1.918373
    103          6           0        0.621572   -2.588336    1.683806
    104          6           0        1.207554   -3.612588    0.730269
    105          8           0        1.097877   -4.823434    0.935025
    106          6           0        1.396243   -2.448430    2.993504
    107          6           0        1.011598   -1.061192    3.471852
    108          6           0        2.904724   -2.509366    2.793571
    109          6           0        1.145358   -0.757516    4.965702
    110          1           0       -0.941770   -3.643139    2.623143
    111          1           0        0.754580   -1.635393    1.182499
    112          1           0        1.112883   -3.283117    3.641813
    113          1           0       -0.078992   -1.023458    3.390665
    114          1           0        1.427435   -0.297920    2.816492
    115          1           0        3.401051   -2.436743    3.767268
    116          1           0        3.190541   -3.526266    2.508052
    117          1           0        3.315554   -1.689379    2.207192
    118          1           0        2.193236   -0.791149    5.266568
    119          1           0        0.615291    0.193825    4.956868
    120          1           0        0.569107   -1.430258    5.604571
    121          7           0        1.923970   -3.207526   -0.322002
    122          6           0        2.760768   -4.012331   -1.182617
    123          6           0        4.219547   -3.998130   -0.723093
    124          8           0        4.579582   -3.237609    0.168021
    125          6           0        2.703127   -3.478898   -2.605370
    126          8           0        3.094634   -2.128725   -2.712866
    127          1           0        2.010885   -2.199982   -0.384452
    128          1           0        2.388518   -5.016123   -1.016390
    129          1           0        1.669944   -3.482218   -2.979165
    130          1           0        3.346119   -3.962997   -3.349419
    131          1           0        2.368564   -1.587426   -2.392994
    132          7           0        5.065853   -4.814831   -1.341287
    133          6           0        6.492791   -4.859830   -1.078946
    134          6           0        7.303261   -3.578698   -1.238438
    135          8           0        8.202766   -3.205775   -0.482382
    136          6           0        7.067505   -5.970750   -1.962043
    137          1           0        4.760690   -5.498857   -2.018771
    138          1           0        6.637560   -5.212861   -0.059137
    139          1           0        6.530285   -6.910218   -1.802689
    140          1           0        6.852740   -5.718039   -2.997231
    141          1           0        8.145226   -6.018358   -1.809885
    142          7           0        6.930569   -2.834413   -2.277545
    143          6           0        7.606283   -1.566394   -2.453432
    144          6           0        7.120737   -0.489293   -1.495467
    145          8           0        7.807027    0.506714   -1.284576
    146          6           0        7.503954   -1.245734   -3.936438
    147          1           0        6.256016   -3.200761   -2.929900
    148          1           0        8.658142   -1.612598   -2.205728
    149          1           0        8.238310   -0.444582   -4.025749
    150          1           0        7.739538   -2.118107   -4.558986
    151          1           0        6.578149   -0.748650   -4.226773
    152          7           0        5.899507   -0.625178   -0.967893
    153          6           0        5.474084    0.215119    0.142746
    154          6           0        5.984763   -0.170506    1.517445
    155          8           0        6.242289    0.697727    2.341552
    156          6           0        3.954740    0.179585    0.137068
    157          6           0        3.169921    1.032218   -0.864469
    158          6           0        1.764844    0.462472   -0.857533
    159          8           0        0.846160    1.043206   -0.230342
    160          8           0        1.450542   -0.415969   -1.694764
    161          1           0        5.423451   -1.505384   -1.096370
    162          1           0        5.781122    1.246187   -0.021648
    163          1           0        3.702821    0.683490    1.078777
    164          1           0        3.623374   -0.852905    0.057318
    165          1           0        3.642871    0.885976   -1.829058
    166          1           0        3.199779    2.089627   -0.589343
    167          7           0        6.261477   -1.438024    1.854829
    168          6           0        7.118450   -1.941804    2.905307
    169          1           0        7.707584   -2.776315    2.524317
    170          1           0        7.786798   -1.149271    3.241598
    171          1           0        6.507662   -2.281838    3.741876
    172          1           0        5.683295   -2.076621    1.317335
    173         20           0       -1.182537    0.161494   -1.618424
    174          8           0       -0.533936   -0.534149   -4.142310
    175          1           0        0.180140    0.107617   -4.218022
    176          1           0       -0.300526   -1.225654   -4.751358
 ---------------------------------------------------------------------

 SCF Done:  E(RB3LYP) =  -5333.59998058     A.U. after   17 cycles

 The electronic state is 1-A.
 Alpha  occ. eigenvalues -- -145.36323 -19.15766 -19.14082 -19.13618 -19.11959
 Alpha  occ. eigenvalues --  -19.11801 -19.11497 -19.11160 -19.10334 -19.09915
 Alpha  occ. eigenvalues --  -19.09486 -19.08574 -19.08448 -19.07722 -19.07529
 Alpha  occ. eigenvalues --  -19.06650 -19.06011 -19.05968 -19.05142 -19.05118
 Alpha  occ. eigenvalues --  -19.04873 -19.04485 -19.04327 -19.03518 -15.42038
 Alpha  occ. eigenvalues --  -14.58133 -14.39599 -14.36982 -14.36913 -14.36858
 Alpha  occ. eigenvalues --  -14.35949 -14.35623 -14.34036 -14.32424 -14.32411
 Alpha  occ. eigenvalues --  -14.32186 -14.31938 -14.31130 -14.30897 -14.30276
 Alpha  occ. eigenvalues --  -12.55654 -12.55616 -12.55608 -10.33859 -10.31733
 Alpha  occ. eigenvalues --  -10.30265 -10.29874 -10.29690 -10.29038 -10.28250
 Alpha  occ. eigenvalues --  -10.28064 -10.27073 -10.25986 -10.25854 -10.25640
 Alpha  occ. eigenvalues --  -10.25515 -10.25479 -10.25380 -10.25239 -10.24887
 Alpha  occ. eigenvalues --  -10.24752 -10.23976 -10.23765 -10.23346 -10.23201
 Alpha  occ. eigenvalues --  -10.23134 -10.23125 -10.23123 -10.22624 -10.22322
 Alpha  occ. eigenvalues --  -10.21822 -10.21398 -10.21184 -10.20761 -10.20705
 Alpha  occ. eigenvalues --  -10.20400 -10.20302 -10.19790 -10.19500 -10.19453
 Alpha  occ. eigenvalues --  -10.19370 -10.19129 -10.18864 -10.18819 -10.18336
 Alpha  occ. eigenvalues --  -10.18055 -10.17907 -10.17505 -10.17462 -10.17388
 Alpha  occ. eigenvalues --  -10.17354 -10.17138 -10.17037 -10.16795 -10.16404
 Alpha  occ. eigenvalues --  -10.16370 -10.14103  -1.78891  -1.13503  -1.06965
 Alpha  occ. eigenvalues --   -1.06670  -1.06564  -1.06335  -1.04871  -1.04566
 Alpha  occ. eigenvalues --   -1.04156  -1.04011  -1.02969  -1.02810  -1.02495
 Alpha  occ. eigenvalues --   -1.01789  -1.01541  -1.01208  -1.01172  -1.00025
 Alpha  occ. eigenvalues --   -0.99913  -0.99337  -0.99259  -0.98882  -0.98621
 Alpha  occ. eigenvalues --   -0.98306  -0.97357  -0.96488  -0.93697  -0.93521
 Alpha  occ. eigenvalues --   -0.93388  -0.92336  -0.92158  -0.91297  -0.91073
 Alpha  occ. eigenvalues --   -0.90988  -0.89905  -0.89496  -0.89160  -0.88971
 Alpha  occ. eigenvalues --   -0.88336  -0.88093  -0.87511  -0.87401  -0.86482
 Alpha  occ. eigenvalues --   -0.83020  -0.82351  -0.81696  -0.80586  -0.79318
 Alpha  occ. eigenvalues --   -0.77966  -0.77723  -0.77583  -0.76963  -0.76519
 Alpha  occ. eigenvalues --   -0.75222  -0.74124  -0.74039  -0.72825  -0.72360
 Alpha  occ. eigenvalues --   -0.72323  -0.72277  -0.72196  -0.71059  -0.70582
 Alpha  occ. eigenvalues --   -0.69417  -0.68682  -0.68556  -0.68365  -0.67468
 Alpha  occ. eigenvalues --   -0.66631  -0.65574  -0.65298  -0.64595  -0.64133
 Alpha  occ. eigenvalues --   -0.64051  -0.62933  -0.62483  -0.62110  -0.61211
 Alpha  occ. eigenvalues --   -0.60869  -0.60682  -0.60115  -0.60076  -0.59756
 Alpha  occ. eigenvalues --   -0.59307  -0.59081  -0.58411  -0.57597  -0.57045
 Alpha  occ. eigenvalues --   -0.56973  -0.56712  -0.56571  -0.56186  -0.55597
 Alpha  occ. eigenvalues --   -0.55352  -0.55236  -0.55160  -0.54823  -0.54593
 Alpha  occ. eigenvalues --   -0.54385  -0.54300  -0.53991  -0.53600  -0.53429
 Alpha  occ. eigenvalues --   -0.53141  -0.53029  -0.52166  -0.51638  -0.51498
 Alpha  occ. eigenvalues --   -0.50896  -0.50457  -0.49883  -0.49822  -0.49701
 Alpha  occ. eigenvalues --   -0.49566  -0.49118  -0.48955  -0.48611  -0.48532
 Alpha  occ. eigenvalues --   -0.48452  -0.48147  -0.47757  -0.47625  -0.47380
 Alpha  occ. eigenvalues --   -0.47314  -0.47127  -0.46832  -0.46760  -0.46187
 Alpha  occ. eigenvalues --   -0.46028  -0.45921  -0.45663  -0.45451  -0.45220
 Alpha  occ. eigenvalues --   -0.45083  -0.44839  -0.44790  -0.44464  -0.44312
 Alpha  occ. eigenvalues --   -0.44230  -0.44131  -0.43976  -0.43808  -0.43675
 Alpha  occ. eigenvalues --   -0.43376  -0.43258  -0.43164  -0.42812  -0.42769
 Alpha  occ. eigenvalues --   -0.42669  -0.42437  -0.42362  -0.42099  -0.41995
 Alpha  occ. eigenvalues --   -0.41955  -0.41889  -0.41835  -0.41527  -0.41467
 Alpha  occ. eigenvalues --   -0.41153  -0.41025  -0.40980  -0.40891  -0.40840
 Alpha  occ. eigenvalues --   -0.40611  -0.40472  -0.40324  -0.40066  -0.39955
 Alpha  occ. eigenvalues --   -0.39863  -0.39711  -0.39426  -0.39355  -0.39291
 Alpha  occ. eigenvalues --   -0.39180  -0.39020  -0.38827  -0.38773  -0.38631
 Alpha  occ. eigenvalues --   -0.38480  -0.38349  -0.38269  -0.38123  -0.38022
 Alpha  occ. eigenvalues --   -0.37662  -0.37563  -0.37503  -0.37285  -0.37169
 Alpha  occ. eigenvalues --   -0.36855  -0.36753  -0.36563  -0.36440  -0.36200
 Alpha  occ. eigenvalues --   -0.36179  -0.36023  -0.35868  -0.35645  -0.35594
 Alpha  occ. eigenvalues --   -0.35523  -0.35132  -0.35048  -0.34819  -0.34662
 Alpha  occ. eigenvalues --   -0.34365  -0.34186  -0.34120  -0.34038  -0.33714
 Alpha  occ. eigenvalues --   -0.33235  -0.33180  -0.33102  -0.32823  -0.32264
 Alpha  occ. eigenvalues --   -0.32230  -0.31951  -0.31758  -0.31662  -0.31516
 Alpha  occ. eigenvalues --   -0.31351  -0.31079  -0.30688  -0.30450  -0.29717
 Alpha  occ. eigenvalues --   -0.29483  -0.28781  -0.28552  -0.28029  -0.27749
 Alpha  occ. eigenvalues --   -0.27495  -0.27378  -0.27134  -0.26902  -0.26682
 Alpha  occ. eigenvalues --   -0.26461  -0.26374  -0.26058  -0.25630  -0.24976
 Alpha  occ. eigenvalues --   -0.24801  -0.24663  -0.24588  -0.24009  -0.23898
 Alpha  occ. eigenvalues --   -0.23855  -0.23259  -0.23196  -0.23085  -0.23042
 Alpha  occ. eigenvalues --   -0.22621  -0.22407  -0.21917  -0.21776  -0.21626
 Alpha  occ. eigenvalues --   -0.21553  -0.20799  -0.20667  -0.20504  -0.20230
 Alpha  occ. eigenvalues --   -0.20133  -0.19507  -0.19390
 Alpha virt. eigenvalues --   -0.10114  -0.04813  -0.04062  -0.01718  -0.00973
 Alpha virt. eigenvalues --   -0.00222  -0.00109  -0.00040   0.00092   0.00470
 Alpha virt. eigenvalues --    0.00744   0.01273   0.01395   0.01699   0.02314

 Mulliken charges:
               1
     1  C    0.049065
     2  C    0.057265
     3  O   -0.290573
     4  H    0.034273
     5  H    0.005960
     6  H    0.017071
     7  N   -0.133860
     8  C    0.104554
     9  C    0.023325
    10  O   -0.307839
    11  C    0.088677
    12  C    0.131332
    13  O   -0.443618
    14  O   -0.371751
    15  H    0.118449
    16  H    0.024604
    17  H   -0.002479
    18  H    0.026263
    19  N   -0.157588
    20  C    0.128088
    21  C    0.100821
    22  O   -0.279279
    23  C    0.011104
    24  C   -0.022197
    25  C   -0.068479
    26  C    0.040901
    27  N    0.094221
    28  H    0.146935
    29  H   -0.009543
    30  H   -0.007973
    31  H    0.040273
    32  H    0.003331
    33  H    0.083633
    34  H    0.028629
    35  H    0.023255
    36  H    0.087459
    37  H    0.095731
    38  H    0.187417
    39  H    0.188607
    40  H    0.186355
    41  N   -0.150998
    42  C    0.098985
    43  C    0.043927
    44  O   -0.285858
    45  C    0.167697
    46  C    0.049085
    47  O   -0.402726
    48  O   -0.446178
    49  H    0.178101
    50  H    0.021269
    51  H   -0.019365
    52  H    0.019144
    53  N   -0.183422
    54  C    0.249241
    55  C    0.028293
    56  O   -0.292685
    57  H    0.115662
    58  H    0.019006
    59  H    0.028458
    60  N   -0.151165
    61  C    0.154376
    62  C    0.044869
    63  O   -0.312494
    64  C    0.104008
    65  C    0.061175
    66  N   -0.038241
    67  O   -0.362461
    68  H    0.144763
    69  H    0.030039
    70  H    0.067541
    71  H    0.008784
    72  H    0.129029
    73  H    0.134739
    74  N   -0.152674
    75  C    0.232561
    76  C    0.022153
    77  O   -0.294156
    78  H    0.149670
    79  H    0.056966
    80  H    0.020064
    81  N   -0.126864
    82  C    0.089549
    83  C    0.172448
    84  O   -0.341278
    85  C    0.187440
    86  C   -0.013350
    87  C    0.005694
    88  C    0.006850
    89  C   -0.019532
    90  C   -0.043386
    91  C    0.170778
    92  O   -0.213213
    93  H    0.145541
    94  H   -0.012596
    95  H   -0.018915
    96  H   -0.053703
    97  H   -0.045989
    98  H   -0.040339
    99  H   -0.003943
   100  H   -0.049609
   101  H    0.171309
   102  N   -0.122090
   103  C    0.127803
   104  C    0.044280
   105  O   -0.300612
   106  C   -0.100270
   107  C   -0.035078
   108  C    0.088279
   109  C    0.054429
   110  H    0.133489
   111  H    0.010945
   112  H   -0.022915
   113  H   -0.005876
   114  H    0.042157
   115  H   -0.009209
   116  H    0.017841
   117  H    0.007914
   118  H    0.012730
   119  H    0.002557
   120  H    0.001139
   121  N   -0.140343
   122  C    0.123825
   123  C    0.096235
   124  O   -0.276092
   125  C    0.245695
   126  O   -0.360308
   127  H    0.123363
   128  H    0.021789
   129  H   -0.003519
   130  H   -0.015034
   131  H    0.161783
   132  N   -0.109080
   133  C    0.071179
   134  C    0.068809
   135  O   -0.253454
   136  C    0.026814
   137  H    0.120389
   138  H    0.021349
   139  H    0.031615
   140  H   -0.004989
   141  H    0.050142
   142  N   -0.167210
   143  C    0.115737
   144  C    0.054769
   145  O   -0.279344
   146  C    0.044894
   147  H    0.120192
   148  H    0.027506
   149  H    0.022848
   150  H    0.022066
   151  H    0.019399
   152  N   -0.131521
   153  C    0.165765
   154  C    0.043357
   155  O   -0.289637
   156  C   -0.126803
   157  C    0.187542
   158  C    0.161450
   159  O   -0.390385
   160  O   -0.459297
   161  H    0.122930
   162  H   -0.013128
   163  H    0.046579
   164  H    0.007019
   165  H   -0.006532
   166  H   -0.022850
   167  N   -0.175990
   168  C    0.148291
   169  H    0.025494
   170  H    0.027491
   171  H    0.006221
   172  H    0.128232
   173  Ca   1.258758
   174  O   -0.284125
   175  H    0.190119
   176  H    0.165985
 Sum of Mulliken charges =   0.00000

 Dipole moment (field-independent basis, Debye):
    X=             27.0454    Y=              3.6755    Z=              3.9515  Tot=             27.5786
 Quadrupole moment (field-independent basis, Debye-Ang):
   XX=           -646.4159   YY=           -376.8246   ZZ=           -508.7560
   XY=            146.1958   XZ=             23.1805   YZ=            131.2170

 ESP charges:
               1
     1  C   -0.487633
     2  C    0.853504
     3  O   -0.662759
     4  H    0.130768
     5  H    0.119044
     6  H    0.111509
     7  N   -0.833793
     8  C    0.675240
     9  C    0.319091
    10  O   -0.574692
    11  C   -0.538439
    12  C    1.029106
    13  O   -0.908954
    14  O   -0.730887
    15  H    0.374307
    16  H   -0.101957
    17  H    0.069784
    18  H    0.137064
    19  N    0.167796
    20  C   -0.433598
    21  C    0.774130
    22  O   -0.579606
    23  C    0.116644
    24  C   -0.283796
    25  C    0.159345
    26  C    0.021738
    27  N   -0.414832
    28  H    0.129123
    29  H    0.113006
    30  H    0.021045
    31  H    0.002075
    32  H    0.072139
    33  H    0.092732
    34  H    0.004890
    35  H    0.009242
    36  H    0.092746
    37  H    0.084021
    38  H    0.336587
    39  H    0.343138
    40  H    0.335627
    41  N   -0.633209
    42  C    0.222188
    43  C    0.359826
    44  O   -0.523781
    45  C   -0.305456
    46  C    0.784673
    47  O   -0.718957
    48  O   -0.719999
    49  H    0.298067
    50  H    0.069550
    51  H    0.060897
    52  H    0.101808
    53  N   -0.123035
    54  C   -0.342903
    55  C    0.610469
    56  O   -0.585978
    57  H    0.150500
    58  H    0.152960
    59  H    0.141377
    60  N   -0.324475
    61  C    0.056064
    62  C    0.367608
    63  O   -0.533475
    64  C   -0.374122
    65  C    0.806660
    66  N   -0.822803
    67  O   -0.705035
    68  H    0.261510
    69  H    0.125371
    70  H    0.163879
    71  H    0.093975
    72  H    0.374516
    73  H    0.406003
    74  N   -0.055911
    75  C   -0.362995
    76  C    0.789396
    77  O   -0.599929
    78  H    0.216178
    79  H    0.176705
    80  H    0.113765
    81  N   -0.716664
    82  C    0.443372
    83  C    0.457663
    84  O   -0.475366
    85  C    0.081518
    86  C   -0.256732
    87  C    0.168454
    88  C    0.047408
    89  C   -0.502451
    90  C   -0.475790
    91  C    0.576707
    92  O   -0.587492
    93  H    0.317592
    94  H   -0.025021
    95  H   -0.002511
    96  H   -0.066238
    97  H    0.060021
    98  H    0.105118
    99  H    0.222320
   100  H    0.166859
   101  H    0.403984
   102  N   -0.714852
   103  C    0.044632
   104  C    0.665633
   105  O   -0.580563
   106  C   -0.058480
   107  C    0.207276
   108  C   -0.026316
   109  C   -0.415271
   110  H    0.392346
   111  H    0.037075
   112  H    0.040784
   113  H    0.043854
   114  H    0.028945
   115  H    0.038371
   116  H    0.032435
   117  H   -0.079339
   118  H    0.094729
   119  H    0.077998
   120  H    0.098906
   121  N   -0.203287
   122  C   -0.196458
   123  C    0.604142
   124  O   -0.457100
   125  C    0.023403
   126  O   -0.535015
   127  H    0.010006
   128  H    0.118972
   129  H    0.064556
   130  H    0.067504
   131  H    0.369617
   132  N   -0.487508
   133  C    0.196262
   134  C    0.449169
   135  O   -0.517621
   136  C   -0.372697
   137  H    0.305282
   138  H    0.056779
   139  H    0.116089
   140  H    0.071153
   141  H    0.136543
   142  N   -0.448017
   143  C    0.289168
   144  C    0.403133
   145  O   -0.533792
   146  C   -0.304674
   147  H    0.324646
   148  H    0.049072
   149  H    0.077591
   150  H    0.069843
   151  H    0.087567
   152  N   -0.150451
   153  C    0.066064
   154  C    0.458667
   155  O   -0.572959
   156  C   -0.189512
   157  C   -0.105577
   158  C    0.699242
   159  O   -0.666026
   160  O   -0.673774
   161  H   -0.036920
   162  H    0.055583
   163  H    0.089727
   164  H    0.219226
   165  H    0.019946
   166  H    0.091269
   167  N   -0.117228
   168  C   -0.172649
   169  H    0.072812
   170  H    0.112738
   171  H    0.054686
   172  H    0.149016
   173  Ca   1.567983
   174  O   -0.800538
   175  H    0.381308
   176  H    0.425752
 Sum of ESP charges =   0.00000

 Normal termination of Gaussian 09 at Mon Sep 16 21:37:59 2019.
