 Gaussian 09, Revision D.01,
 Gaussian 09:  ES64L-G09RevD.01 24-Apr-2013

 ----------------------------------------------------------------------
 #maxdisk=50GB #B3LYP/SVP Density=Current scf=(tight) #IOP(5/87=12)Pop=
 (MK,readradii) iop(6/33=2) iop(6/42=6)
 ----------------------------------------------------------------------

 ------------
 SOL molecule
 ------------
 Symbolic Z-matrix:
 Charge =  0 Multiplicity = 1

                         Standard orientation:
 ---------------------------------------------------------------------
 Center     Atomic      Atomic             Coordinates (Angstroms)
 Number     Number       Type             X           Y           Z
 ---------------------------------------------------------------------
      1          6           0        2.461048    2.671295    5.447864
      2          6           0        1.904807    2.520921    4.038118
      3          8           0        2.569348    2.850788    3.061454
      4          1           0        3.498215    2.336369    5.466569
      5          1           0        2.412921    3.718475    5.748088
      6          1           0        1.872182    2.066868    6.137450
      7          7           0        0.648188    2.077327    4.002996
      8          6           0       -0.150109    1.922159    2.801062
      9          6           0       -0.444423    3.294539    2.196371
     10          8           0       -1.200636    4.129620    2.695653
     11          6           0       -1.416179    1.117995    3.059879
     12          6           0       -2.363874    0.851434    1.890682
     13          8           0       -1.926447    1.108891    0.752230
     14          8           0       -3.512743    0.396904    2.053476
     15          1           0        0.273609    1.612644    4.823947
     16          1           0        0.399561    1.422231    2.007819
     17          1           0       -1.953199    1.636323    3.854326
     18          1           0       -1.168529    0.114834    3.412777
     19          7           0        0.173003    3.639362    1.070856
     20          6           0        0.254477    4.997162    0.561404
     21          6           0       -0.986502    5.526747   -0.141385
     22          8           0       -1.381905    6.671593    0.055802
     23          6           0        1.452869    5.082723   -0.380369
     24          6           0        1.851486    6.558096   -0.453705
     25          6           0        3.059870    6.743630   -1.367098
     26          6           0        3.352713    8.193601   -1.768255
     27          7           0        4.079677    8.856669   -0.684851
     28          1           0        0.561544    2.926918    0.483950
     29          1           0        0.411459    5.562543    1.484876
     30          1           0        1.227048    4.744373   -1.392260
     31          1           0        2.288342    4.489996   -0.017107
     32          1           0        2.134400    6.946370    0.524305
     33          1           0        0.980923    7.094954   -0.840361
     34          1           0        2.750795    6.266821   -2.295336
     35          1           0        3.858916    6.255691   -0.810464
     36          1           0        2.393055    8.637668   -2.043323
     37          1           0        3.971871    8.314980   -2.653416
     38          1           0        4.235658    9.793638   -1.027721
     39          1           0        3.562901    8.970800    0.176786
     40          1           0        4.908627    8.354845   -0.396383
     41          7           0       -1.529644    4.698098   -1.040961
     42          6           0       -2.792782    4.983172   -1.677998
     43          6           0       -3.915381    4.536837   -0.753468
     44          8           0       -5.014345    5.078644   -0.809354
     45          6           0       -3.005901    4.305090   -3.030360
     46          6           0       -2.901312    2.778990   -2.983678
     47          8           0       -2.556632    2.154540   -1.962376
     48          8           0       -3.199267    2.211756   -4.058884
     49          1           0       -1.191600    3.745462   -1.081097
     50          1           0       -2.913107    6.064699   -1.742197
     51          1           0       -2.307878    4.594192   -3.818830
     52          1           0       -3.986117    4.652442   -3.355665
     53          7           0       -3.653286    3.693600    0.243105
     54          6           0       -4.680146    3.204829    1.142472
     55          6           0       -5.689700    2.326561    0.419806
     56          8           0       -6.853823    2.627091    0.665978
     57          1           0       -2.762315    3.227593    0.246142
     58          1           0       -5.317187    3.991192    1.549424
     59          1           0       -4.214240    2.620550    1.937299
     60          7           0       -5.401172    1.417820   -0.518618
     61          6           0       -6.269357    0.341201   -0.941165
     62          6           0       -6.486949   -0.796696    0.046633
     63          8           0       -7.201994   -1.726925   -0.318313
     64          6           0       -5.766100   -0.066737   -2.320483
     65          6           0       -4.354956   -0.633308   -2.259080
     66          7           0       -3.778437   -0.865344   -3.441698
     67          8           0       -3.713291   -0.799338   -1.230635
     68          1           0       -4.410383    1.291801   -0.613789
     69          1           0       -7.271799    0.767080   -1.070155
     70          1           0       -5.904254    0.738056   -3.034991
     71          1           0       -6.314004   -0.957740   -2.632277
     72          1           0       -4.366063   -0.643366   -4.231712
     73          1           0       -2.818859   -1.158884   -3.555914
     74          7           0       -5.765642   -0.817333    1.172639
     75          6           0       -5.891712   -1.820270    2.209522
     76          6           0       -4.759609   -2.836525    2.357064
     77          8           0       -4.830166   -3.677647    3.244834
     78          1           0       -5.032731   -0.141014    1.326372
     79          1           0       -6.840547   -2.345618    2.100339
     80          1           0       -5.928815   -1.309157    3.177554
     81          7           0       -3.697456   -2.624153    1.573273
     82          6           0       -2.623833   -3.583795    1.386936
     83          6           0       -1.268365   -2.909949    1.266776
     84          8           0       -1.097019   -2.032277    0.422660
     85          6           0       -2.759013   -4.373442    0.090061
     86          6           0       -4.150651   -4.581964   -0.457809
     87          6           0       -4.505338   -4.092581   -1.718603
     88          6           0       -5.101209   -5.349122    0.239621
     89          6           0       -5.812802   -4.245367   -2.175324
     90          6           0       -6.414714   -5.537143   -0.196558
     91          6           0       -6.785161   -4.925677   -1.413225
     92          8           0       -8.014751   -5.004407   -1.992629
     93          1           0       -3.748339   -1.801783    1.002205
     94          1           0       -2.701373   -4.223945    2.266877
     95          1           0       -2.407399   -5.390401    0.225932
     96          1           0       -2.119226   -3.978960   -0.700291
     97          1           0       -3.783920   -3.553952   -2.330187
     98          1           0       -4.801375   -5.753731    1.196434
     99          1           0       -6.168559   -3.700045   -3.033788
    100          1           0       -7.078018   -6.136828    0.405277
    101          1           0       -8.496505   -5.561386   -1.376116
    102          7           0       -0.225927   -3.278917    2.016299
    103          6           0        1.160531   -2.915557    1.830277
    104          6           0        1.668753   -3.731748    0.657612
    105          8           0        1.669183   -4.962942    0.780331
    106          6           0        1.894423   -3.007929    3.172838
    107          6           0        1.318201   -1.896904    4.042603
    108          6           0        3.404075   -2.865330    3.072768
    109          6           0        1.559534   -2.229753    5.514224
    110          1           0       -0.387088   -4.061968    2.636266
    111          1           0        1.097406   -1.863525    1.532715
    112          1           0        1.674639   -3.949729    3.678514
    113          1           0        0.232356   -1.911101    3.956932
    114          1           0        1.769302   -0.957767    3.722089
    115          1           0        3.781789   -2.696455    4.082032
    116          1           0        3.851298   -3.690901    2.518400
    117          1           0        3.552665   -1.975450    2.447360
    118          1           0        1.068853   -1.428295    6.063130
    119          1           0        1.149256   -3.216687    5.720945
    120          1           0        2.627694   -2.277847    5.740988
    121          7           0        2.107629   -3.077523   -0.413218
    122          6           0        2.915646   -3.628422   -1.480794
    123          6           0        4.385009   -3.647461   -1.095942
    124          8           0        4.743692   -3.053304   -0.073531
    125          6           0        2.650571   -2.877605   -2.777948
    126          8           0        3.131653   -1.552291   -2.753398
    127          1           0        1.833057   -2.105472   -0.506103
    128          1           0        2.554747   -4.649099   -1.609519
    129          1           0        1.572204   -2.908064   -2.942863
    130          1           0        3.235575   -3.410314   -3.524534
    131          1           0        2.594203   -1.128540   -2.087229
    132          7           0        5.240171   -4.280545   -1.901176
    133          6           0        6.651836   -4.179046   -1.589409
    134          6           0        7.237759   -2.780701   -1.622954
    135          8           0        8.094943   -2.433164   -0.823421
    136          6           0        7.429039   -5.097670   -2.527645
    137          1           0        4.944270   -4.621474   -2.801792
    138          1           0        6.852096   -4.599121   -0.595914
    139          1           0        8.453187   -5.082713   -2.137519
    140          1           0        7.021390   -6.098949   -2.461592
    141          1           0        7.257837   -4.708123   -3.526015
    142          7           0        6.776069   -1.960647   -2.576817
    143          6           0        7.043303   -0.548959   -2.788294
    144          6           0        6.795425    0.301271   -1.548832
    145          8           0        7.460489    1.298288   -1.264143
    146          6           0        6.182336    0.013242   -3.912423
    147          1           0        6.088706   -2.366600   -3.188073
    148          1           0        8.096944   -0.382777   -3.025831
    149          1           0        5.143665   -0.150370   -3.622261
    150          1           0        6.441973    1.072345   -3.971499
    151          1           0        6.417843   -0.511839   -4.841200
    152          7           0        5.800775   -0.114892   -0.768589
    153          6           0        5.403507    0.572783    0.454800
    154          6           0        6.022440   -0.147697    1.640309
    155          8           0        6.388593    0.481360    2.632287
    156          6           0        3.888667    0.497846    0.572044
    157          6           0        3.160361    1.234951   -0.548958
    158          6           0        1.714246    0.788728   -0.712471
    159          8           0        0.765082    1.603734   -0.786309
    160          8           0        1.480125   -0.392414   -1.049950
    161          1           0        5.201301   -0.776055   -1.227059
    162          1           0        5.811831    1.579989    0.540288
    163          1           0        3.600356    0.971995    1.505028
    164          1           0        3.596016   -0.544306    0.635883
    165          1           0        3.644258    0.991124   -1.491822
    166          1           0        3.208865    2.301812   -0.335522
    167          7           0        6.467502   -1.395910    1.504354
    168          6           0        7.336608   -2.003540    2.489667
    169          1           0        8.073611   -2.628960    1.986559
    170          1           0        7.847782   -1.223964    3.054695
    171          1           0        6.744585   -2.616538    3.168978
    172          1           0        6.177837   -1.982710    0.724188
    173         20           0       -1.117185   -0.037822   -1.356453
    174          8           0       -1.064480   -2.108908   -3.067952
    175          1           0       -0.953098   -3.055446   -2.979297
    176          1           0       -1.026992   -1.942719   -4.008364
 ---------------------------------------------------------------------

 SCF Done:  E(RB3LYP) =  -5333.59288494     A.U. after   19 cycles

 The electronic state is 1-A.
 Alpha  occ. eigenvalues -- -145.39580 -19.24228 -19.15807 -19.14549 -19.14068
 Alpha  occ. eigenvalues --  -19.13361 -19.12355 -19.11792 -19.11396 -19.10910
 Alpha  occ. eigenvalues --  -19.10227 -19.09011 -19.08640 -19.07090 -19.06170
 Alpha  occ. eigenvalues --  -19.06166 -19.05610 -19.04884 -19.04780 -19.04643
 Alpha  occ. eigenvalues --  -19.04065 -19.02665 -19.02037 -19.01531 -15.45326
 Alpha  occ. eigenvalues --  -14.59151 -14.40263 -14.37730 -14.37132 -14.35990
 Alpha  occ. eigenvalues --  -14.35352 -14.34950 -14.34740 -14.32021 -14.31986
 Alpha  occ. eigenvalues --  -14.31272 -14.31217 -14.29410 -14.28656 -14.28295
 Alpha  occ. eigenvalues --  -12.58947 -12.58899 -12.58884 -10.35418 -10.32239
 Alpha  occ. eigenvalues --  -10.31205 -10.30464 -10.30168 -10.29021 -10.28826
 Alpha  occ. eigenvalues --  -10.27943 -10.27682 -10.27488 -10.27145 -10.26040
 Alpha  occ. eigenvalues --  -10.25988 -10.25443 -10.24828 -10.24793 -10.24637
 Alpha  occ. eigenvalues --  -10.24516 -10.24461 -10.23614 -10.23390 -10.23309
 Alpha  occ. eigenvalues --  -10.23221 -10.22984 -10.22434 -10.22174 -10.22135
 Alpha  occ. eigenvalues --  -10.21705 -10.21394 -10.21302 -10.21125 -10.21027
 Alpha  occ. eigenvalues --  -10.20916 -10.20061 -10.19560 -10.19267 -10.18860
 Alpha  occ. eigenvalues --  -10.18626 -10.18562 -10.18507 -10.18211 -10.18137
 Alpha  occ. eigenvalues --  -10.18063 -10.17875 -10.17769 -10.17445 -10.17345
 Alpha  occ. eigenvalues --  -10.17295 -10.17285 -10.17121 -10.16729 -10.16328
 Alpha  occ. eigenvalues --  -10.15627 -10.14717  -1.82189  -1.14572  -1.10595
 Alpha  occ. eigenvalues --   -1.10044  -1.09697  -1.09071  -1.07600  -1.07182
 Alpha  occ. eigenvalues --   -1.05496  -1.04841  -1.04504  -1.03888  -1.03545
 Alpha  occ. eigenvalues --   -1.02695  -1.02022  -1.01492  -1.00255  -0.99603
 Alpha  occ. eigenvalues --   -0.99195  -0.99165  -0.99097  -0.98049  -0.97532
 Alpha  occ. eigenvalues --   -0.96988  -0.96873  -0.96418  -0.95352  -0.94448
 Alpha  occ. eigenvalues --   -0.93894  -0.93299  -0.91744  -0.91515  -0.90608
 Alpha  occ. eigenvalues --   -0.90002  -0.89935  -0.89379  -0.89038  -0.88284
 Alpha  occ. eigenvalues --   -0.87597  -0.87165  -0.87006  -0.85751  -0.84546
 Alpha  occ. eigenvalues --   -0.82981  -0.82676  -0.82233  -0.82170  -0.80473
 Alpha  occ. eigenvalues --   -0.79147  -0.78295  -0.77777  -0.77509  -0.76284
 Alpha  occ. eigenvalues --   -0.75158  -0.74564  -0.74223  -0.73209  -0.73002
 Alpha  occ. eigenvalues --   -0.72518  -0.72091  -0.71445  -0.71223  -0.70427
 Alpha  occ. eigenvalues --   -0.69336  -0.68771  -0.68113  -0.67691  -0.67080
 Alpha  occ. eigenvalues --   -0.66892  -0.66172  -0.65076  -0.64720  -0.64465
 Alpha  occ. eigenvalues --   -0.63980  -0.63502  -0.63226  -0.62870  -0.62788
 Alpha  occ. eigenvalues --   -0.62462  -0.61531  -0.61136  -0.60976  -0.60424
 Alpha  occ. eigenvalues --   -0.60245  -0.59247  -0.58403  -0.58260  -0.57798
 Alpha  occ. eigenvalues --   -0.57029  -0.56917  -0.56686  -0.56464  -0.55869
 Alpha  occ. eigenvalues --   -0.55810  -0.55322  -0.55108  -0.54998  -0.54625
 Alpha  occ. eigenvalues --   -0.54414  -0.54096  -0.53616  -0.53472  -0.53220
 Alpha  occ. eigenvalues --   -0.53060  -0.52503  -0.52354  -0.52117  -0.51949
 Alpha  occ. eigenvalues --   -0.51068  -0.50997  -0.50795  -0.50554  -0.50461
 Alpha  occ. eigenvalues --   -0.50218  -0.50098  -0.49478  -0.49324  -0.48906
 Alpha  occ. eigenvalues --   -0.48811  -0.48468  -0.48396  -0.48253  -0.47880
 Alpha  occ. eigenvalues --   -0.47596  -0.47379  -0.47149  -0.47058  -0.46941
 Alpha  occ. eigenvalues --   -0.46570  -0.46471  -0.46152  -0.46040  -0.45783
 Alpha  occ. eigenvalues --   -0.45637  -0.45552  -0.45238  -0.44832  -0.44662
 Alpha  occ. eigenvalues --   -0.44393  -0.44256  -0.44185  -0.44053  -0.43811
 Alpha  occ. eigenvalues --   -0.43676  -0.43463  -0.43335  -0.43194  -0.43045
 Alpha  occ. eigenvalues --   -0.42904  -0.42496  -0.42347  -0.42224  -0.42035
 Alpha  occ. eigenvalues --   -0.41857  -0.41651  -0.41561  -0.41480  -0.41375
 Alpha  occ. eigenvalues --   -0.41347  -0.41198  -0.40839  -0.40717  -0.40587
 Alpha  occ. eigenvalues --   -0.40439  -0.40382  -0.40287  -0.40090  -0.39891
 Alpha  occ. eigenvalues --   -0.39831  -0.39631  -0.39506  -0.39396  -0.39225
 Alpha  occ. eigenvalues --   -0.39176  -0.39093  -0.39025  -0.38875  -0.38817
 Alpha  occ. eigenvalues --   -0.38701  -0.38552  -0.38267  -0.38257  -0.37997
 Alpha  occ. eigenvalues --   -0.37812  -0.37754  -0.37638  -0.37598  -0.37479
 Alpha  occ. eigenvalues --   -0.37300  -0.37062  -0.36826  -0.36660  -0.36564
 Alpha  occ. eigenvalues --   -0.36398  -0.36159  -0.36055  -0.35567  -0.35446
 Alpha  occ. eigenvalues --   -0.35337  -0.35264  -0.35188  -0.34885  -0.34785
 Alpha  occ. eigenvalues --   -0.34504  -0.34273  -0.34104  -0.33797  -0.33728
 Alpha  occ. eigenvalues --   -0.33340  -0.33302  -0.33022  -0.32941  -0.32844
 Alpha  occ. eigenvalues --   -0.32623  -0.32334  -0.32065  -0.32032  -0.31692
 Alpha  occ. eigenvalues --   -0.31574  -0.31469  -0.31076  -0.31024  -0.30863
 Alpha  occ. eigenvalues --   -0.30176  -0.29506  -0.29436  -0.28900  -0.28860
 Alpha  occ. eigenvalues --   -0.28465  -0.28143  -0.28101  -0.27142  -0.26852
 Alpha  occ. eigenvalues --   -0.26754  -0.26441  -0.26373  -0.25384  -0.24922
 Alpha  occ. eigenvalues --   -0.24651  -0.24474  -0.24112  -0.23971  -0.23654
 Alpha  occ. eigenvalues --   -0.23497  -0.22877  -0.22334  -0.22055  -0.22023
 Alpha  occ. eigenvalues --   -0.21865  -0.21598  -0.21176  -0.21167  -0.20890
 Alpha  occ. eigenvalues --   -0.20228  -0.20067  -0.19987  -0.19732  -0.18686
 Alpha  occ. eigenvalues --   -0.18143  -0.17711  -0.16762
 Alpha virt. eigenvalues --   -0.10919  -0.05518  -0.05088  -0.04719  -0.02647
 Alpha virt. eigenvalues --   -0.01252  -0.00930  -0.00645  -0.00487  -0.00191
 Alpha virt. eigenvalues --    0.00395   0.00877   0.01215   0.01512   0.02022

 Mulliken charges:
               1
     1  C    0.053198
     2  C    0.036973
     3  O   -0.294637
     4  H    0.042542
     5  H    0.042017
     6  H   -0.008049
     7  N   -0.114997
     8  C    0.152368
     9  C    0.051152
    10  O   -0.284485
    11  C    0.041631
    12  C    0.151208
    13  O   -0.464058
    14  O   -0.374407
    15  H    0.125131
    16  H   -0.033425
    17  H    0.019792
    18  H    0.008519
    19  N   -0.131666
    20  C    0.131464
    21  C    0.077887
    22  O   -0.278720
    23  C    0.037050
    24  C   -0.034477
    25  C   -0.031185
    26  C    0.047230
    27  N    0.076534
    28  H    0.140309
    29  H   -0.004419
    30  H    0.006663
    31  H    0.029154
    32  H   -0.022387
    33  H    0.032985
    34  H    0.042452
    35  H    0.029520
    36  H    0.089246
    37  H    0.062377
    38  H    0.194422
    39  H    0.190072
    40  H    0.198029
    41  N   -0.155294
    42  C    0.149038
    43  C    0.014162
    44  O   -0.280959
    45  C    0.080293
    46  C    0.093197
    47  O   -0.446565
    48  O   -0.392996
    49  H    0.123898
    50  H   -0.000130
    51  H   -0.009102
    52  H    0.031206
    53  N   -0.153955
    54  C    0.278461
    55  C   -0.036275
    56  O   -0.286126
    57  H    0.144965
    58  H    0.012631
    59  H    0.024796
    60  N   -0.156314
    61  C    0.146265
    62  C    0.071706
    63  O   -0.297318
    64  C    0.073930
    65  C    0.042261
    66  N   -0.005924
    67  O   -0.338083
    68  H    0.150464
    69  H    0.023688
    70  H    0.057651
    71  H    0.031709
    72  H    0.128857
    73  H    0.051419
    74  N   -0.171739
    75  C    0.217476
    76  C    0.035074
    77  O   -0.299188
    78  H    0.151700
    79  H    0.030286
    80  H    0.029182
    81  N   -0.138027
    82  C    0.156913
    83  C    0.124728
    84  O   -0.382184
    85  C    0.179754
    86  C   -0.047238
    87  C    0.006042
    88  C    0.006730
    89  C   -0.006736
    90  C   -0.053981
    91  C    0.185681
    92  O   -0.179371
    93  H    0.155547
    94  H   -0.009054
    95  H    0.005022
    96  H   -0.059179
    97  H   -0.085909
    98  H   -0.025234
    99  H   -0.031044
   100  H   -0.041047
   101  H    0.166977
   102  N   -0.115117
   103  C    0.160804
   104  C    0.070863
   105  O   -0.294941
   106  C   -0.126145
   107  C   -0.031602
   108  C    0.098585
   109  C    0.048534
   110  H    0.128320
   111  H   -0.010868
   112  H   -0.015149
   113  H    0.016347
   114  H    0.008199
   115  H    0.011752
   116  H    0.028377
   117  H    0.006206
   118  H    0.006749
   119  H    0.006905
   120  H    0.010061
   121  N   -0.132241
   122  C    0.055441
   123  C    0.118304
   124  O   -0.274312
   125  C    0.267059
   126  O   -0.325230
   127  H    0.143098
   128  H    0.016832
   129  H   -0.034610
   130  H   -0.022554
   131  H    0.172510
   132  N   -0.120439
   133  C    0.061562
   134  C    0.047376
   135  O   -0.240599
   136  C    0.055089
   137  H    0.119164
   138  H    0.027315
   139  H    0.051821
   140  H    0.028846
   141  H   -0.002233
   142  N   -0.122296
   143  C    0.078757
   144  C    0.035317
   145  O   -0.273643
   146  C    0.032559
   147  H    0.094646
   148  H    0.018265
   149  H    0.027688
   150  H    0.033742
   151  H    0.018699
   152  N   -0.155049
   153  C    0.160027
   154  C    0.056985
   155  O   -0.299194
   156  C   -0.074672
   157  C    0.138666
   158  C    0.184646
   159  O   -0.410144
   160  O   -0.480482
   161  H    0.116341
   162  H    0.013906
   163  H    0.040990
   164  H    0.014959
   165  H    0.003898
   166  H   -0.005184
   167  N   -0.164476
   168  C    0.130701
   169  H    0.013432
   170  H    0.033239
   171  H    0.003443
   172  H    0.142533
   173  Ca   1.294013
   174  O   -0.267258
   175  H    0.220515
   176  H    0.198601
 Sum of Mulliken charges =   0.00000

 Dipole moment (field-independent basis, Debye):
    X=             29.8259    Y=             10.3612    Z=            -14.6437  Tot=             34.8049
 Quadrupole moment (field-independent basis, Debye-Ang):
   XX=           -696.8853   YY=           -315.6913   ZZ=           -525.1554
   XY=            168.6058   XZ=            -39.7626   YZ=              1.4571

 ESP charges:
               1
     1  C   -0.445636
     2  C    0.765953
     3  O   -0.611353
     4  H    0.127416
     5  H    0.133008
     6  H    0.087469
     7  N   -0.659909
     8  C    0.234204
     9  C    0.389852
    10  O   -0.523063
    11  C   -0.421862
    12  C    0.941430
    13  O   -0.750714
    14  O   -0.747169
    15  H    0.357953
    16  H   -0.020744
    17  H    0.118967
    18  H    0.069707
    19  N    0.411604
    20  C   -0.935783
    21  C    0.839749
    22  O   -0.584752
    23  C    0.167660
    24  C    0.231607
    25  C   -0.423607
    26  C    0.189935
    27  N   -0.546600
    28  H   -0.044967
    29  H    0.228536
    30  H   -0.000984
    31  H    0.058842
    32  H   -0.020500
    33  H   -0.008128
    34  H    0.130215
    35  H    0.103690
    36  H    0.089687
    37  H    0.064587
    38  H    0.358997
    39  H    0.366090
    40  H    0.408391
    41  N   -0.500397
    42  C    0.032947
    43  C    0.417826
    44  O   -0.522218
    45  C   -0.257041
    46  C    0.758837
    47  O   -0.837866
    48  O   -0.698718
    49  H    0.386178
    50  H    0.088952
    51  H    0.065440
    52  H    0.101046
    53  N    0.044238
    54  C   -0.263485
    55  C    0.563677
    56  O   -0.565292
    57  H   -0.113188
    58  H    0.124383
    59  H    0.133924
    60  N   -0.309909
    61  C   -0.017290
    62  C    0.333762
    63  O   -0.475174
    64  C   -0.300625
    65  C    0.917442
    66  N   -0.962682
    67  O   -0.652705
    68  H    0.260822
    69  H    0.126773
    70  H    0.143368
    71  H    0.072593
    72  H    0.385891
    73  H    0.426743
    74  N   -0.119021
    75  C   -0.244982
    76  C    0.779626
    77  O   -0.612026
    78  H    0.202466
    79  H    0.112672
    80  H    0.095579
    81  N   -0.676038
    82  C    0.058610
    83  C    0.708524
    84  O   -0.671482
    85  C   -0.178322
    86  C    0.062450
    87  C   -0.101064
    88  C   -0.123497
    89  C   -0.324019
    90  C   -0.359726
    91  C    0.412872
    92  O   -0.520739
    93  H    0.457740
    94  H    0.086815
    95  H    0.055927
    96  H    0.074974
    97  H    0.049181
    98  H    0.151319
    99  H    0.183719
   100  H    0.165260
   101  H    0.392342
   102  N   -0.571707
   103  C   -0.051302
   104  C    0.448345
   105  O   -0.537853
   106  C    0.286524
   107  C    0.154434
   108  C   -0.415241
   109  C   -0.369578
   110  H    0.296568
   111  H    0.094573
   112  H   -0.006512
   113  H    0.011223
   114  H   -0.003484
   115  H    0.122123
   116  H    0.107903
   117  H    0.046181
   118  H    0.077167
   119  H    0.086212
   120  H    0.085363
   121  N   -0.085665
   122  C   -0.192569
   123  C    0.608890
   124  O   -0.431371
   125  C    0.209374
   126  O   -0.571226
   127  H    0.127392
   128  H    0.080868
   129  H   -0.021358
   130  H    0.012968
   131  H    0.344532
   132  N   -0.629312
   133  C    0.279256
   134  C    0.534773
   135  O   -0.523974
   136  C   -0.355369
   137  H    0.349711
   138  H    0.055933
   139  H    0.115183
   140  H    0.115261
   141  H    0.065483
   142  N   -0.584920
   143  C    0.280880
   144  C    0.215113
   145  O   -0.506856
   146  C   -0.388655
   147  H    0.319804
   148  H    0.057465
   149  H    0.082472
   150  H    0.123792
   151  H    0.100273
   152  N    0.079218
   153  C   -0.294354
   154  C    0.500730
   155  O   -0.579532
   156  C    0.377654
   157  C   -0.249077
   158  C    0.787143
   159  O   -0.675960
   160  O   -0.692276
   161  H    0.256557
   162  H    0.141205
   163  H   -0.014762
   164  H   -0.198233
   165  H    0.013533
   166  H    0.029125
   167  N   -0.027386
   168  C   -0.219571
   169  H    0.073533
   170  H    0.117047
   171  H    0.055747
   172  H    0.055992
   173  Ca   1.597929
   174  O   -0.789247
   175  H    0.439764
   176  H    0.408950
 Sum of ESP charges =   0.00000

 Normal termination of Gaussian 09 at Mon Sep 16 20:08:39 2019.
