 Gaussian 16, Revision A.03,
 Gaussian 16:  ES64L-G16RevA.03 25-Dec-2016

 ----------------------------------------------------------------------
 #b3lyp/svp scf=(tight,noincore) Test #IOP(5/87=12) Density=Current Pop
 =(MK,readradii) iop(6/33=2) iop(6/42=6)
 ----------------------------------------------------------------------

 ------------------
 holoCaM_loop3_83.0
 ------------------
 Symbolic Z-matrix:
 Charge =  0 Multiplicity = 1

                         Standard orientation:
 ---------------------------------------------------------------------
 Center     Atomic      Atomic             Coordinates (Angstroms)
 Number     Number       Type             X           Y           Z
 ---------------------------------------------------------------------
      1          6           0        2.255360    3.557097    5.427005
      2          6           0        1.857206    3.081686    4.036660
      3          8           0        2.712930    2.872185    3.187870
      4          1           0        2.627007    4.580363    5.367736
      5          1           0        1.387595    3.523520    6.085350
      6          1           0        3.037630    2.909407    5.823003
      7          7           0        0.543651    2.982839    3.759168
      8          6           0       -0.028398    2.877283    2.437873
      9          6           0        0.172464    4.084445    1.523372
     10          8           0       -0.393970    5.117927    1.861705
     11          6           0       -1.477534    2.400032    2.538043
     12          6           0       -2.102028    1.858705    1.260947
     13          8           0       -2.980390    0.963858    1.294567
     14          8           0       -1.673263    2.256815    0.156199
     15          1           0       -0.074494    3.206330    4.518739
     16          1           0        0.504810    2.046817    1.971165
     17          1           0       -2.070271    3.224496    2.940562
     18          1           0       -1.448565    1.616431    3.294832
     19          7           0        0.707559    3.965733    0.309131
     20          6           0        1.077609    4.982579   -0.658799
     21          6           0        0.152768    5.255040   -1.834696
     22          8           0        0.386693    6.167166   -2.632320
     23          6           0        2.507805    4.822799   -1.157004
     24          6           0        3.523346    4.622960   -0.033064
     25          6           0        3.841056    5.943445    0.665849
     26          6           0        4.602262    5.665612    1.956614
     27          7           0        4.797911    6.947388    2.653946
     28          1           0        0.815567    3.041767   -0.081664
     29          1           0        1.101069    5.924755   -0.111209
     30          1           0        2.784848    5.732592   -1.684378
     31          1           0        2.632879    3.991550   -1.846483
     32          1           0        4.466151    4.228007   -0.407803
     33          1           0        3.075281    3.989788    0.726759
     34          1           0        2.882131    6.432270    0.872278
     35          1           0        4.591624    6.473534    0.074448
     36          1           0        5.485064    5.089046    1.679427
     37          1           0        3.974268    4.928469    2.455256
     38          1           0        5.203566    7.620742    2.034076
     39          1           0        3.935925    7.314730    3.031093
     40          1           0        5.413173    6.978960    3.462250
     41          7           0       -0.843654    4.378489   -1.989297
     42          6           0       -1.948209    4.592465   -2.912049
     43          6           0       -3.324041    4.359411   -2.306020
     44          8           0       -4.283044    4.693871   -2.994897
     45          6           0       -1.824852    3.647499   -4.100293
     46          6           0       -1.792009    2.187994   -3.665589
     47          8           0       -2.847418    1.699602   -3.203544
     48          8           0       -0.687330    1.654934   -3.415730
     49          1           0       -0.957885    3.691118   -1.261373
     50          1           0       -1.854428    5.580994   -3.362511
     51          1           0       -0.808480    3.846381   -4.453891
     52          1           0       -2.604776    3.827690   -4.844235
     53          7           0       -3.424828    4.009893   -1.020804
     54          6           0       -4.515127    4.341867   -0.113919
     55          6           0       -5.483172    3.166569   -0.078403
     56          8           0       -6.453923    3.283395    0.661391
     57          1           0       -2.585065    3.754659   -0.529425
     58          1           0       -5.027793    5.247856   -0.425782
     59          1           0       -4.242902    4.448052    0.936994
     60          7           0       -5.318845    2.057348   -0.787645
     61          6           0       -6.437329    1.142087   -0.943827
     62          6           0       -6.636674    0.213362    0.247026
     63          8           0       -7.717268   -0.379380    0.274817
     64          6           0       -6.228807    0.282184   -2.187847
     65          6           0       -5.099303   -0.741671   -2.211125
     66          7           0       -5.065646   -1.564328   -3.263742
     67          8           0       -4.180047   -0.790522   -1.398363
     68          1           0       -4.550470    2.022236   -1.439310
     69          1           0       -7.344157    1.681742   -1.197074
     70          1           0       -5.973571    1.032328   -2.941797
     71          1           0       -7.193409   -0.159664   -2.412598
     72          1           0       -5.770446   -1.436449   -3.972758
     73          1           0       -4.374798   -2.287508   -3.347647
     74          7           0       -5.681690    0.114902    1.160597
     75          6           0       -5.843150   -0.710817    2.344075
     76          6           0       -5.099613   -2.032654    2.223654
     77          8           0       -5.411172   -2.871934    3.056865
     78          1           0       -4.823091    0.644646    1.092196
     79          1           0       -6.863397   -1.066276    2.402768
     80          1           0       -5.711813   -0.144704    3.264545
     81          7           0       -4.096855   -2.089704    1.344210
     82          6           0       -3.120101   -3.162342    1.278648
     83          6           0       -1.698808   -2.650721    1.095151
     84          8           0       -1.476286   -1.778690    0.261997
     85          6           0       -3.571193   -4.011008    0.084461
     86          6           0       -5.015642   -4.429670    0.159226
     87          6           0       -5.971659   -3.885255   -0.714068
     88          6           0       -5.415713   -5.436391    1.046557
     89          6           0       -7.329087   -4.214014   -0.577295
     90          6           0       -6.776830   -5.738564    1.196729
     91          6           0       -7.772919   -5.092580    0.424322
     92          8           0       -9.100838   -5.350335    0.592522
     93          1           0       -4.090428   -1.201176    0.851689
     94          1           0       -3.152330   -3.718742    2.209605
     95          1           0       -2.883199   -4.824202   -0.105223
     96          1           0       -3.465189   -3.364069   -0.789400
     97          1           0       -5.585127   -3.089858   -1.327613
     98          1           0       -4.771584   -5.875838    1.797346
     99          1           0       -8.097616   -3.764908   -1.194924
    100          1           0       -7.149611   -6.496663    1.859466
    101          1           0       -9.275605   -5.954941    1.311207
    102          7           0       -0.718829   -3.212141    1.799813
    103          6           0        0.654700   -2.739126    1.821569
    104          6           0        1.483511   -3.837344    1.154044
    105          8           0        1.527567   -4.991584    1.598105
    106          6           0        1.097462   -2.353144    3.222526
    107          6           0        0.130993   -1.345078    3.822059
    108          6           0        2.463079   -1.672334    3.068614
    109          6           0        0.640966   -0.748735    5.130112
    110          1           0       -0.935849   -4.013814    2.382929
    111          1           0        0.702198   -1.812113    1.263992
    112          1           0        1.165999   -3.221370    3.881985
    113          1           0       -0.768666   -1.922614    4.056080
    114          1           0       -0.139419   -0.576716    3.103659
    115          1           0        3.232508   -2.226894    2.529965
    116          1           0        2.518288   -0.733517    2.512129
    117          1           0        2.853154   -1.355540    4.032607
    118          1           0        1.270677   -1.410312    5.728092
    119          1           0        1.308379    0.076847    4.862391
    120          1           0       -0.182619   -0.249760    5.644729
    121          7           0        2.025788   -3.515240   -0.022385
    122          6           0        2.905692   -4.254349   -0.903286
    123          6           0        4.388590   -4.079857   -0.624777
    124          8           0        4.730481   -3.179223    0.137698
    125          6           0        2.639094   -3.886536   -2.355815
    126          8           0        2.935922   -2.520498   -2.551603
    127          1           0        1.822814   -2.555218   -0.266633
    128          1           0        2.587363   -5.302991   -0.873020
    129          1           0        1.614289   -4.180643   -2.561914
    130          1           0        3.213151   -4.330548   -3.167610
    131          1           0        2.108625   -2.086078   -2.320391
    132          7           0        5.276751   -4.916212   -1.153720
    133          6           0        6.682528   -4.804880   -0.838290
    134          6           0        7.246433   -3.454297   -1.288108
    135          8           0        8.107284   -2.910578   -0.607443
    136          6           0        7.508325   -5.920499   -1.479582
    137          1           0        4.951436   -5.496979   -1.919409
    138          1           0        6.941525   -4.936186    0.217494
    139          1           0        7.137516   -6.084067   -2.496020
    140          1           0        8.553562   -5.634546   -1.512890
    141          1           0        7.424113   -6.782629   -0.814570
    142          7           0        6.819892   -2.844052   -2.399983
    143          6           0        7.257380   -1.525790   -2.798088
    144          6           0        6.921888   -0.415217   -1.810276
    145          8           0        7.629226    0.591617   -1.754958
    146          6           0        6.523666   -1.164055   -4.091035
    147          1           0        6.163446   -3.381934   -2.938927
    148          1           0        8.323754   -1.594289   -2.995460
    149          1           0        5.460802   -0.976036   -3.928344
    150          1           0        6.947098   -0.250379   -4.503712
    151          1           0        6.745308   -1.925023   -4.848599
    152          7           0        5.800080   -0.544111   -1.102157
    153          6           0        5.355297    0.296627    0.002890
    154          6           0        5.908439   -0.098135    1.371355
    155          8           0        6.155438    0.773407    2.202743
    156          6           0        3.828319    0.340640    0.054854
    157          6           0        3.021516    0.503664   -1.229627
    158          6           0        1.527431    0.334562   -1.029340
    159          8           0        0.815113    1.347217   -0.809262
    160          8           0        1.020463   -0.805274   -1.153668
    161          1           0        5.339517   -1.383426   -1.414458
    162          1           0        5.628513    1.341885   -0.130105
    163          1           0        3.511280    1.034582    0.837050
    164          1           0        3.575752   -0.612408    0.510604
    165          1           0        3.398910   -0.126936   -2.023867
    166          1           0        3.071546    1.556163   -1.513075
    167          7           0        6.357570   -1.341520    1.566484
    168          6           0        7.152978   -1.828336    2.676815
    169          1           0        7.023372   -1.166336    3.533697
    170          1           0        6.828482   -2.834616    2.942991
    171          1           0        8.204198   -1.849022    2.390100
    172          1           0        5.968572   -2.086619    1.012311
    173         20           0       -1.377834    0.241390   -1.390663
    174          8           0       -1.247918   -1.765633   -3.141571
    175          1           0       -1.769438   -1.954617   -3.917717
    176          1           0       -1.105297   -2.624363   -2.741768
 ---------------------------------------------------------------------

 SCF Done:  E(RB3LYP) =  -5333.60035166     A.U. after   15 cycles

 The electronic state is 1-A.
 Alpha  occ. eigenvalues -- -145.34959 -19.17826 -19.14724 -19.14629 -19.13437
 Alpha  occ. eigenvalues --  -19.12019 -19.11592 -19.11010 -19.10063 -19.10060
 Alpha  occ. eigenvalues --  -19.09376 -19.08547 -19.08438 -19.07782 -19.07445
 Alpha  occ. eigenvalues --  -19.07231 -19.06574 -19.06359 -19.05677 -19.05234
 Alpha  occ. eigenvalues --  -19.05112 -19.04620 -19.04039 -19.03729 -15.40701
 Alpha  occ. eigenvalues --  -14.57328 -14.39791 -14.37382 -14.37204 -14.36764
 Alpha  occ. eigenvalues --  -14.36346 -14.36159 -14.33756 -14.33147 -14.32414
 Alpha  occ. eigenvalues --  -14.32129 -14.31447 -14.31232 -14.30839 -14.30691
 Alpha  occ. eigenvalues --  -12.54294 -12.54287 -12.54275 -10.31747 -10.31577
 Alpha  occ. eigenvalues --  -10.30457 -10.30337 -10.29844 -10.28994 -10.28951
 Alpha  occ. eigenvalues --  -10.27601 -10.27444 -10.27029 -10.26617 -10.26585
 Alpha  occ. eigenvalues --  -10.26099 -10.26041 -10.26015 -10.25235 -10.24932
 Alpha  occ. eigenvalues --  -10.24367 -10.24343 -10.23954 -10.23658 -10.23583
 Alpha  occ. eigenvalues --  -10.23506 -10.23234 -10.23205 -10.23139 -10.22797
 Alpha  occ. eigenvalues --  -10.22429 -10.22047 -10.21952 -10.21941 -10.20762
 Alpha  occ. eigenvalues --  -10.20537 -10.19869 -10.19698 -10.19694 -10.19593
 Alpha  occ. eigenvalues --  -10.19562 -10.19090 -10.19083 -10.18945 -10.18504
 Alpha  occ. eigenvalues --  -10.18285 -10.18273 -10.18086 -10.17793 -10.17304
 Alpha  occ. eigenvalues --  -10.17257 -10.17177 -10.17114 -10.17052 -10.16947
 Alpha  occ. eigenvalues --  -10.16792 -10.13996  -1.77682  -1.12274  -1.07035
 Alpha  occ. eigenvalues --   -1.05842  -1.05618  -1.05532  -1.04706  -1.04619
 Alpha  occ. eigenvalues --   -1.03905  -1.03829  -1.03713  -1.03623  -1.03174
 Alpha  occ. eigenvalues --   -1.02815  -1.02461  -1.02313  -1.01708  -1.00518
 Alpha  occ. eigenvalues --   -0.99951  -0.99286  -0.99273  -0.99008  -0.98813
 Alpha  occ. eigenvalues --   -0.98114  -0.97604  -0.96329  -0.93971  -0.93693
 Alpha  occ. eigenvalues --   -0.93457  -0.93301  -0.92796  -0.91831  -0.91170
 Alpha  occ. eigenvalues --   -0.91078  -0.90514  -0.90195  -0.89496  -0.88705
 Alpha  occ. eigenvalues --   -0.88280  -0.87810  -0.87642  -0.87085  -0.87010
 Alpha  occ. eigenvalues --   -0.82852  -0.82513  -0.81711  -0.80045  -0.79096
 Alpha  occ. eigenvalues --   -0.78855  -0.78430  -0.77683  -0.77026  -0.76719
 Alpha  occ. eigenvalues --   -0.75338  -0.74702  -0.74541  -0.73107  -0.72223
 Alpha  occ. eigenvalues --   -0.72017  -0.71881  -0.71741  -0.70327  -0.70218
 Alpha  occ. eigenvalues --   -0.69854  -0.68792  -0.68689  -0.67669  -0.67499
 Alpha  occ. eigenvalues --   -0.67063  -0.65776  -0.65535  -0.65421  -0.64691
 Alpha  occ. eigenvalues --   -0.64157  -0.62913  -0.62123  -0.61741  -0.61261
 Alpha  occ. eigenvalues --   -0.60791  -0.60781  -0.60352  -0.59879  -0.59234
 Alpha  occ. eigenvalues --   -0.59175  -0.59041  -0.58147  -0.57652  -0.57469
 Alpha  occ. eigenvalues --   -0.57364  -0.56950  -0.56943  -0.56715  -0.56153
 Alpha  occ. eigenvalues --   -0.55788  -0.55733  -0.55557  -0.55269  -0.55238
 Alpha  occ. eigenvalues --   -0.54902  -0.54859  -0.54639  -0.54363  -0.53779
 Alpha  occ. eigenvalues --   -0.53105  -0.53000  -0.52600  -0.52554  -0.51420
 Alpha  occ. eigenvalues --   -0.51362  -0.50978  -0.50648  -0.50171  -0.49988
 Alpha  occ. eigenvalues --   -0.49588  -0.49568  -0.49238  -0.49020  -0.48538
 Alpha  occ. eigenvalues --   -0.48511  -0.48121  -0.47945  -0.47668  -0.47574
 Alpha  occ. eigenvalues --   -0.47384  -0.47081  -0.47045  -0.46801  -0.46542
 Alpha  occ. eigenvalues --   -0.46514  -0.46069  -0.45769  -0.45637  -0.45504
 Alpha  occ. eigenvalues --   -0.45217  -0.44911  -0.44868  -0.44407  -0.44217
 Alpha  occ. eigenvalues --   -0.44063  -0.43936  -0.43787  -0.43720  -0.43714
 Alpha  occ. eigenvalues --   -0.43539  -0.43491  -0.43222  -0.43092  -0.42980
 Alpha  occ. eigenvalues --   -0.42957  -0.42743  -0.42690  -0.42540  -0.42406
 Alpha  occ. eigenvalues --   -0.42284  -0.42215  -0.41956  -0.41854  -0.41576
 Alpha  occ. eigenvalues --   -0.41348  -0.41236  -0.41049  -0.40956  -0.40817
 Alpha  occ. eigenvalues --   -0.40579  -0.40402  -0.40211  -0.40134  -0.39872
 Alpha  occ. eigenvalues --   -0.39844  -0.39691  -0.39616  -0.39587  -0.39496
 Alpha  occ. eigenvalues --   -0.39292  -0.39255  -0.39108  -0.38870  -0.38787
 Alpha  occ. eigenvalues --   -0.38717  -0.38512  -0.38393  -0.38221  -0.38090
 Alpha  occ. eigenvalues --   -0.37983  -0.37932  -0.37899  -0.37799  -0.37421
 Alpha  occ. eigenvalues --   -0.37259  -0.37116  -0.36865  -0.36669  -0.36619
 Alpha  occ. eigenvalues --   -0.36597  -0.36346  -0.36252  -0.35943  -0.35901
 Alpha  occ. eigenvalues --   -0.35595  -0.35493  -0.35265  -0.35136  -0.35054
 Alpha  occ. eigenvalues --   -0.34952  -0.34801  -0.34692  -0.34507  -0.34420
 Alpha  occ. eigenvalues --   -0.34061  -0.33813  -0.33383  -0.33204  -0.33071
 Alpha  occ. eigenvalues --   -0.32510  -0.32000  -0.31821  -0.31755  -0.31626
 Alpha  occ. eigenvalues --   -0.31342  -0.31266  -0.31166  -0.30490  -0.30480
 Alpha  occ. eigenvalues --   -0.29113  -0.28985  -0.28751  -0.28536  -0.28192
 Alpha  occ. eigenvalues --   -0.27925  -0.27498  -0.27016  -0.26943  -0.26808
 Alpha  occ. eigenvalues --   -0.26704  -0.26567  -0.25660  -0.25608  -0.25544
 Alpha  occ. eigenvalues --   -0.25484  -0.25263  -0.24864  -0.24548  -0.24171
 Alpha  occ. eigenvalues --   -0.23851  -0.23783  -0.23627  -0.23145  -0.23132
 Alpha  occ. eigenvalues --   -0.22701  -0.22529  -0.22364  -0.22090  -0.21792
 Alpha  occ. eigenvalues --   -0.21679  -0.21467  -0.20671  -0.20523  -0.20412
 Alpha  occ. eigenvalues --   -0.20027  -0.19566  -0.19430
 Alpha virt. eigenvalues --   -0.09294  -0.03343  -0.03005  -0.02304  -0.01545
 Alpha virt. eigenvalues --   -0.00690  -0.00553   0.00156   0.00262   0.00482
 Alpha virt. eigenvalues --    0.00999   0.01057   0.01405   0.01670   0.02304

 Mulliken charges:
               1
     1  C    0.068252
     2  C    0.029768
     3  O   -0.282327
     4  H    0.007360
     5  H    0.006755
     6  H    0.051112
     7  N   -0.116013
     8  C    0.111465
     9  C    0.057397
    10  O   -0.301108
    11  C    0.061199
    12  C    0.139043
    13  O   -0.365618
    14  O   -0.461774
    15  H    0.116424
    16  H   -0.002689
    17  H    0.024428
    18  H    0.012953
    19  N   -0.148422
    20  C    0.116858
    21  C    0.091428
    22  O   -0.295301
    23  C    0.048537
    24  C    0.011090
    25  C   -0.101258
    26  C    0.023191
    27  N    0.099267
    28  H    0.164867
    29  H   -0.007563
    30  H    0.004001
    31  H    0.026285
    32  H    0.018896
    33  H    0.042161
    34  H    0.031792
    35  H    0.013485
    36  H    0.089020
    37  H    0.082604
    38  H    0.176671
    39  H    0.190249
    40  H    0.179747
    41  N   -0.140669
    42  C    0.041167
    43  C    0.082032
    44  O   -0.281594
    45  C    0.163269
    46  C    0.069367
    47  O   -0.424456
    48  O   -0.420619
    49  H    0.158560
    50  H    0.032186
    51  H   -0.010053
    52  H    0.014998
    53  N   -0.173921
    54  C    0.240773
    55  C   -0.000382
    56  O   -0.306732
    57  H    0.122366
    58  H    0.034296
    59  H    0.028228
    60  N   -0.141228
    61  C    0.163997
    62  C    0.067090
    63  O   -0.292781
    64  C    0.003070
    65  C    0.086451
    66  N   -0.039726
    67  O   -0.309891
    68  H    0.153335
    69  H    0.014771
    70  H    0.060663
    71  H    0.034796
    72  H    0.123119
    73  H    0.109616
    74  N   -0.179269
    75  C    0.222167
    76  C    0.019807
    77  O   -0.299542
    78  H    0.163819
    79  H    0.025345
    80  H    0.033146
    81  N   -0.162610
    82  C    0.151667
    83  C    0.131134
    84  O   -0.357415
    85  C    0.170887
    86  C   -0.031013
    87  C    0.046983
    88  C    0.025691
    89  C   -0.004897
    90  C   -0.044397
    91  C    0.158214
    92  O   -0.190238
    93  H    0.162342
    94  H   -0.010280
    95  H   -0.021968
    96  H   -0.043905
    97  H   -0.087261
    98  H   -0.033712
    99  H   -0.028232
   100  H   -0.060464
   101  H    0.172156
   102  N   -0.121888
   103  C    0.110272
   104  C    0.083644
   105  O   -0.292015
   106  C   -0.075772
   107  C    0.021936
   108  C    0.022307
   109  C    0.028693
   110  H    0.134726
   111  H    0.018839
   112  H   -0.003676
   113  H   -0.005431
   114  H    0.013035
   115  H    0.022085
   116  H    0.009624
   117  H    0.001755
   118  H    0.017039
   119  H    0.004365
   120  H    0.005194
   121  N   -0.126258
   122  C    0.129664
   123  C    0.110615
   124  O   -0.273726
   125  C    0.181228
   126  O   -0.329979
   127  H    0.133143
   128  H    0.015557
   129  H    0.003587
   130  H   -0.001659
   131  H    0.179756
   132  N   -0.109353
   133  C    0.093998
   134  C    0.022516
   135  O   -0.261236
   136  C    0.047111
   137  H    0.120464
   138  H    0.024784
   139  H    0.002797
   140  H    0.042293
   141  H    0.037709
   142  N   -0.129946
   143  C    0.094558
   144  C    0.054694
   145  O   -0.279212
   146  C    0.028770
   147  H    0.096677
   148  H    0.016225
   149  H    0.035177
   150  H    0.029911
   151  H    0.009768
   152  N   -0.134715
   153  C    0.195846
   154  C    0.059917
   155  O   -0.300973
   156  C   -0.098427
   157  C    0.149212
   158  C    0.178400
   159  O   -0.421276
   160  O   -0.455245
   161  H    0.123299
   162  H   -0.005000
   163  H    0.037857
   164  H   -0.013501
   165  H    0.001304
   166  H   -0.010708
   167  N   -0.163734
   168  C    0.133491
   169  H    0.018906
   170  H    0.004812
   171  H    0.029191
   172  H    0.134520
   173  Ca   1.246024
   174  O   -0.257109
   175  H    0.176188
   176  H    0.172870
 Sum of Mulliken charges =  -0.00000

 Dipole moment (field-independent basis, Debye):
    X=             21.7432    Y=              2.1722    Z=              6.0934  Tot=             22.6851
 Quadrupole moment (field-independent basis, Debye-Ang):
   XX=           -637.0237   YY=           -402.9390   ZZ=           -510.3328
   XY=            111.7080   XZ=             42.9458   YZ=            140.2515

 ESP charges:
               1
     1  C   -0.572091
     2  C    0.808200
     3  O   -0.604308
     4  H    0.147455
     5  H    0.131566
     6  H    0.166493
     7  N   -0.658159
     8  C    0.332219
     9  C    0.460478
    10  O   -0.595731
    11  C   -0.302081
    12  C    0.809660
    13  O   -0.765258
    14  O   -0.607303
    15  H    0.323506
    16  H   -0.031522
    17  H    0.093251
    18  H    0.078082
    19  N   -0.211587
    20  C    0.465836
    21  C    0.164136
    22  O   -0.509403
    23  C   -0.127669
    24  C    0.153897
    25  C   -0.330643
    26  C    0.359758
    27  N   -0.577476
    28  H    0.108765
    29  H   -0.055261
    30  H    0.021032
    31  H    0.051493
    32  H    0.034016
    33  H   -0.025110
    34  H    0.088156
    35  H    0.068872
    36  H    0.040012
    37  H   -0.022096
    38  H    0.358834
    39  H    0.382185
    40  H    0.359404
    41  N    0.168670
    42  C    0.009459
    43  C    0.418424
    44  O   -0.506121
    45  C   -0.376094
    46  C    0.733307
    47  O   -0.681269
    48  O   -0.718400
    49  H   -0.263807
    50  H    0.120557
    51  H    0.097004
    52  H    0.121328
    53  N   -0.342213
    54  C   -0.224926
    55  C    0.550154
    56  O   -0.592130
    57  H    0.320975
    58  H    0.149961
    59  H    0.124813
    60  N   -0.283068
    61  C   -0.068363
    62  C    0.407190
    63  O   -0.541212
    64  C   -0.140417
    65  C    0.689376
    66  N   -0.800651
    67  O   -0.645908
    68  H    0.290653
    69  H    0.132970
    70  H    0.067460
    71  H    0.068257
    72  H    0.355277
    73  H    0.371330
    74  N    0.076651
    75  C   -0.529388
    76  C    0.828677
    77  O   -0.591013
    78  H    0.145860
    79  H    0.175585
    80  H    0.163550
    81  N   -0.627864
    82  C    0.085183
    83  C    0.645059
    84  O   -0.537672
    85  C   -0.174277
    86  C    0.235202
    87  C   -0.351006
    88  C   -0.316461
    89  C   -0.150240
    90  C   -0.154560
    91  C    0.310174
    92  O   -0.546107
    93  H    0.361857
    94  H    0.046398
    95  H    0.045007
    96  H    0.035123
    97  H    0.192723
    98  H    0.178480
    99  H    0.145684
   100  H    0.097550
   101  H    0.414013
   102  N   -0.515711
   103  C   -0.373489
   104  C    0.615036
   105  O   -0.555448
   106  C    0.437282
   107  C    0.181297
   108  C   -0.480085
   109  C   -0.377027
   110  H    0.341444
   111  H    0.099456
   112  H   -0.031908
   113  H   -0.045461
   114  H   -0.003304
   115  H    0.075039
   116  H    0.147056
   117  H    0.099704
   118  H    0.084174
   119  H    0.089064
   120  H    0.088247
   121  N   -0.188087
   122  C   -0.212511
   123  C    0.541359
   124  O   -0.408982
   125  C    0.049227
   126  O   -0.514466
   127  H    0.255025
   128  H    0.112304
   129  H    0.065152
   130  H    0.070737
   131  H    0.350449
   132  N   -0.551827
   133  C    0.321340
   134  C    0.436356
   135  O   -0.537241
   136  C   -0.439364
   137  H    0.308591
   138  H    0.064787
   139  H    0.093529
   140  H    0.146053
   141  H    0.129169
   142  N   -0.412373
   143  C    0.148107
   144  C    0.297007
   145  O   -0.520304
   146  C   -0.299100
   147  H    0.269751
   148  H    0.091501
   149  H    0.081664
   150  H    0.112479
   151  H    0.071273
   152  N   -0.013343
   153  C   -0.144839
   154  C    0.567081
   155  O   -0.588066
   156  C   -0.166079
   157  C   -0.105161
   158  C    0.698792
   159  O   -0.579495
   160  O   -0.678440
   161  H    0.191498
   162  H    0.099771
   163  H    0.079471
   164  H    0.012217
   165  H    0.021314
   166  H    0.021244
   167  N   -0.086648
   168  C   -0.239623
   169  H    0.094150
   170  H    0.085464
   171  H    0.097024
   172  H    0.086829
   173  Ca   1.484487
   174  O   -0.773760
   175  H    0.417085
   176  H    0.383674
 Sum of ESP charges =  -0.00000

 Normal termination of Gaussian 16 at Sat Sep 14 23:24:33 2019.
