 Gaussian 16, Revision A.03,
 Gaussian 16:  ES64L-G16RevA.03 25-Dec-2016

 ----------------------------------------------------------------------
 #b3lyp/svp scf=(tight,noincore) Test #IOP(5/87=12) Density=Current Pop
 =(MK,readradii) iop(6/33=2) iop(6/42=6)
 ----------------------------------------------------------------------

 ------------------
 holoCaM_loop3_73.0
 ------------------
 Symbolic Z-matrix:
 Charge =  0 Multiplicity = 1

                         Standard orientation:
 ---------------------------------------------------------------------
 Center     Atomic      Atomic             Coordinates (Angstroms)
 Number     Number       Type             X           Y           Z
 ---------------------------------------------------------------------
      1          6           0        2.887889    2.453741    4.505110
      2          6           0        1.970886    2.628301    3.309478
      3          8           0        2.375960    2.923940    2.188357
      4          1           0        3.820249    1.991508    4.182130
      5          1           0        3.099393    3.427422    4.946697
      6          1           0        2.403578    1.816174    5.245055
      7          7           0        0.671132    2.415780    3.532357
      8          6           0       -0.362305    2.454212    2.518143
      9          6           0       -0.680339    3.842151    1.968070
     10          8           0       -1.468865    4.577321    2.560989
     11          6           0       -1.578802    1.645833    2.958095
     12          6           0       -2.593711    1.407565    1.856738
     13          8           0       -2.250243    1.545955    0.662972
     14          8           0       -3.711799    0.970948    2.191769
     15          1           0        0.367656    2.231821    4.481125
     16          1           0        0.010512    1.973536    1.600233
     17          1           0       -2.086776    2.031770    3.840544
     18          1           0       -1.158082    0.669767    3.220564
     19          7           0       -0.063033    4.240768    0.854276
     20          6           0       -0.276668    5.519272    0.224047
     21          6           0       -1.616137    5.667202   -0.466199
     22          8           0       -2.266856    6.662516   -0.137542
     23          6           0        0.876037    5.693849   -0.761089
     24          6           0        2.255011    5.707413   -0.100146
     25          6           0        3.356584    6.105091   -1.074717
     26          6           0        4.803317    5.842936   -0.671433
     27          7           0        5.247663    6.551562    0.532978
     28          1           0        0.535629    3.574800    0.379943
     29          1           0       -0.236026    6.334040    0.943631
     30          1           0        0.616299    6.639881   -1.238227
     31          1           0        0.867684    4.912762   -1.524524
     32          1           0        2.442739    4.736401    0.357230
     33          1           0        2.258712    6.357062    0.775549
     34          1           0        3.279697    7.172417   -1.278443
     35          1           0        3.128730    5.524931   -1.975437
     36          1           0        5.481956    6.077461   -1.487550
     37          1           0        4.877976    4.751858   -0.601612
     38          1           0        4.984422    7.530925    0.603360
     39          1           0        4.806070    6.232458    1.376582
     40          1           0        6.235025    6.485114    0.723243
     41          7           0       -2.005229    4.810357   -1.406265
     42          6           0       -3.270575    5.009119   -2.091826
     43          6           0       -4.458835    4.823535   -1.150447
     44          8           0       -5.552101    5.267532   -1.477611
     45          6           0       -3.222537    4.072124   -3.293796
     46          6           0       -2.773331    2.654648   -2.961718
     47          8           0       -1.631153    2.253631   -3.277018
     48          8           0       -3.457974    1.956983   -2.191050
     49          1           0       -1.493952    3.955405   -1.606647
     50          1           0       -3.152336    6.012518   -2.490588
     51          1           0       -2.530601    4.418589   -4.062033
     52          1           0       -4.215966    4.024151   -3.747445
     53          7           0       -4.266349    4.050240   -0.074778
     54          6           0       -5.392074    3.702366    0.762912
     55          6           0       -6.242191    2.503856    0.386248
     56          8           0       -7.373062    2.355443    0.848853
     57          1           0       -3.393584    3.614090    0.155341
     58          1           0       -6.037401    4.570562    0.934051
     59          1           0       -5.073381    3.464598    1.779574
     60          7           0       -5.719502    1.641338   -0.488829
     61          6           0       -6.429544    0.487219   -1.001907
     62          6           0       -6.575986   -0.655600   -0.010383
     63          8           0       -7.310412   -1.604343   -0.274211
     64          6           0       -5.799783   -0.008413   -2.300810
     65          6           0       -4.509468   -0.787713   -2.136260
     66          7           0       -4.130557   -1.414556   -3.250887
     67          8           0       -3.762225   -0.718432   -1.156552
     68          1           0       -4.868715    1.917296   -0.977611
     69          1           0       -7.425778    0.873655   -1.215178
     70          1           0       -5.622796    0.730437   -3.085270
     71          1           0       -6.534167   -0.693534   -2.736114
     72          1           0       -4.577509   -1.308547   -4.159895
     73          1           0       -3.319880   -2.014185   -3.210293
     74          7           0       -5.906975   -0.690950    1.143773
     75          6           0       -5.987280   -1.687900    2.195696
     76          6           0       -4.998852   -2.839701    2.063925
     77          8           0       -5.191119   -3.848735    2.734510
     78          1           0       -5.296788    0.072719    1.411132
     79          1           0       -6.966149   -2.177682    2.207012
     80          1           0       -5.780570   -1.174036    3.125704
     81          7           0       -3.938613   -2.645156    1.279166
     82          6           0       -2.848016   -3.571935    1.016911
     83          6           0       -1.496793   -2.893471    0.943525
     84          8           0       -1.379656   -1.853138    0.289548
     85          6           0       -3.096662   -4.231145   -0.340666
     86          6           0       -4.354725   -5.031626   -0.609382
     87          6           0       -5.257042   -4.652931   -1.605481
     88          6           0       -4.670169   -6.023161    0.326008
     89          6           0       -6.464171   -5.340318   -1.772631
     90          6           0       -5.841919   -6.768852    0.103641
     91          6           0       -6.752093   -6.427511   -0.917814
     92          8           0       -8.012548   -6.941763   -0.881788
     93          1           0       -3.964769   -1.783046    0.770460
     94          1           0       -2.882226   -4.319412    1.813220
     95          1           0       -2.301510   -4.966467   -0.481859
     96          1           0       -3.002830   -3.484662   -1.130323
     97          1           0       -5.033849   -3.811623   -2.247577
     98          1           0       -4.003405   -6.248262    1.141210
     99          1           0       -7.182898   -5.098885   -2.540577
    100          1           0       -6.166016   -7.465678    0.859944
    101          1           0       -8.067947   -7.812322   -0.485232
    102          7           0       -0.430026   -3.516153    1.451437
    103          6           0        0.904669   -2.953168    1.569079
    104          6           0        1.770984   -3.829442    0.678774
    105          8           0        1.818525   -5.056040    0.791008
    106          6           0        1.329550   -2.867850    3.035229
    107          6           0        0.559097   -1.808401    3.815273
    108          6           0        2.818798   -2.519565    3.058440
    109          6           0        0.783603   -1.794726    5.322858
    110          1           0       -0.556397   -4.458119    1.781935
    111          1           0        0.946732   -1.955042    1.130700
    112          1           0        1.123436   -3.791251    3.572116
    113          1           0       -0.501183   -1.852899    3.570476
    114          1           0        0.905518   -0.844806    3.439937
    115          1           0        3.087603   -2.475644    4.113340
    116          1           0        3.307661   -3.390190    2.635680
    117          1           0        3.064831   -1.582849    2.556614
    118          1           0        1.836873   -1.773025    5.627078
    119          1           0        0.301947   -0.879287    5.657642
    120          1           0        0.350374   -2.689045    5.765017
    121          7           0        2.487907   -3.181095   -0.238269
    122          6           0        3.485846   -3.758171   -1.121106
    123          6           0        4.903982   -3.638734   -0.584892
    124          8           0        5.131966   -2.832757    0.318337
    125          6           0        3.289573   -3.087135   -2.478783
    126          8           0        3.871702   -1.802318   -2.363142
    127          1           0        2.340110   -2.175685   -0.206541
    128          1           0        3.230050   -4.804454   -1.239682
    129          1           0        2.248721   -3.047156   -2.794897
    130          1           0        3.799737   -3.568024   -3.304845
    131          1           0        3.548533   -1.268467   -3.084990
    132          7           0        5.846322   -4.330048   -1.226983
    133          6           0        7.252685   -4.217832   -0.917064
    134          6           0        7.814289   -2.835641   -1.234317
    135          8           0        8.865792   -2.425959   -0.736017
    136          6           0        7.995380   -5.322343   -1.665503
    137          1           0        5.547833   -5.070910   -1.849340
    138          1           0        7.315339   -4.292761    0.163843
    139          1           0        7.875621   -5.093538   -2.722719
    140          1           0        9.050458   -5.211710   -1.394264
    141          1           0        7.516028   -6.295006   -1.543242
    142          7           0        7.147508   -2.060119   -2.087410
    143          6           0        7.556052   -0.752424   -2.547221
    144          6           0        7.191329    0.264537   -1.471411
    145          8           0        8.108545    0.904954   -0.967743
    146          6           0        6.933677   -0.389963   -3.890118
    147          1           0        6.279411   -2.401163   -2.475477
    148          1           0        8.634147   -0.628447   -2.720833
    149          1           0        5.835686   -0.376729   -3.908542
    150          1           0        7.257779    0.603156   -4.211323
    151          1           0        7.229803   -1.062762   -4.690525
    152          7           0        5.944570    0.202551   -1.009511
    153          6           0        5.402616    0.821987    0.182329
    154          6           0        6.128382    0.432222    1.466365
    155          8           0        6.333428    1.310888    2.285390
    156          6           0        3.939414    0.475028    0.437003
    157          6           0        3.152228    1.218064   -0.634601
    158          6           0        1.656543    0.960324   -0.556520
    159          8           0        1.211266   -0.200641   -0.467142
    160          8           0        0.888483    1.940378   -0.681733
    161          1           0        5.305928   -0.442214   -1.455061
    162          1           0        5.564216    1.885337    0.005210
    163          1           0        3.511811    0.882235    1.353921
    164          1           0        3.793288   -0.592416    0.264345
    165          1           0        3.530743    0.905399   -1.608545
    166          1           0        3.372498    2.289044   -0.584785
    167          7           0        6.644538   -0.798615    1.617105
    168          6           0        7.504969   -1.182871    2.717198
    169          1           0        8.421678   -1.623503    2.324258
    170          1           0        7.751247   -0.303056    3.311146
    171          1           0        6.991237   -1.911842    3.343382
    172          1           0        6.348360   -1.491610    0.951119
    173         20           0       -1.371926    0.431870   -1.422783
    174          8           0        0.345557    0.274632   -3.580960
    175          1           0       -0.062544    0.762888   -4.300029
    176          1           0        1.281516    0.316776   -3.755614
 ---------------------------------------------------------------------

 SCF Done:  E(RB3LYP) =  -5333.62063590     A.U. after   20 cycles

 The electronic state is 1-A.
 Alpha  occ. eigenvalues -- -145.38142 -19.20236 -19.18235 -19.14711 -19.13734
 Alpha  occ. eigenvalues --  -19.11743 -19.11122 -19.10507 -19.10289 -19.09885
 Alpha  occ. eigenvalues --  -19.09528 -19.08443 -19.08099 -19.07665 -19.07375
 Alpha  occ. eigenvalues --  -19.07370 -19.06869 -19.05966 -19.04894 -19.04751
 Alpha  occ. eigenvalues --  -19.03894 -19.03723 -19.02819 -19.02053 -15.43833
 Alpha  occ. eigenvalues --  -14.58265 -14.40662 -14.37822 -14.37379 -14.36455
 Alpha  occ. eigenvalues --  -14.36174 -14.36038 -14.35118 -14.33354 -14.32720
 Alpha  occ. eigenvalues --  -14.31893 -14.31110 -14.30429 -14.28761 -14.28270
 Alpha  occ. eigenvalues --  -12.57466 -12.57410 -12.57397 -10.34324 -10.33003
 Alpha  occ. eigenvalues --  -10.30351 -10.30309 -10.29263 -10.29128 -10.28766
 Alpha  occ. eigenvalues --  -10.28538 -10.28294 -10.27332 -10.26918 -10.26807
 Alpha  occ. eigenvalues --  -10.26789 -10.26676 -10.26135 -10.25520 -10.25150
 Alpha  occ. eigenvalues --  -10.24583 -10.23909 -10.23550 -10.23152 -10.22903
 Alpha  occ. eigenvalues --  -10.22866 -10.22821 -10.22812 -10.22747 -10.22688
 Alpha  occ. eigenvalues --  -10.22360 -10.22288 -10.21687 -10.21575 -10.20920
 Alpha  occ. eigenvalues --  -10.20823 -10.20219 -10.19981 -10.19580 -10.19430
 Alpha  occ. eigenvalues --  -10.19037 -10.19014 -10.18722 -10.18574 -10.17961
 Alpha  occ. eigenvalues --  -10.17608 -10.17541 -10.17516 -10.17460 -10.17182
 Alpha  occ. eigenvalues --  -10.17105 -10.16983 -10.16885 -10.16543 -10.16536
 Alpha  occ. eigenvalues --  -10.16527 -10.15298  -1.80565  -1.13436  -1.08741
 Alpha  occ. eigenvalues --   -1.08244  -1.07999  -1.07802  -1.07334  -1.04490
 Alpha  occ. eigenvalues --   -1.04299  -1.04144  -1.03710  -1.03191  -1.02815
 Alpha  occ. eigenvalues --   -1.02787  -1.02745  -1.02470  -1.02440  -1.00811
 Alpha  occ. eigenvalues --   -1.00362  -0.98940  -0.98006  -0.97860  -0.97630
 Alpha  occ. eigenvalues --   -0.97571  -0.97098  -0.95668  -0.94508  -0.93528
 Alpha  occ. eigenvalues --   -0.92912  -0.92757  -0.92554  -0.92339  -0.92075
 Alpha  occ. eigenvalues --   -0.91291  -0.90554  -0.89670  -0.89055  -0.88782
 Alpha  occ. eigenvalues --   -0.88145  -0.87776  -0.86996  -0.85972  -0.84954
 Alpha  occ. eigenvalues --   -0.83095  -0.82593  -0.81688  -0.81303  -0.80801
 Alpha  occ. eigenvalues --   -0.79538  -0.78669  -0.77130  -0.77023  -0.76042
 Alpha  occ. eigenvalues --   -0.75745  -0.74857  -0.74339  -0.72630  -0.72108
 Alpha  occ. eigenvalues --   -0.71995  -0.71722  -0.71629  -0.70885  -0.70485
 Alpha  occ. eigenvalues --   -0.70133  -0.69313  -0.68938  -0.68431  -0.68189
 Alpha  occ. eigenvalues --   -0.67585  -0.66576  -0.65315  -0.64948  -0.64223
 Alpha  occ. eigenvalues --   -0.63875  -0.63593  -0.62886  -0.62269  -0.61959
 Alpha  occ. eigenvalues --   -0.61847  -0.61205  -0.60853  -0.60327  -0.60176
 Alpha  occ. eigenvalues --   -0.59949  -0.59821  -0.59240  -0.58827  -0.58020
 Alpha  occ. eigenvalues --   -0.57768  -0.56954  -0.56726  -0.56584  -0.56478
 Alpha  occ. eigenvalues --   -0.56449  -0.55629  -0.55410  -0.55269  -0.54785
 Alpha  occ. eigenvalues --   -0.54408  -0.54198  -0.53647  -0.53567  -0.53153
 Alpha  occ. eigenvalues --   -0.52840  -0.52674  -0.52578  -0.52244  -0.51780
 Alpha  occ. eigenvalues --   -0.51703  -0.50859  -0.50546  -0.50406  -0.50231
 Alpha  occ. eigenvalues --   -0.50202  -0.49461  -0.49058  -0.49014  -0.48748
 Alpha  occ. eigenvalues --   -0.48677  -0.48321  -0.48006  -0.47810  -0.47242
 Alpha  occ. eigenvalues --   -0.47210  -0.47084  -0.46898  -0.46624  -0.46524
 Alpha  occ. eigenvalues --   -0.46309  -0.46207  -0.46175  -0.45842  -0.45660
 Alpha  occ. eigenvalues --   -0.45270  -0.45217  -0.44783  -0.44683  -0.44617
 Alpha  occ. eigenvalues --   -0.44443  -0.44250  -0.44098  -0.43959  -0.43777
 Alpha  occ. eigenvalues --   -0.43621  -0.43319  -0.43135  -0.42991  -0.42951
 Alpha  occ. eigenvalues --   -0.42888  -0.42781  -0.42572  -0.42385  -0.42262
 Alpha  occ. eigenvalues --   -0.42222  -0.42050  -0.41954  -0.41870  -0.41738
 Alpha  occ. eigenvalues --   -0.41367  -0.41339  -0.41087  -0.40963  -0.40848
 Alpha  occ. eigenvalues --   -0.40696  -0.40596  -0.40457  -0.40377  -0.40284
 Alpha  occ. eigenvalues --   -0.40092  -0.40020  -0.39972  -0.39757  -0.39603
 Alpha  occ. eigenvalues --   -0.39431  -0.39329  -0.39222  -0.39108  -0.38886
 Alpha  occ. eigenvalues --   -0.38732  -0.38430  -0.38301  -0.38222  -0.38010
 Alpha  occ. eigenvalues --   -0.37929  -0.37780  -0.37733  -0.37621  -0.37571
 Alpha  occ. eigenvalues --   -0.37433  -0.37179  -0.37028  -0.36998  -0.36576
 Alpha  occ. eigenvalues --   -0.36519  -0.36407  -0.36065  -0.35902  -0.35748
 Alpha  occ. eigenvalues --   -0.35593  -0.35462  -0.35344  -0.35279  -0.35095
 Alpha  occ. eigenvalues --   -0.34878  -0.34388  -0.34263  -0.34113  -0.34052
 Alpha  occ. eigenvalues --   -0.33786  -0.33481  -0.33318  -0.32873  -0.32801
 Alpha  occ. eigenvalues --   -0.32522  -0.32350  -0.32258  -0.32162  -0.32138
 Alpha  occ. eigenvalues --   -0.31797  -0.31319  -0.31107  -0.30398  -0.30231
 Alpha  occ. eigenvalues --   -0.29542  -0.29421  -0.29278  -0.27775  -0.27549
 Alpha  occ. eigenvalues --   -0.27256  -0.27171  -0.27100  -0.26710  -0.26648
 Alpha  occ. eigenvalues --   -0.26274  -0.25966  -0.25820  -0.25720  -0.25457
 Alpha  occ. eigenvalues --   -0.25289  -0.25126  -0.24715  -0.24158  -0.23861
 Alpha  occ. eigenvalues --   -0.23696  -0.23593  -0.23474  -0.22899  -0.22603
 Alpha  occ. eigenvalues --   -0.22265  -0.22006  -0.21696  -0.21432  -0.21263
 Alpha  occ. eigenvalues --   -0.20763  -0.20441  -0.20283  -0.19899  -0.18963
 Alpha  occ. eigenvalues --   -0.18580  -0.18223  -0.18101
 Alpha virt. eigenvalues --   -0.09840  -0.04981  -0.04126  -0.03202  -0.03038
 Alpha virt. eigenvalues --   -0.01411  -0.01164  -0.00658  -0.00176   0.00026
 Alpha virt. eigenvalues --    0.00353   0.00870   0.01169   0.01561   0.02077

 Mulliken charges:
               1
     1  C    0.053909
     2  C    0.028264
     3  O   -0.316623
     4  H    0.048144
     5  H    0.027987
     6  H    0.008522
     7  N   -0.109642
     8  C    0.099228
     9  C    0.042944
    10  O   -0.284728
    11  C    0.062163
    12  C    0.152044
    13  O   -0.481805
    14  O   -0.358070
    15  H    0.118838
    16  H    0.012679
    17  H    0.012006
    18  H    0.003309
    19  N   -0.139742
    20  C    0.170791
    21  C    0.061337
    22  O   -0.261607
    23  C   -0.016521
    24  C    0.006700
    25  C   -0.028237
    26  C    0.058498
    27  N    0.078932
    28  H    0.153851
    29  H   -0.012153
    30  H    0.006168
    31  H    0.018853
    32  H    0.040787
    33  H   -0.035263
    34  H    0.016363
    35  H    0.048436
    36  H    0.060030
    37  H    0.096232
    38  H    0.181521
    39  H    0.189961
    40  H    0.194830
    41  N   -0.187922
    42  C    0.119785
    43  C    0.125729
    44  O   -0.274516
    45  C    0.141165
    46  C    0.033363
    47  O   -0.446759
    48  O   -0.379932
    49  H    0.140582
    50  H    0.007522
    51  H   -0.012815
    52  H    0.017055
    53  N   -0.163034
    54  C    0.215141
    55  C    0.023481
    56  O   -0.301179
    57  H    0.147898
    58  H    0.020351
    59  H    0.032397
    60  N   -0.165274
    61  C    0.187487
    62  C    0.036856
    63  O   -0.296651
    64  C    0.034245
    65  C    0.097863
    66  N   -0.060658
    67  O   -0.324879
    68  H    0.149162
    69  H    0.016554
    70  H    0.038936
    71  H    0.024450
    72  H    0.134181
    73  H    0.118277
    74  N   -0.170945
    75  C    0.235819
    76  C    0.008433
    77  O   -0.304975
    78  H    0.154395
    79  H    0.032323
    80  H    0.035648
    81  N   -0.137107
    82  C    0.154031
    83  C    0.113479
    84  O   -0.339390
    85  C    0.140577
    86  C   -0.004004
    87  C    0.021008
    88  C    0.020463
    89  C   -0.001453
    90  C   -0.036138
    91  C    0.157646
    92  O   -0.210878
    93  H    0.151812
    94  H   -0.009877
    95  H   -0.016134
    96  H   -0.053647
    97  H   -0.075645
    98  H   -0.036376
    99  H   -0.031481
   100  H   -0.039492
   101  H    0.174384
   102  N   -0.122105
   103  C    0.144634
   104  C    0.037766
   105  O   -0.295071
   106  C   -0.073160
   107  C   -0.023943
   108  C    0.073593
   109  C    0.040160
   110  H    0.126843
   111  H    0.030822
   112  H   -0.022831
   113  H    0.023608
   114  H   -0.007899
   115  H   -0.007028
   116  H    0.018590
   117  H    0.020082
   118  H    0.006733
   119  H    0.008508
   120  H    0.011864
   121  N   -0.143237
   122  C    0.121704
   123  C    0.109311
   124  O   -0.262381
   125  C    0.203549
   126  O   -0.307429
   127  H    0.151719
   128  H    0.022334
   129  H    0.032373
   130  H   -0.014536
   131  H    0.179900
   132  N   -0.149159
   133  C    0.099871
   134  C    0.036693
   135  O   -0.263003
   136  C    0.057454
   137  H    0.125765
   138  H    0.031327
   139  H   -0.002042
   140  H    0.059437
   141  H    0.033466
   142  N   -0.122073
   143  C    0.095077
   144  C    0.049128
   145  O   -0.250875
   146  C    0.041362
   147  H    0.110014
   148  H    0.024502
   149  H   -0.033354
   150  H    0.023147
   151  H    0.015245
   152  N   -0.149364
   153  C    0.121831
   154  C    0.069207
   155  O   -0.296208
   156  C   -0.026462
   157  C    0.112864
   158  C    0.146068
   159  O   -0.394137
   160  O   -0.404959
   161  H    0.121637
   162  H   -0.038636
   163  H    0.054985
   164  H    0.024579
   165  H   -0.072199
   166  H   -0.040428
   167  N   -0.164677
   168  C    0.130577
   169  H    0.028179
   170  H    0.031172
   171  H    0.011211
   172  H    0.128334
   173  Ca   1.287029
   174  O   -0.289489
   175  H    0.188506
   176  H    0.163658
 Sum of Mulliken charges =  -0.00000

 Dipole moment (field-independent basis, Debye):
    X=             35.0883    Y=              3.9709    Z=            -14.5139  Tot=             38.1786
 Quadrupole moment (field-independent basis, Debye-Ang):
   XX=           -687.5374   YY=           -449.8380   ZZ=           -496.3904
   XY=            138.6983   XZ=              2.9776   YZ=             28.0640

 ESP charges:
               1
     1  C   -0.373080
     2  C    0.760505
     3  O   -0.657186
     4  H    0.110473
     5  H    0.101425
     6  H    0.082941
     7  N   -0.740966
     8  C    0.414474
     9  C    0.569631
    10  O   -0.569544
    11  C   -0.553876
    12  C    0.940024
    13  O   -0.886119
    14  O   -0.690775
    15  H    0.365738
    16  H   -0.011954
    17  H    0.127520
    18  H    0.129865
    19  N   -0.494694
    20  C    0.183874
    21  C    0.447467
    22  O   -0.531902
    23  C   -0.467272
    24  C    0.411078
    25  C   -0.394172
    26  C    0.251529
    27  N   -0.456078
    28  H    0.326290
    29  H    0.062437
    30  H    0.118486
    31  H    0.117884
    32  H   -0.051245
    33  H   -0.053664
    34  H    0.077065
    35  H    0.133466
    36  H    0.050170
    37  H    0.031469
    38  H    0.346651
    39  H    0.343025
    40  H    0.352167
    41  N   -0.278289
    42  C   -0.103509
    43  C    0.493477
    44  O   -0.532351
    45  C   -0.236384
    46  C    0.704861
    47  O   -0.739165
    48  O   -0.710497
    49  H    0.242110
    50  H    0.134947
    51  H    0.065234
    52  H    0.104178
    53  N   -0.140970
    54  C   -0.289256
    55  C    0.550601
    56  O   -0.574576
    57  H    0.219973
    58  H    0.135882
    59  H    0.133975
    60  N   -0.245355
    61  C   -0.139781
    62  C    0.266345
    63  O   -0.479546
    64  C   -0.173042
    65  C    0.864744
    66  N   -0.913634
    67  O   -0.657261
    68  H    0.252281
    69  H    0.150369
    70  H    0.096102
    71  H    0.062079
    72  H    0.385638
    73  H    0.389591
    74  N    0.180082
    75  C   -0.618900
    76  C    0.859903
    77  O   -0.604473
    78  H    0.151352
    79  H    0.193209
    80  H    0.181750
    81  N   -0.652355
    82  C    0.199128
    83  C    0.585862
    84  O   -0.583482
    85  C    0.421262
    86  C   -0.247165
    87  C   -0.096571
    88  C    0.100762
    89  C   -0.204217
    90  C   -0.414845
    91  C    0.338353
    92  O   -0.488596
    93  H    0.327425
    94  H   -0.000722
    95  H   -0.108842
    96  H   -0.145179
    97  H    0.110623
    98  H    0.061934
    99  H    0.126996
   100  H    0.179999
   101  H    0.371622
   102  N   -0.644177
   103  C   -0.167254
   104  C    0.765740
   105  O   -0.596302
   106  C    0.209891
   107  C    0.205259
   108  C   -0.339752
   109  C   -0.369934
   110  H    0.340932
   111  H    0.138217
   112  H   -0.000105
   113  H   -0.014661
   114  H    0.018021
   115  H    0.089468
   116  H    0.074512
   117  H    0.025485
   118  H    0.089281
   119  H    0.076741
   120  H    0.081799
   121  N   -0.490922
   122  C    0.062588
   123  C    0.464364
   124  O   -0.400476
   125  C    0.044638
   126  O   -0.362539
   127  H    0.298595
   128  H    0.068380
   129  H    0.073119
   130  H    0.006257
   131  H    0.364859
   132  N   -0.415277
   133  C    0.104364
   134  C    0.544871
   135  O   -0.525566
   136  C   -0.368367
   137  H    0.288815
   138  H    0.084690
   139  H    0.092863
   140  H    0.132013
   141  H    0.125854
   142  N   -0.417197
   143  C    0.194807
   144  C    0.315319
   145  O   -0.492825
   146  C   -0.265993
   147  H    0.205109
   148  H    0.078653
   149  H    0.032290
   150  H    0.091327
   151  H    0.076285
   152  N   -0.077533
   153  C   -0.170491
   154  C    0.411607
   155  O   -0.560694
   156  C   -0.033368
   157  C   -0.596490
   158  C    1.064715
   159  O   -0.782325
   160  O   -0.831129
   161  H    0.069053
   162  H    0.122109
   163  H    0.176110
   164  H   -0.030173
   165  H    0.075706
   166  H    0.206164
   167  N    0.028886
   168  C   -0.176265
   169  H    0.074542
   170  H    0.099285
   171  H    0.046269
   172  H    0.081382
   173  Ca   1.637005
   174  O   -0.851181
   175  H    0.426143
   176  H    0.409804
 Sum of ESP charges =   0.00000

 Normal termination of Gaussian 16 at Sat Sep 14 22:40:59 2019.
