 Gaussian 16, Revision A.03,
 Gaussian 16:  ES64L-G16RevA.03 25-Dec-2016

 ----------------------------------------------------------------------
 #b3lyp/svp scf=(tight,noincore) Test #IOP(5/87=12) Density=Current Pop
 =(MK,readradii) iop(6/33=2) iop(6/42=6)
 ----------------------------------------------------------------------

 ------------------
 holoCaM_loop3_65.0
 ------------------
 Symbolic Z-matrix:
 Charge =  0 Multiplicity = 1

                         Standard orientation:
 ---------------------------------------------------------------------
 Center     Atomic      Atomic             Coordinates (Angstroms)
 Number     Number       Type             X           Y           Z
 ---------------------------------------------------------------------
      1          6           0        2.461647    2.416789    5.003749
      2          6           0        1.757469    2.277597    3.653764
      3          8           0        2.443814    2.173175    2.641031
      4          1           0        2.315498    1.506551    5.584831
      5          1           0        3.528105    2.577285    4.843646
      6          1           0        2.043470    3.264913    5.546206
      7          7           0        0.436909    2.442933    3.567834
      8          6           0       -0.321382    2.411983    2.332545
      9          6           0       -0.385299    3.724647    1.561423
     10          8           0       -1.001480    4.678014    2.017946
     11          6           0       -1.664198    1.786960    2.730905
     12          6           0       -2.637836    1.552164    1.583778
     13          8           0       -3.824400    1.223563    1.804884
     14          8           0       -2.224988    1.697604    0.417200
     15          1           0       -0.046868    2.370536    4.453282
     16          1           0        0.229366    1.743001    1.676162
     17          1           0       -2.066721    2.358443    3.569285
     18          1           0       -1.456140    0.777461    3.081653
     19          7           0        0.200189    3.866908    0.366825
     20          6           0        0.509273    5.069162   -0.384809
     21          6           0       -0.513164    5.403472   -1.458196
     22          8           0       -0.569088    6.521655   -1.965285
     23          6           0        1.935732    5.153599   -0.895284
     24          6           0        3.044945    4.870886    0.118038
     25          6           0        2.940633    5.660973    1.423519
     26          6           0        4.255404    5.625575    2.187079
     27          7           0        4.278310    6.606042    3.280496
     28          1           0        0.553696    3.008298   -0.041491
     29          1           0        0.348228    5.904626    0.298320
     30          1           0        2.155755    6.188647   -1.166698
     31          1           0        2.022143    4.500192   -1.766256
     32          1           0        3.996289    5.240150   -0.286422
     33          1           0        3.155917    3.812564    0.336533
     34          1           0        2.235198    5.120919    2.059839
     35          1           0        2.682965    6.684121    1.175983
     36          1           0        5.091951    5.842494    1.520871
     37          1           0        4.415217    4.615280    2.569001
     38          1           0        3.941780    7.531558    3.039940
     39          1           0        3.681393    6.378627    4.057460
     40          1           0        5.262134    6.703018    3.503177
     41          7           0       -1.379857    4.484550   -1.883080
     42          6           0       -2.590714    4.858913   -2.576606
     43          6           0       -3.850017    4.767349   -1.724213
     44          8           0       -4.927128    5.253133   -2.098840
     45          6           0       -2.759102    3.985102   -3.821878
     46          6           0       -2.634542    2.480192   -3.750944
     47          8           0       -2.750670    1.895993   -4.853407
     48          8           0       -2.321447    1.911950   -2.674620
     49          1           0       -1.279021    3.503804   -1.610925
     50          1           0       -2.495087    5.897935   -2.851174
     51          1           0       -2.103754    4.428547   -4.570260
     52          1           0       -3.720884    4.170260   -4.304777
     53          7           0       -3.738977    4.223594   -0.510871
     54          6           0       -4.858622    4.064851    0.392343
     55          6           0       -5.840485    2.965957    0.002756
     56          8           0       -7.025534    2.983986    0.347334
     57          1           0       -2.820327    3.844617   -0.346677
     58          1           0       -5.411854    4.993994    0.332968
     59          1           0       -4.528159    3.812899    1.404181
     60          7           0       -5.393954    1.922552   -0.692957
     61          6           0       -6.209027    0.798224   -1.129811
     62          6           0       -6.529655   -0.242446   -0.067924
     63          8           0       -7.390759   -1.074787   -0.350426
     64          6           0       -5.655646    0.210745   -2.421608
     65          6           0       -4.519329   -0.793016   -2.276535
     66          7           0       -4.555667   -1.986156   -2.886124
     67          8           0       -3.544357   -0.648764   -1.549884
     68          1           0       -4.420135    1.888415   -0.970286
     69          1           0       -7.233442    1.066746   -1.383522
     70          1           0       -5.255109    0.927453   -3.143549
     71          1           0       -6.500182   -0.319726   -2.850397
     72          1           0       -5.359203   -2.082387   -3.496999
     73          1           0       -3.864325   -2.718512   -2.826115
     74          7           0       -6.041933   -0.201999    1.165888
     75          6           0       -6.235758   -1.179697    2.220325
     76          6           0       -5.212495   -2.308257    2.164790
     77          8           0       -5.383847   -3.355715    2.783879
     78          1           0       -5.218222    0.366829    1.322841
     79          1           0       -7.241564   -1.590322    2.247527
     80          1           0       -5.979625   -0.696783    3.158350
     81          7           0       -4.087868   -2.133848    1.465365
     82          6           0       -3.060951   -3.146880    1.347863
     83          6           0       -1.692884   -2.491997    1.322961
     84          8           0       -1.499173   -1.436906    0.719423
     85          6           0       -3.253919   -3.996785    0.087615
     86          6           0       -4.548621   -4.765377    0.024268
     87          6           0       -5.634031   -4.120570   -0.583688
     88          6           0       -4.725833   -6.028119    0.603128
     89          6           0       -6.816929   -4.827309   -0.825288
     90          6           0       -5.872827   -6.756243    0.281818
     91          6           0       -6.942468   -6.171994   -0.421972
     92          8           0       -8.183753   -6.646975   -0.731976
     93          1           0       -3.885918   -1.206265    1.105494
     94          1           0       -3.110342   -3.809640    2.207229
     95          1           0       -2.457434   -4.727650    0.124329
     96          1           0       -3.163077   -3.368610   -0.801510
     97          1           0       -5.645130   -3.073831   -0.824344
     98          1           0       -3.930817   -6.474117    1.183762
     99          1           0       -7.713368   -4.453768   -1.301695
    100          1           0       -6.084617   -7.763821    0.643663
    101          1           0       -8.396841   -7.478593   -0.287448
    102          7           0       -0.682564   -3.181937    1.855256
    103          6           0        0.687455   -2.687297    1.931933
    104          6           0        1.663405   -3.662915    1.303450
    105          8           0        1.665420   -4.875009    1.535448
    106          6           0        1.084157   -2.498833    3.391148
    107          6           0        0.229874   -1.498298    4.166861
    108          6           0        2.537238   -2.036611    3.480064
    109          6           0        0.184207   -1.700307    5.682119
    110          1           0       -0.893748   -4.118600    2.155694
    111          1           0        0.719737   -1.718457    1.435641
    112          1           0        1.038532   -3.471465    3.869903
    113          1           0       -0.814568   -1.525005    3.855369
    114          1           0        0.525685   -0.471964    3.970814
    115          1           0        2.761145   -1.703059    4.486299
    116          1           0        3.235983   -2.832015    3.200264
    117          1           0        2.772813   -1.236704    2.774407
    118          1           0       -0.185432   -2.685143    5.925361
    119          1           0        1.193965   -1.665367    6.103744
    120          1           0       -0.391262   -0.827460    6.016744
    121          7           0        2.574422   -3.161819    0.467835
    122          6           0        3.383805   -3.928100   -0.461204
    123          6           0        4.905771   -3.771268   -0.398584
    124          8           0        5.413895   -3.059958    0.463708
    125          6           0        2.840012   -3.545082   -1.835135
    126          8           0        2.987344   -2.163898   -2.069062
    127          1           0        2.604124   -2.151018    0.443382
    128          1           0        3.216557   -4.995212   -0.314235
    129          1           0        1.800661   -3.812179   -1.984495
    130          1           0        3.391637   -4.014447   -2.655078
    131          1           0        2.353702   -1.750068   -1.476911
    132          7           0        5.538767   -4.525138   -1.298749
    133          6           0        6.988987   -4.526395   -1.364036
    134          6           0        7.587165   -3.177648   -1.728676
    135          8           0        8.499581   -2.764834   -1.018197
    136          6           0        7.425410   -5.599836   -2.364865
    137          1           0        5.035145   -5.161697   -1.895538
    138          1           0        7.486425   -4.705296   -0.409495
    139          1           0        8.497279   -5.688956   -2.203147
    140          1           0        7.100344   -6.568108   -1.988061
    141          1           0        7.079954   -5.503983   -3.394269
    142          7           0        6.997152   -2.431783   -2.661239
    143          6           0        7.497897   -1.097753   -2.942871
    144          6           0        7.124282   -0.032874   -1.925254
    145          8           0        7.892248    0.877945   -1.611667
    146          6           0        7.004454   -0.682450   -4.327876
    147          1           0        6.107732   -2.689952   -3.069136
    148          1           0        8.581959   -1.177761   -3.060381
    149          1           0        7.378102   -1.323224   -5.129310
    150          1           0        5.942877   -0.464809   -4.194508
    151          1           0        7.519601    0.257462   -4.501050
    152          7           0        5.946529   -0.155479   -1.316349
    153          6           0        5.503431    0.819552   -0.334780
    154          6           0        6.160693    0.688742    1.035146
    155          8           0        6.461900    1.693852    1.677740
    156          6           0        4.032433    0.455961   -0.163406
    157          6           0        3.187116    0.978774   -1.326765
    158          6           0        1.725975    0.733228   -0.983146
    159          8           0        1.292518   -0.417684   -0.746677
    160          8           0        0.913497    1.674390   -1.138684
    161          1           0        5.399262   -0.997823   -1.402111
    162          1           0        5.531923    1.867188   -0.645662
    163          1           0        3.720987    1.017259    0.716223
    164          1           0        3.907957   -0.590619    0.066322
    165          1           0        3.361767    0.430785   -2.247746
    166          1           0        3.344331    2.022385   -1.614968
    167          7           0        6.489888   -0.529563    1.481422
    168          6           0        7.169004   -0.824731    2.733412
    169          1           0        7.877584   -1.638518    2.578393
    170          1           0        7.702761    0.062096    3.075275
    171          1           0        6.435604   -1.120259    3.484108
    172          1           0        6.135360   -1.257031    0.882089
    173         20           0       -1.174258    0.016237   -1.387092
    174          8           0        0.269306    0.116589   -3.751129
    175          1           0        1.185098   -0.029854   -4.005647
    176          1           0       -0.232823   -0.056410   -4.551902
 ---------------------------------------------------------------------

 SCF Done:  E(RB3LYP) =  -5333.59518062     A.U. after   19 cycles

 The electronic state is 1-A.
 Alpha  occ. eigenvalues -- -145.37975 -19.16847 -19.15778 -19.15326 -19.14898
 Alpha  occ. eigenvalues --  -19.13920 -19.12047 -19.12042 -19.11769 -19.11538
 Alpha  occ. eigenvalues --  -19.11407 -19.10094 -19.09648 -19.07831 -19.07697
 Alpha  occ. eigenvalues --  -19.06487 -19.05881 -19.05411 -19.04982 -19.04423
 Alpha  occ. eigenvalues --  -19.03714 -19.03474 -19.03142 -19.00766 -15.43749
 Alpha  occ. eigenvalues --  -14.57737 -14.40609 -14.38893 -14.38211 -14.38046
 Alpha  occ. eigenvalues --  -14.37528 -14.36441 -14.36083 -14.33506 -14.33242
 Alpha  occ. eigenvalues --  -14.32678 -14.30995 -14.30007 -14.29623 -14.29576
 Alpha  occ. eigenvalues --  -12.57380 -12.57321 -12.57290 -10.33138 -10.33037
 Alpha  occ. eigenvalues --  -10.31879 -10.30848 -10.30694 -10.30341 -10.30029
 Alpha  occ. eigenvalues --  -10.29760 -10.28420 -10.27133 -10.26828 -10.26749
 Alpha  occ. eigenvalues --  -10.26635 -10.26333 -10.25505 -10.25487 -10.25354
 Alpha  occ. eigenvalues --  -10.24963 -10.24895 -10.24450 -10.23941 -10.23913
 Alpha  occ. eigenvalues --  -10.23339 -10.23273 -10.23124 -10.22665 -10.22488
 Alpha  occ. eigenvalues --  -10.22315 -10.22266 -10.22111 -10.22105 -10.21607
 Alpha  occ. eigenvalues --  -10.21408 -10.21034 -10.20772 -10.20565 -10.20190
 Alpha  occ. eigenvalues --  -10.19967 -10.19932 -10.19874 -10.19705 -10.19642
 Alpha  occ. eigenvalues --  -10.19487 -10.19246 -10.19207 -10.18398 -10.18179
 Alpha  occ. eigenvalues --  -10.18039 -10.17971 -10.17692 -10.17483 -10.16883
 Alpha  occ. eigenvalues --  -10.16264 -10.12837  -1.80657  -1.12970  -1.08613
 Alpha  occ. eigenvalues --   -1.08228  -1.08091  -1.07637  -1.06625  -1.05891
 Alpha  occ. eigenvalues --   -1.05308  -1.04938  -1.04773  -1.04705  -1.04355
 Alpha  occ. eigenvalues --   -1.03543  -1.02794  -1.02591  -1.01345  -1.00661
 Alpha  occ. eigenvalues --   -1.00153  -0.99901  -0.99479  -0.98501  -0.97594
 Alpha  occ. eigenvalues --   -0.96744  -0.96333  -0.95799  -0.95515  -0.95470
 Alpha  occ. eigenvalues --   -0.94690  -0.94486  -0.93971  -0.92770  -0.90749
 Alpha  occ. eigenvalues --   -0.90415  -0.90258  -0.89739  -0.89525  -0.87964
 Alpha  occ. eigenvalues --   -0.87344  -0.87264  -0.86596  -0.86444  -0.85323
 Alpha  occ. eigenvalues --   -0.84107  -0.83572  -0.82655  -0.80937  -0.80498
 Alpha  occ. eigenvalues --   -0.79376  -0.78943  -0.78758  -0.78190  -0.76408
 Alpha  occ. eigenvalues --   -0.76169  -0.75821  -0.74562  -0.73628  -0.73425
 Alpha  occ. eigenvalues --   -0.73353  -0.72642  -0.71954  -0.71658  -0.70534
 Alpha  occ. eigenvalues --   -0.69991  -0.69683  -0.69375  -0.68432  -0.68318
 Alpha  occ. eigenvalues --   -0.67644  -0.66451  -0.65807  -0.65757  -0.65506
 Alpha  occ. eigenvalues --   -0.65065  -0.63953  -0.62833  -0.62449  -0.62140
 Alpha  occ. eigenvalues --   -0.62080  -0.61320  -0.61285  -0.61113  -0.60754
 Alpha  occ. eigenvalues --   -0.60643  -0.59588  -0.59252  -0.59138  -0.58921
 Alpha  occ. eigenvalues --   -0.57667  -0.57578  -0.56889  -0.56615  -0.56304
 Alpha  occ. eigenvalues --   -0.55953  -0.55749  -0.55455  -0.55368  -0.55311
 Alpha  occ. eigenvalues --   -0.55016  -0.54878  -0.54509  -0.54352  -0.53971
 Alpha  occ. eigenvalues --   -0.53185  -0.52975  -0.52661  -0.52369  -0.52031
 Alpha  occ. eigenvalues --   -0.51826  -0.51387  -0.51135  -0.50801  -0.50511
 Alpha  occ. eigenvalues --   -0.50171  -0.50002  -0.49925  -0.49738  -0.49305
 Alpha  occ. eigenvalues --   -0.49245  -0.48986  -0.48777  -0.48713  -0.48531
 Alpha  occ. eigenvalues --   -0.48089  -0.47814  -0.47754  -0.47365  -0.47160
 Alpha  occ. eigenvalues --   -0.47104  -0.46924  -0.46787  -0.46442  -0.46228
 Alpha  occ. eigenvalues --   -0.46045  -0.45706  -0.45499  -0.45477  -0.45409
 Alpha  occ. eigenvalues --   -0.45210  -0.44955  -0.44715  -0.44593  -0.44319
 Alpha  occ. eigenvalues --   -0.44209  -0.44108  -0.44007  -0.43847  -0.43710
 Alpha  occ. eigenvalues --   -0.43619  -0.43403  -0.43219  -0.42992  -0.42738
 Alpha  occ. eigenvalues --   -0.42575  -0.42475  -0.42337  -0.42230  -0.42082
 Alpha  occ. eigenvalues --   -0.42034  -0.41598  -0.41589  -0.41328  -0.41283
 Alpha  occ. eigenvalues --   -0.41052  -0.41018  -0.40863  -0.40789  -0.40700
 Alpha  occ. eigenvalues --   -0.40595  -0.40447  -0.40369  -0.40215  -0.39925
 Alpha  occ. eigenvalues --   -0.39866  -0.39667  -0.39615  -0.39424  -0.39223
 Alpha  occ. eigenvalues --   -0.39096  -0.39004  -0.38886  -0.38804  -0.38787
 Alpha  occ. eigenvalues --   -0.38619  -0.38379  -0.38327  -0.38162  -0.38033
 Alpha  occ. eigenvalues --   -0.37682  -0.37598  -0.37276  -0.37237  -0.37112
 Alpha  occ. eigenvalues --   -0.36955  -0.36629  -0.36555  -0.36301  -0.36255
 Alpha  occ. eigenvalues --   -0.35903  -0.35560  -0.35513  -0.35383  -0.35206
 Alpha  occ. eigenvalues --   -0.35140  -0.34966  -0.34690  -0.34590  -0.34341
 Alpha  occ. eigenvalues --   -0.34249  -0.34163  -0.33853  -0.33805  -0.33704
 Alpha  occ. eigenvalues --   -0.33088  -0.32692  -0.32369  -0.32138  -0.32071
 Alpha  occ. eigenvalues --   -0.31906  -0.31858  -0.31229  -0.30363  -0.30225
 Alpha  occ. eigenvalues --   -0.30160  -0.29944  -0.29596  -0.29335  -0.29173
 Alpha  occ. eigenvalues --   -0.28982  -0.28828  -0.28497  -0.28186  -0.27721
 Alpha  occ. eigenvalues --   -0.27612  -0.27505  -0.27307  -0.26777  -0.26486
 Alpha  occ. eigenvalues --   -0.25519  -0.24936  -0.24643  -0.24221  -0.24172
 Alpha  occ. eigenvalues --   -0.23966  -0.23524  -0.23434  -0.23304  -0.23231
 Alpha  occ. eigenvalues --   -0.23004  -0.22095  -0.21650  -0.21453  -0.20643
 Alpha  occ. eigenvalues --   -0.20492  -0.20430  -0.20304  -0.19793  -0.19203
 Alpha  occ. eigenvalues --   -0.18659  -0.18239  -0.17060
 Alpha virt. eigenvalues --   -0.09848  -0.04102  -0.03899  -0.03282  -0.02600
 Alpha virt. eigenvalues --   -0.02032  -0.00972  -0.00812  -0.00688  -0.00246
 Alpha virt. eigenvalues --    0.00008   0.00298   0.00722   0.00925   0.01269

 Mulliken charges:
               1
     1  C    0.045876
     2  C    0.012739
     3  O   -0.293011
     4  H    0.042223
     5  H    0.028440
     6  H    0.012343
     7  N   -0.123692
     8  C    0.155230
     9  C    0.050675
    10  O   -0.292269
    11  C    0.041490
    12  C    0.159718
    13  O   -0.380657
    14  O   -0.440120
    15  H    0.116736
    16  H   -0.017493
    17  H    0.015031
    18  H    0.001161
    19  N   -0.155767
    20  C    0.143084
    21  C    0.059775
    22  O   -0.296373
    23  C    0.070556
    24  C    0.008163
    25  C   -0.055945
    26  C   -0.001387
    27  N    0.089294
    28  H    0.148323
    29  H   -0.003499
    30  H    0.004240
    31  H    0.020798
    32  H   -0.006930
    33  H    0.042391
    34  H    0.059744
    35  H    0.013969
    36  H    0.059594
    37  H    0.103631
    38  H    0.180258
    39  H    0.190465
    40  H    0.198476
    41  N   -0.162585
    42  C    0.163138
    43  C    0.023670
    44  O   -0.298143
    45  C    0.036360
    46  C    0.143833
    47  O   -0.393013
    48  O   -0.478696
    49  H    0.149974
    50  H    0.015508
    51  H   -0.000160
    52  H    0.014515
    53  N   -0.164775
    54  C    0.277258
    55  C    0.013480
    56  O   -0.302628
    57  H    0.134416
    58  H    0.014901
    59  H    0.035770
    60  N   -0.139922
    61  C    0.170283
    62  C    0.019991
    63  O   -0.318408
    64  C    0.084217
    65  C    0.074208
    66  N   -0.042630
    67  O   -0.390704
    68  H    0.142033
    69  H    0.035886
    70  H    0.086087
    71  H    0.004722
    72  H    0.130626
    73  H    0.127734
    74  N   -0.137671
    75  C    0.270559
    76  C   -0.000254
    77  O   -0.296884
    78  H    0.151818
    79  H    0.040137
    80  H    0.023360
    81  N   -0.160894
    82  C    0.125727
    83  C    0.111146
    84  O   -0.371327
    85  C    0.189895
    86  C   -0.020916
    87  C    0.003383
    88  C    0.039649
    89  C   -0.010459
    90  C   -0.046331
    91  C    0.127308
    92  O   -0.199975
    93  H    0.142370
    94  H   -0.006829
    95  H   -0.033796
    96  H   -0.053363
    97  H   -0.016979
    98  H   -0.042924
    99  H   -0.015745
   100  H   -0.047602
   101  H    0.173687
   102  N   -0.109087
   103  C    0.153536
   104  C    0.056033
   105  O   -0.283217
   106  C   -0.085141
   107  C   -0.020111
   108  C    0.047801
   109  C    0.038341
   110  H    0.132270
   111  H    0.029944
   112  H   -0.010621
   113  H    0.019119
   114  H   -0.009119
   115  H    0.001989
   116  H    0.028826
   117  H    0.011131
   118  H    0.018236
   119  H   -0.002822
   120  H    0.016032
   121  N   -0.149567
   122  C    0.078868
   123  C    0.132279
   124  O   -0.260001
   125  C    0.228673
   126  O   -0.351431
   127  H    0.150001
   128  H    0.036136
   129  H    0.004041
   130  H   -0.026638
   131  H    0.162455
   132  N   -0.138368
   133  C    0.088167
   134  C    0.051069
   135  O   -0.247600
   136  C    0.034496
   137  H    0.130016
   138  H    0.024706
   139  H    0.037047
   140  H    0.018380
   141  H    0.026957
   142  N   -0.146193
   143  C    0.082043
   144  C    0.085234
   145  O   -0.263314
   146  C    0.043570
   147  H    0.115724
   148  H    0.020735
   149  H    0.030345
   150  H    0.010818
   151  H    0.025602
   152  N   -0.147909
   153  C    0.159800
   154  C    0.057936
   155  O   -0.303129
   156  C   -0.099039
   157  C    0.132333
   158  C    0.167105
   159  O   -0.466888
   160  O   -0.402218
   161  H    0.118445
   162  H   -0.008786
   163  H    0.046581
   164  H   -0.024422
   165  H   -0.006512
   166  H    0.000954
   167  N   -0.155675
   168  C    0.146857
   169  H    0.029984
   170  H    0.029311
   171  H    0.009970
   172  H    0.119131
   173  Ca   1.300633
   174  O   -0.284696
   175  H    0.176462
   176  H    0.185066
 Sum of Mulliken charges =  -0.00000

 Dipole moment (field-independent basis, Debye):
    X=             29.2442    Y=             -2.8818    Z=              9.8487  Tot=             30.9923
 Quadrupole moment (field-independent basis, Debye-Ang):
   XX=           -688.8602   YY=           -445.2287   ZZ=           -500.0161
   XY=            129.2024   XZ=             20.7285   YZ=            143.7804

 ESP charges:
               1
     1  C   -0.500340
     2  C    0.975667
     3  O   -0.700153
     4  H    0.120490
     5  H    0.141980
     6  H    0.104123
     7  N   -0.938412
     8  C    0.607801
     9  C    0.603739
    10  O   -0.601507
    11  C   -0.640004
    12  C    1.034153
    13  O   -0.731411
    14  O   -0.872700
    15  H    0.394978
    16  H   -0.081256
    17  H    0.138146
    18  H    0.143810
    19  N   -0.417863
    20  C   -0.090719
    21  C    0.600157
    22  O   -0.585443
    23  C   -0.177695
    24  C    0.026744
    25  C   -0.099956
    26  C    0.204446
    27  N   -0.466559
    28  H    0.251968
    29  H    0.095130
    30  H    0.083772
    31  H    0.083801
    32  H    0.014004
    33  H    0.030367
    34  H    0.027557
    35  H    0.066910
    36  H    0.044118
    37  H    0.049501
    38  H    0.333851
    39  H    0.351182
    40  H    0.349534
    41  N   -0.383736
    42  C    0.075954
    43  C    0.330491
    44  O   -0.518840
    45  C   -0.372901
    46  C    0.867059
    47  O   -0.702515
    48  O   -0.854590
    49  H    0.300579
    50  H    0.130543
    51  H    0.100788
    52  H    0.102368
    53  N   -0.068642
    54  C   -0.347722
    55  C    0.624197
    56  O   -0.590050
    57  H    0.124915
    58  H    0.149227
    59  H    0.147858
    60  N   -0.311677
    61  C   -0.149461
    62  C    0.509000
    63  O   -0.555623
    64  C   -0.131965
    65  C    0.633921
    66  N   -0.867246
    67  O   -0.546813
    68  H    0.303998
    69  H    0.162849
    70  H    0.108413
    71  H    0.060745
    72  H    0.372549
    73  H    0.422840
    74  N   -0.165541
    75  C   -0.332545
    76  C    0.680811
    77  O   -0.579442
    78  H    0.232084
    79  H    0.166393
    80  H    0.132126
    81  N   -0.541928
    82  C    0.321232
    83  C    0.578851
    84  O   -0.627824
    85  C    0.178212
    86  C   -0.349436
    87  C    0.125589
    88  C    0.187338
    89  C   -0.370065
    90  C   -0.511173
    91  C    0.508111
    92  O   -0.572399
    93  H    0.237593
    94  H   -0.008641
    95  H   -0.044640
    96  H   -0.074974
    97  H    0.081672
    98  H    0.064453
    99  H    0.178071
   100  H    0.157044
   101  H    0.412524
   102  N   -0.692230
   103  C   -0.039598
   104  C    0.710676
   105  O   -0.576710
   106  C   -0.038722
   107  C    0.348268
   108  C   -0.166464
   109  C   -0.426260
   110  H    0.359922
   111  H    0.128956
   112  H    0.055387
   113  H   -0.028567
   114  H   -0.047036
   115  H    0.055639
   116  H    0.042148
   117  H   -0.013090
   118  H    0.105856
   119  H    0.091726
   120  H    0.088694
   121  N   -0.407002
   122  C   -0.086899
   123  C    0.605356
   124  O   -0.458251
   125  C   -0.003446
   126  O   -0.502980
   127  H    0.352516
   128  H    0.109760
   129  H    0.065651
   130  H    0.064925
   131  H    0.339605
   132  N   -0.587321
   133  C    0.278388
   134  C    0.542051
   135  O   -0.538208
   136  C   -0.378487
   137  H    0.326461
   138  H    0.046470
   139  H    0.114434
   140  H    0.104134
   141  H    0.102871
   142  N   -0.610217
   143  C    0.306542
   144  C    0.190327
   145  O   -0.480398
   146  C   -0.396000
   147  H    0.341842
   148  H    0.083208
   149  H    0.119969
   150  H    0.083750
   151  H    0.123673
   152  N    0.098894
   153  C    0.004253
   154  C    0.387625
   155  O   -0.571934
   156  C   -0.419827
   157  C   -0.197980
   158  C    0.868607
   159  O   -0.777210
   160  O   -0.674111
   161  H    0.073907
   162  H    0.087458
   163  H    0.246014
   164  H    0.008775
   165  H    0.050391
   166  H    0.098687
   167  N    0.018684
   168  C   -0.234376
   169  H    0.101865
   170  H    0.113140
   171  H    0.071312
   172  H    0.075576
   173  Ca   1.601148
   174  O   -0.843710
   175  H    0.414561
   176  H    0.423019
 Sum of ESP charges =  -0.00000

 Normal termination of Gaussian 16 at Sat Sep 14 22:40:07 2019.
