 Gaussian 16, Revision A.03,
 Gaussian 16:  ES64L-G16RevA.03 25-Dec-2016

 ----------------------------------------------------------------------
 #b3lyp/svp scf=(tight,noincore) Test #IOP(5/87=12) Density=Current Pop
 =(MK,readradii) iop(6/33=2) iop(6/42=6)
 ----------------------------------------------------------------------

 ------------------
 holoCaM_loop3_76.0
 ------------------
 Symbolic Z-matrix:
 Charge =  0 Multiplicity = 1

                         Standard orientation:
 ---------------------------------------------------------------------
 Center     Atomic      Atomic             Coordinates (Angstroms)
 Number     Number       Type             X           Y           Z
 ---------------------------------------------------------------------
      1          6           0        4.517817    2.947649    4.863765
      2          6           0        3.644816    2.680413    3.644399
      3          8           0        4.197100    2.169726    2.677609
      4          1           0        4.126719    3.806280    5.408517
      5          1           0        4.513012    2.072844    5.514163
      6          1           0        5.537986    3.156699    4.541816
      7          7           0        2.380399    3.124463    3.690957
      8          6           0        1.477118    3.156249    2.566824
      9          6           0        1.716278    4.321194    1.617559
     10          8           0        2.086835    5.415222    2.047898
     11          6           0       -0.003281    3.045089    2.887233
     12          6           0       -0.869235    2.591502    1.722853
     13          8           0       -1.196562    1.392716    1.564832
     14          8           0       -1.340662    3.428577    0.915598
     15          1           0        2.088049    3.630480    4.510395
     16          1           0        1.783081    2.273656    2.007972
     17          1           0       -0.297360    4.039073    3.221918
     18          1           0       -0.093545    2.442791    3.798326
     19          7           0        1.354557    4.178458    0.339950
     20          6           0        1.727933    5.037842   -0.772771
     21          6           0        0.594915    5.390882   -1.728037
     22          8           0        0.860637    6.123420   -2.673066
     23          6           0        2.912469    4.421411   -1.507882
     24          6           0        4.215024    4.333459   -0.712573
     25          6           0        4.785694    5.624159   -0.110553
     26          6           0        6.088671    5.316432    0.627318
     27          7           0        6.626976    6.591887    1.127259
     28          1           0        0.974830    3.281435    0.081963
     29          1           0        2.066066    6.000907   -0.405659
     30          1           0        3.082251    5.173556   -2.281415
     31          1           0        2.627769    3.446400   -1.895049
     32          1           0        4.917313    3.927512   -1.441818
     33          1           0        4.039112    3.610188    0.072305
     34          1           0        4.160083    5.963913    0.722801
     35          1           0        4.973072    6.354804   -0.899189
     36          1           0        6.769398    4.875381   -0.103562
     37          1           0        5.884944    4.571356    1.390965
     38          1           0        7.616797    6.646799    1.328357
     39          1           0        6.606717    7.200408    0.316894
     40          1           0        6.108292    7.023466    1.881651
     41          7           0       -0.619785    4.875665   -1.496180
     42          6           0       -1.682836    5.254551   -2.400098
     43          6           0       -3.052934    5.330797   -1.747857
     44          8           0       -4.008339    5.812340   -2.361303
     45          6           0       -1.721508    4.204978   -3.513427
     46          6           0       -1.935510    2.726995   -3.208192
     47          8           0       -2.068975    2.346302   -2.020648
     48          8           0       -1.933184    1.974146   -4.199561
     49          1           0       -0.723456    4.049913   -0.931481
     50          1           0       -1.546432    6.250201   -2.824215
     51          1           0       -0.824748    4.410665   -4.098845
     52          1           0       -2.524942    4.516069   -4.183887
     53          7           0       -3.191797    4.798138   -0.529049
     54          6           0       -4.385207    4.778152    0.287268
     55          6           0       -5.420139    3.673652    0.097545
     56          8           0       -6.489735    3.879511    0.670421
     57          1           0       -2.389229    4.378028   -0.075186
     58          1           0       -4.914029    5.712734    0.161554
     59          1           0       -4.011301    4.689000    1.306653
     60          7           0       -5.158749    2.674995   -0.745283
     61          6           0       -6.057730    1.615089   -1.177757
     62          6           0       -6.682057    0.647939   -0.190773
     63          8           0       -7.556450   -0.137461   -0.541748
     64          6           0       -5.462121    0.898371   -2.390055
     65          6           0       -4.486936   -0.205612   -2.006342
     66          7           0       -4.248212   -1.105258   -2.963551
     67          8           0       -3.925580   -0.336031   -0.921690
     68          1           0       -4.307339    2.780232   -1.267034
     69          1           0       -6.885546    2.223603   -1.551830
     70          1           0       -4.896458    1.558320   -3.041201
     71          1           0       -6.258386    0.440611   -2.977351
     72          1           0       -4.738312   -1.059748   -3.837697
     73          1           0       -3.767362   -1.976071   -2.779251
     74          7           0       -6.391947    0.779356    1.112210
     75          6           0       -6.711221   -0.172670    2.155000
     76          6           0       -5.650735   -1.227720    2.442643
     77          8           0       -5.751663   -1.736160    3.558618
     78          1           0       -5.839870    1.584750    1.370383
     79          1           0       -7.569936   -0.755013    1.824567
     80          1           0       -7.060662    0.435554    3.000786
     81          7           0       -4.732950   -1.572474    1.533074
     82          6           0       -3.874469   -2.732888    1.609548
     83          6           0       -2.387372   -2.414165    1.637094
     84          8           0       -2.149825   -1.225777    1.367643
     85          6           0       -4.348663   -3.707745    0.537916
     86          6           0       -5.835491   -3.912707    0.388474
     87          6           0       -6.521613   -3.285688   -0.661232
     88          6           0       -6.453999   -4.839736    1.232432
     89          6           0       -7.893888   -3.540412   -0.824867
     90          6           0       -7.816759   -5.111494    1.064406
     91          6           0       -8.523926   -4.482602    0.007377
     92          8           0       -9.833897   -4.710929   -0.260284
     93          1           0       -4.774227   -1.095328    0.640254
     94          1           0       -4.132262   -3.244287    2.533731
     95          1           0       -3.904894   -4.660111    0.821584
     96          1           0       -4.012795   -3.308213   -0.420764
     97          1           0       -6.086333   -2.553430   -1.328862
     98          1           0       -5.812234   -5.202562    2.026532
     99          1           0       -8.429025   -2.958343   -1.555226
    100          1           0       -8.333017   -5.847782    1.663287
    101          1           0      -10.173793   -5.532877    0.096609
    102          7           0       -1.471086   -3.342164    1.893682
    103          6           0       -0.055884   -3.099014    1.739790
    104          6           0        0.428833   -3.964162    0.589717
    105          8           0        0.027485   -5.119937    0.423271
    106          6           0        0.570052   -3.189199    3.127115
    107          6           0        0.365515   -1.941683    3.993123
    108          6           0        2.062113   -3.479024    3.066658
    109          6           0        1.105705   -0.694414    3.536901
    110          1           0       -1.753927   -4.299425    2.079299
    111          1           0        0.148782   -2.070779    1.428272
    112          1           0        0.048024   -4.016244    3.610109
    113          1           0        0.660152   -2.257463    4.991157
    114          1           0       -0.656772   -1.586777    4.044801
    115          1           0        2.559812   -3.424941    4.026383
    116          1           0        2.235349   -4.443052    2.581642
    117          1           0        2.585204   -2.711271    2.497157
    118          1           0        0.922747    0.180675    4.163675
    119          1           0        2.182374   -0.861848    3.513456
    120          1           0        0.765928   -0.481040    2.519491
    121          7           0        1.313475   -3.386681   -0.234495
    122          6           0        1.865349   -3.977196   -1.439039
    123          6           0        3.321344   -4.357229   -1.227721
    124          8           0        3.977789   -3.851846   -0.308337
    125          6           0        1.733384   -3.078686   -2.659926
    126          8           0        0.434871   -2.867918   -3.148640
    127          1           0        1.379051   -2.383731   -0.248332
    128          1           0        1.302141   -4.884277   -1.691231
    129          1           0        2.281469   -3.618702   -3.430955
    130          1           0        2.173958   -2.117378   -2.382829
    131          1           0        0.287151   -3.292658   -4.007229
    132          7           0        4.027925   -5.075168   -2.103740
    133          6           0        5.405499   -5.523305   -2.025884
    134          6           0        6.299494   -4.295488   -1.891204
    135          8           0        7.153812   -4.280168   -1.010348
    136          6           0        5.788256   -6.382821   -3.236557
    137          1           0        3.520261   -5.465198   -2.874943
    138          1           0        5.499384   -6.196240   -1.170464
    139          1           0        6.833664   -6.699617   -3.249337
    140          1           0        5.150275   -7.256594   -3.278988
    141          1           0        5.621327   -5.708636   -4.072924
    142          7           0        6.088802   -3.253921   -2.699008
    143          6           0        6.910668   -2.074402   -2.533266
    144          6           0        6.845347   -1.241936   -1.258537
    145          8           0        7.824718   -0.604980   -0.878512
    146          6           0        6.797610   -1.225535   -3.793878
    147          1           0        5.444017   -3.346355   -3.464324
    148          1           0        7.916421   -2.467100   -2.656347
    149          1           0        5.912262   -0.593512   -3.791737
    150          1           0        7.653983   -0.556886   -3.939939
    151          1           0        6.778014   -1.893858   -4.659650
    152          7           0        5.704937   -1.328378   -0.570574
    153          6           0        5.321937   -0.715870    0.686862
    154          6           0        5.825831   -1.604739    1.810919
    155          8           0        6.335856   -1.110473    2.820511
    156          6           0        3.807486   -0.537064    0.674015
    157          6           0        3.285291    0.312965   -0.475666
    158          6           0        1.773831    0.482207   -0.444929
    159          8           0        1.239543    1.580826   -0.717822
    160          8           0        1.013947   -0.518179   -0.442536
    161          1           0        5.016098   -1.955807   -0.950092
    162          1           0        5.698943    0.304477    0.779369
    163          1           0        3.627381   -0.093516    1.660183
    164          1           0        3.395372   -1.531943    0.497729
    165          1           0        3.566777   -0.180979   -1.411019
    166          1           0        3.786698    1.280133   -0.453843
    167          7           0        5.719072   -2.927773    1.656382
    168          6           0        6.436325   -3.803218    2.553068
    169          1           0        7.290658   -4.235323    2.031584
    170          1           0        6.786686   -3.234142    3.413823
    171          1           0        5.774446   -4.601345    2.889561
    172          1           0        5.255721   -3.291311    0.832886
    173         20           0       -1.355454    0.225064   -0.626181
    174          8           0       -1.647352   -2.215955   -1.490602
    175          1           0       -1.454352   -3.144796   -1.340582
    176          1           0       -1.251213   -2.012764   -2.331309
 ---------------------------------------------------------------------

 SCF Done:  E(RB3LYP) =  -5333.58690049     A.U. after   15 cycles

 The electronic state is 1-A.
 Alpha  occ. eigenvalues -- -145.36286 -19.19774 -19.18292 -19.14905 -19.14467
 Alpha  occ. eigenvalues --  -19.12860 -19.11530 -19.11460 -19.10124 -19.10106
 Alpha  occ. eigenvalues --  -19.09739 -19.08728 -19.08038 -19.07741 -19.07612
 Alpha  occ. eigenvalues --  -19.06026 -19.05872 -19.05823 -19.05820 -19.04299
 Alpha  occ. eigenvalues --  -19.04261 -19.03657 -19.03551 -19.01469 -15.42061
 Alpha  occ. eigenvalues --  -14.57050 -14.40767 -14.38489 -14.37313 -14.36973
 Alpha  occ. eigenvalues --  -14.36443 -14.35951 -14.34557 -14.32637 -14.32557
 Alpha  occ. eigenvalues --  -14.32315 -14.31893 -14.31378 -14.30470 -14.28489
 Alpha  occ. eigenvalues --  -12.55664 -12.55640 -12.55623 -10.33499 -10.32323
 Alpha  occ. eigenvalues --  -10.31506 -10.30456 -10.29893 -10.29364 -10.29166
 Alpha  occ. eigenvalues --  -10.28952 -10.28030 -10.27978 -10.27417 -10.27269
 Alpha  occ. eigenvalues --  -10.26453 -10.26143 -10.25278 -10.24842 -10.24708
 Alpha  occ. eigenvalues --  -10.24577 -10.24576 -10.24347 -10.24300 -10.23971
 Alpha  occ. eigenvalues --  -10.23574 -10.23177 -10.22542 -10.22257 -10.22218
 Alpha  occ. eigenvalues --  -10.22075 -10.22055 -10.21354 -10.20870 -10.20868
 Alpha  occ. eigenvalues --  -10.20766 -10.20617 -10.20093 -10.19690 -10.19075
 Alpha  occ. eigenvalues --  -10.18949 -10.18688 -10.18631 -10.18310 -10.18266
 Alpha  occ. eigenvalues --  -10.17915 -10.17900 -10.17865 -10.17857 -10.17839
 Alpha  occ. eigenvalues --  -10.17589 -10.17303 -10.17089 -10.16701 -10.16627
 Alpha  occ. eigenvalues --  -10.15499 -10.12788  -1.79025  -1.12199  -1.08277
 Alpha  occ. eigenvalues --   -1.07572  -1.07012  -1.06821  -1.06414  -1.05608
 Alpha  occ. eigenvalues --   -1.04937  -1.04368  -1.04172  -1.03754  -1.03677
 Alpha  occ. eigenvalues --   -1.02890  -1.02765  -1.01536  -1.00846  -1.00614
 Alpha  occ. eigenvalues --   -0.99219  -0.99074  -0.98948  -0.98785  -0.98767
 Alpha  occ. eigenvalues --   -0.97227  -0.97131  -0.96252  -0.94868  -0.94122
 Alpha  occ. eigenvalues --   -0.93561  -0.92723  -0.92557  -0.92422  -0.91854
 Alpha  occ. eigenvalues --   -0.90195  -0.89869  -0.89811  -0.88726  -0.88361
 Alpha  occ. eigenvalues --   -0.87916  -0.87701  -0.87359  -0.86616  -0.85356
 Alpha  occ. eigenvalues --   -0.83656  -0.83429  -0.81554  -0.80137  -0.79389
 Alpha  occ. eigenvalues --   -0.79291  -0.78146  -0.78034  -0.77669  -0.77652
 Alpha  occ. eigenvalues --   -0.74000  -0.73909  -0.73184  -0.72622  -0.72347
 Alpha  occ. eigenvalues --   -0.72316  -0.72185  -0.71741  -0.70913  -0.70848
 Alpha  occ. eigenvalues --   -0.69977  -0.69894  -0.68675  -0.68371  -0.67219
 Alpha  occ. eigenvalues --   -0.66804  -0.66338  -0.66233  -0.65021  -0.64564
 Alpha  occ. eigenvalues --   -0.64245  -0.63165  -0.62184  -0.61767  -0.61283
 Alpha  occ. eigenvalues --   -0.61223  -0.60898  -0.60791  -0.60424  -0.60227
 Alpha  occ. eigenvalues --   -0.59874  -0.59195  -0.59067  -0.58471  -0.58229
 Alpha  occ. eigenvalues --   -0.58007  -0.57547  -0.56846  -0.56805  -0.56579
 Alpha  occ. eigenvalues --   -0.56165  -0.56142  -0.55830  -0.55476  -0.55431
 Alpha  occ. eigenvalues --   -0.55240  -0.54766  -0.54672  -0.53873  -0.53627
 Alpha  occ. eigenvalues --   -0.53623  -0.53281  -0.53167  -0.52246  -0.52089
 Alpha  occ. eigenvalues --   -0.51198  -0.51140  -0.50568  -0.50396  -0.50169
 Alpha  occ. eigenvalues --   -0.49753  -0.49502  -0.49310  -0.49020  -0.48619
 Alpha  occ. eigenvalues --   -0.48499  -0.48338  -0.48160  -0.47882  -0.47700
 Alpha  occ. eigenvalues --   -0.47224  -0.47184  -0.47038  -0.46816  -0.46756
 Alpha  occ. eigenvalues --   -0.46454  -0.46232  -0.46125  -0.45852  -0.45774
 Alpha  occ. eigenvalues --   -0.45617  -0.45329  -0.45099  -0.44965  -0.44843
 Alpha  occ. eigenvalues --   -0.44611  -0.44431  -0.44223  -0.43820  -0.43651
 Alpha  occ. eigenvalues --   -0.43608  -0.43374  -0.43211  -0.43161  -0.43103
 Alpha  occ. eigenvalues --   -0.42760  -0.42525  -0.42311  -0.42169  -0.42076
 Alpha  occ. eigenvalues --   -0.42000  -0.41842  -0.41770  -0.41703  -0.41626
 Alpha  occ. eigenvalues --   -0.41468  -0.41330  -0.41190  -0.40975  -0.40805
 Alpha  occ. eigenvalues --   -0.40733  -0.40475  -0.40373  -0.40238  -0.40086
 Alpha  occ. eigenvalues --   -0.39985  -0.39906  -0.39843  -0.39723  -0.39537
 Alpha  occ. eigenvalues --   -0.39446  -0.39401  -0.39295  -0.38980  -0.38831
 Alpha  occ. eigenvalues --   -0.38755  -0.38560  -0.38314  -0.38122  -0.38030
 Alpha  occ. eigenvalues --   -0.37909  -0.37792  -0.37707  -0.37460  -0.37310
 Alpha  occ. eigenvalues --   -0.37236  -0.37006  -0.36954  -0.36562  -0.36519
 Alpha  occ. eigenvalues --   -0.36317  -0.36001  -0.35907  -0.35580  -0.35508
 Alpha  occ. eigenvalues --   -0.35292  -0.35081  -0.34907  -0.34793  -0.34617
 Alpha  occ. eigenvalues --   -0.34583  -0.34386  -0.34196  -0.34025  -0.33819
 Alpha  occ. eigenvalues --   -0.33694  -0.33596  -0.33043  -0.32857  -0.32823
 Alpha  occ. eigenvalues --   -0.32805  -0.32412  -0.32177  -0.31750  -0.31635
 Alpha  occ. eigenvalues --   -0.31556  -0.31504  -0.30966  -0.30481  -0.30356
 Alpha  occ. eigenvalues --   -0.30243  -0.29879  -0.29230  -0.28715  -0.28253
 Alpha  occ. eigenvalues --   -0.28233  -0.27696  -0.27319  -0.27009  -0.26657
 Alpha  occ. eigenvalues --   -0.26425  -0.26252  -0.25783  -0.25652  -0.25069
 Alpha  occ. eigenvalues --   -0.24990  -0.24966  -0.24496  -0.24260  -0.23952
 Alpha  occ. eigenvalues --   -0.23324  -0.23292  -0.23028  -0.22803  -0.22656
 Alpha  occ. eigenvalues --   -0.22396  -0.21990  -0.21942  -0.21298  -0.21217
 Alpha  occ. eigenvalues --   -0.21112  -0.21006  -0.20905  -0.20481  -0.19402
 Alpha  occ. eigenvalues --   -0.18945  -0.18680  -0.17618
 Alpha virt. eigenvalues --   -0.09054  -0.04446  -0.03353  -0.02760  -0.02409
 Alpha virt. eigenvalues --   -0.01020  -0.00920  -0.00647  -0.00476  -0.00359
 Alpha virt. eigenvalues --    0.00680   0.00721   0.01129   0.01750   0.01877

 Mulliken charges:
               1
     1  C    0.057904
     2  C    0.033869
     3  O   -0.292629
     4  H   -0.004870
     5  H    0.056148
     6  H    0.017246
     7  N   -0.110173
     8  C    0.043477
     9  C    0.043921
    10  O   -0.333430
    11  C    0.199157
    12  C    0.106887
    13  O   -0.428699
    14  O   -0.387297
    15  H    0.116379
    16  H    0.014610
    17  H   -0.013034
    18  H   -0.005187
    19  N   -0.127106
    20  C    0.115565
    21  C    0.070501
    22  O   -0.302008
    23  C    0.059934
    24  C   -0.012798
    25  C   -0.068888
    26  C    0.024730
    27  N    0.090235
    28  H    0.171813
    29  H   -0.000508
    30  H   -0.004680
    31  H    0.018911
    32  H    0.003079
    33  H    0.052816
    34  H    0.047687
    35  H    0.015038
    36  H    0.061881
    37  H    0.099280
    38  H    0.179302
    39  H    0.175403
    40  H    0.199584
    41  N   -0.141809
    42  C    0.140595
    43  C    0.038131
    44  O   -0.300004
    45  C    0.024352
    46  C    0.136465
    47  O   -0.473564
    48  O   -0.377712
    49  H    0.168315
    50  H    0.008998
    51  H    0.011833
    52  H    0.007980
    53  N   -0.161822
    54  C    0.224657
    55  C    0.003736
    56  O   -0.306615
    57  H    0.133155
    58  H    0.025777
    59  H    0.017743
    60  N   -0.143269
    61  C    0.173383
    62  C    0.032684
    63  O   -0.278426
    64  C    0.033403
    65  C    0.080992
    66  N   -0.035597
    67  O   -0.355377
    68  H    0.149735
    69  H    0.036078
    70  H    0.078636
    71  H    0.029376
    72  H    0.123502
    73  H    0.120813
    74  N   -0.145909
    75  C    0.206420
    76  C    0.045915
    77  O   -0.302200
    78  H    0.132935
    79  H    0.045926
    80  H    0.034641
    81  N   -0.124731
    82  C    0.111058
    83  C    0.142430
    84  O   -0.336173
    85  C    0.124130
    86  C   -0.013048
    87  C   -0.012778
    88  C    0.015485
    89  C    0.000315
    90  C   -0.019862
    91  C    0.157113
    92  O   -0.202497
    93  H    0.152134
    94  H   -0.000177
    95  H   -0.018601
    96  H   -0.039222
    97  H   -0.063749
    98  H   -0.029738
    99  H   -0.022136
   100  H   -0.045398
   101  H    0.172348
   102  N   -0.115476
   103  C    0.151856
   104  C    0.033886
   105  O   -0.291330
   106  C   -0.064806
   107  C    0.032672
   108  C    0.067766
   109  C   -0.026031
   110  H    0.134097
   111  H    0.012178
   112  H   -0.027666
   113  H   -0.009281
   114  H    0.013403
   115  H    0.005399
   116  H    0.010332
   117  H    0.013209
   118  H    0.002416
   119  H    0.011250
   120  H    0.040845
   121  N   -0.122914
   122  C    0.093461
   123  C    0.103698
   124  O   -0.286611
   125  C    0.230175
   126  O   -0.316481
   127  H    0.152087
   128  H    0.003962
   129  H   -0.026876
   130  H    0.028853
   131  H    0.191944
   132  N   -0.116507
   133  C    0.084897
   134  C    0.059461
   135  O   -0.243857
   136  C    0.041322
   137  H    0.102916
   138  H    0.025981
   139  H    0.055995
   140  H    0.034401
   141  H   -0.007826
   142  N   -0.143083
   143  C    0.085979
   144  C    0.095069
   145  O   -0.269284
   146  C    0.015733
   147  H    0.104653
   148  H    0.019229
   149  H    0.010775
   150  H    0.039065
   151  H    0.005247
   152  N   -0.157903
   153  C    0.135896
   154  C    0.081852
   155  O   -0.285736
   156  C   -0.062902
   157  C    0.099062
   158  C    0.199351
   159  O   -0.375078
   160  O   -0.485698
   161  H    0.115442
   162  H   -0.000869
   163  H    0.051907
   164  H    0.010224
   165  H   -0.013350
   166  H   -0.015539
   167  N   -0.169695
   168  C    0.129989
   169  H    0.022757
   170  H    0.035129
   171  H    0.000401
   172  H    0.125686
   173  Ca   1.270911
   174  O   -0.300423
   175  H    0.190777
   176  H    0.176802
 Sum of Mulliken charges =  -0.00000

 Dipole moment (field-independent basis, Debye):
    X=             26.1052    Y=             -4.0116    Z=             -4.3299  Tot=             26.7642
 Quadrupole moment (field-independent basis, Debye-Ang):
   XX=           -547.0729   YY=           -438.5622   ZZ=           -541.8451
   XY=            196.9233   XZ=             -8.1933   YZ=            111.4415

 ESP charges:
               1
     1  C   -0.400398
     2  C    0.802374
     3  O   -0.598081
     4  H    0.067622
     5  H    0.126668
     6  H    0.115823
     7  N   -0.821950
     8  C    0.504169
     9  C    0.553102
    10  O   -0.597633
    11  C   -0.603900
    12  C    1.022518
    13  O   -0.846521
    14  O   -0.704455
    15  H    0.385020
    16  H   -0.084400
    17  H    0.119998
    18  H    0.167786
    19  N   -0.566834
    20  C    0.260360
    21  C    0.648797
    22  O   -0.595669
    23  C   -0.206234
    24  C    0.203588
    25  C   -0.178798
    26  C    0.217909
    27  N   -0.428876
    28  H    0.350154
    29  H   -0.009677
    30  H    0.025616
    31  H    0.062107
    32  H   -0.009128
    33  H   -0.023895
    34  H    0.057060
    35  H    0.056142
    36  H    0.024916
    37  H    0.040207
    38  H    0.335118
    39  H    0.310875
    40  H    0.356185
    41  N   -0.691720
    42  C    0.255157
    43  C    0.278273
    44  O   -0.539715
    45  C   -0.297673
    46  C    0.830180
    47  O   -0.876375
    48  O   -0.707785
    49  H    0.381114
    50  H    0.080625
    51  H    0.090779
    52  H    0.064516
    53  N    0.089831
    54  C   -0.516084
    55  C    0.789139
    56  O   -0.603649
    57  H    0.049588
    58  H    0.177192
    59  H    0.162925
    60  N   -0.571113
    61  C   -0.050161
    62  C    0.282017
    63  O   -0.449372
    64  C   -0.258307
    65  C    0.766727
    66  N   -0.773516
    67  O   -0.770851
    68  H    0.425021
    69  H    0.165811
    70  H    0.149606
    71  H    0.093191
    72  H    0.362327
    73  H    0.367076
    74  N   -0.056477
    75  C   -0.423960
    76  C    0.863576
    77  O   -0.621154
    78  H    0.221757
    79  H    0.189649
    80  H    0.149432
    81  N   -0.901861
    82  C    0.762293
    83  C    0.309141
    84  O   -0.386058
    85  C   -0.324201
    86  C    0.291233
    87  C   -0.354197
    88  C   -0.293119
    89  C   -0.167297
    90  C   -0.207112
    91  C    0.310370
    92  O   -0.527885
    93  H    0.390504
    94  H   -0.078710
    95  H    0.030828
    96  H    0.044867
    97  H    0.186962
    98  H    0.174443
    99  H    0.154176
   100  H    0.129089
   101  H    0.394141
   102  N   -0.607144
   103  C    0.079011
   104  C    0.602748
   105  O   -0.578607
   106  C    0.272350
   107  C   -0.297173
   108  C   -0.443267
   109  C    0.108350
   110  H    0.337356
   111  H   -0.033334
   112  H    0.002864
   113  H    0.061021
   114  H    0.096798
   115  H    0.135613
   116  H    0.092946
   117  H    0.049731
   118  H    0.001188
   119  H    0.002283
   120  H   -0.003244
   121  N   -0.502721
   122  C    0.222916
   123  C    0.359219
   124  O   -0.350292
   125  C    0.070796
   126  O   -0.624638
   127  H    0.621081
   128  H    0.013139
   129  H    0.028236
   130  H    0.049182
   131  H    0.433407
   132  N   -0.481044
   133  C    0.288495
   134  C    0.373204
   135  O   -0.518035
   136  C   -0.391550
   137  H    0.270875
   138  H    0.059723
   139  H    0.146398
   140  H    0.120524
   141  H    0.071861
   142  N   -0.228407
   143  C    0.008356
   144  C    0.424824
   145  O   -0.522451
   146  C   -0.255116
   147  H    0.202890
   148  H    0.106875
   149  H    0.061913
   150  H    0.103234
   151  H    0.067896
   152  N   -0.073865
   153  C   -0.301438
   154  C    0.614891
   155  O   -0.585917
   156  C    0.386995
   157  C   -0.114849
   158  C    0.664489
   159  O   -0.637476
   160  O   -0.738830
   161  H    0.090941
   162  H    0.111174
   163  H    0.039149
   164  H   -0.416060
   165  H    0.034739
   166  H   -0.010405
   167  N   -0.080282
   168  C   -0.262386
   169  H    0.095522
   170  H    0.114907
   171  H    0.073618
   172  H    0.137528
   173  Ca   1.589622
   174  O   -0.727131
   175  H    0.364248
   176  H    0.367667
 Sum of ESP charges =   0.00000

 Normal termination of Gaussian 16 at Sat Sep 14 22:37:38 2019.
