 Gaussian 09, Revision D.01,
 Gaussian 09:  ES64L-G09RevD.01 24-Apr-2013

 ----------------------------------------------------------------------
 #maxdisk=50GB #B3LYP/SVP Density=Current scf=(tight) #IOP(5/87=12)Pop=
 (MK,readradii) iop(6/33=2) iop(6/42=6)
 ----------------------------------------------------------------------

 ------------
 SOL molecule
 ------------
 Symbolic Z-matrix:
 Charge =  0 Multiplicity = 1

                         Standard orientation:
 ---------------------------------------------------------------------
 Center     Atomic      Atomic             Coordinates (Angstroms)
 Number     Number       Type             X           Y           Z
 ---------------------------------------------------------------------
      1          6           0        1.579409    3.493395    5.435100
      2          6           0        1.074612    3.074141    4.059598
      3          8           0        1.761779    3.060400    3.047663
      4          1           0        1.261729    2.760572    6.176701
      5          1           0        2.667919    3.548169    5.421934
      6          1           0        1.168901    4.470458    5.690538
      7          7           0       -0.212467    2.747957    3.878404
      8          6           0       -0.786324    2.462186    2.584834
      9          6           0       -0.972872    3.741910    1.787772
     10          8           0       -1.676870    4.674465    2.163706
     11          6           0       -2.132607    1.775050    2.798999
     12          6           0       -2.920639    1.573655    1.502332
     13          8           0       -4.168350    1.669974    1.585035
     14          8           0       -2.348460    1.341388    0.422395
     15          1           0       -0.830758    2.650068    4.673787
     16          1           0       -0.161959    1.856266    1.923299
     17          1           0       -2.642256    2.329471    3.584985
     18          1           0       -1.963375    0.780825    3.207872
     19          7           0       -0.315642    3.827052    0.632220
     20          6           0       -0.168021    5.068672   -0.095713
     21          6           0       -1.399682    5.507323   -0.869661
     22          8           0       -1.492323    6.700648   -1.183177
     23          6           0        1.140679    5.095386   -0.882790
     24          6           0        2.305957    5.187039    0.105100
     25          6           0        3.574547    5.241618   -0.733112
     26          6           0        4.856335    5.567392    0.028919
     27          7           0        4.779482    6.515952    1.157603
     28          1           0        0.114784    2.987434    0.267288
     29          1           0       -0.018258    5.834696    0.665785
     30          1           0        1.166310    5.851087   -1.666409
     31          1           0        1.164827    4.122922   -1.374960
     32          1           0        2.441788    4.356444    0.791659
     33          1           0        2.118446    6.045593    0.751339
     34          1           0        3.453122    6.028554   -1.474319
     35          1           0        3.759968    4.264795   -1.195752
     36          1           0        5.647991    5.789994   -0.672172
     37          1           0        5.123582    4.599660    0.451616
     38          1           0        5.625401    6.588179    1.712674
     39          1           0        4.498782    7.447913    0.884370
     40          1           0        4.148492    6.148836    1.857302
     41          7           0       -2.371398    4.620253   -1.105192
     42          6           0       -3.337229    4.834664   -2.155095
     43          6           0       -4.793480    4.545884   -1.823374
     44          8           0       -5.650700    5.027462   -2.556693
     45          6           0       -2.797753    4.012583   -3.319590
     46          6           0       -2.387249    2.636011   -2.825288
     47          8           0       -1.190348    2.438997   -2.557308
     48          8           0       -3.211679    1.692301   -2.810222
     49          1           0       -2.124836    3.681387   -0.822633
     50          1           0       -3.383409    5.824286   -2.610196
     51          1           0       -1.917008    4.557134   -3.670663
     52          1           0       -3.512506    3.967019   -4.146845
     53          7           0       -4.975811    3.815590   -0.715256
     54          6           0       -6.297256    3.523201   -0.182253
     55          6           0       -6.839449    2.137986   -0.490319
     56          8           0       -7.986959    1.758707   -0.242792
     57          1           0       -4.180327    3.380459   -0.291503
     58          1           0       -7.032216    4.196149   -0.637309
     59          1           0       -6.275664    3.740378    0.883283
     60          7           0       -6.045465    1.226940   -1.046364
     61          6           0       -6.406739   -0.146003   -1.358626
     62          6           0       -6.375332   -1.032966   -0.120236
     63          8           0       -6.914652   -2.132929   -0.185150
     64          6           0       -5.668313   -0.641046   -2.592871
     65          6           0       -4.297880   -1.217707   -2.292416
     66          7           0       -3.665510   -1.953490   -3.203092
     67          8           0       -3.659243   -0.947192   -1.277002
     68          1           0       -5.113770    1.554904   -1.264042
     69          1           0       -7.462842   -0.125764   -1.649552
     70          1           0       -5.595236    0.224314   -3.250300
     71          1           0       -6.335818   -1.336586   -3.117143
     72          1           0       -4.063263   -2.117622   -4.126539
     73          1           0       -2.707343   -2.231884   -3.075765
     74          7           0       -5.851530   -0.516771    0.999842
     75          6           0       -5.742845   -1.296142    2.214737
     76          6           0       -4.537132   -2.207687    2.393456
     77          8           0       -4.556484   -2.948597    3.371862
     78          1           0       -5.246265    0.287224    0.969079
     79          1           0       -6.583957   -1.985981    2.324521
     80          1           0       -5.860073   -0.638422    3.087527
     81          7           0       -3.625806   -2.164252    1.418726
     82          6           0       -2.548477   -3.124380    1.305971
     83          6           0       -1.137348   -2.586800    1.186294
     84          8           0       -0.956358   -1.587327    0.497748
     85          6           0       -2.907448   -4.023411    0.119808
     86          6           0       -4.285145   -4.638458    0.143667
     87          6           0       -5.017599   -4.523050   -1.047422
     88          6           0       -4.771395   -5.428654    1.199390
     89          6           0       -6.188516   -5.266730   -1.230435
     90          6           0       -5.977220   -6.121661    1.065507
     91          6           0       -6.663639   -6.065337   -0.172377
     92          8           0       -7.824201   -6.759852   -0.313252
     93          1           0       -3.723351   -1.475361    0.681627
     94          1           0       -2.554169   -3.724175    2.213668
     95          1           0       -2.038945   -4.677746    0.048063
     96          1           0       -2.807092   -3.485524   -0.819610
     97          1           0       -4.651570   -4.052703   -1.954338
     98          1           0       -4.105765   -5.665921    2.012742
     99          1           0       -6.678400   -5.219428   -2.195202
    100          1           0       -6.273347   -6.659422    1.953213
    101          1           0       -8.131291   -7.180305    0.492486
    102          7           0       -0.118168   -3.164245    1.830290
    103          6           0        1.234421   -2.641748    1.763956
    104          6           0        1.895219   -3.589373    0.768340
    105          8           0        2.035548   -4.795807    0.978637
    106          6           0        1.945164   -2.764858    3.116505
    107          6           0        1.005134   -2.253221    4.214808
    108          6           0        3.314465   -2.103441    3.128413
    109          6           0        0.422184   -0.852679    4.029194
    110          1           0       -0.428530   -3.904760    2.440709
    111          1           0        1.358975   -1.621157    1.420619
    112          1           0        2.127862   -3.813027    3.352436
    113          1           0        1.555171   -2.276947    5.149150
    114          1           0        0.125526   -2.906701    4.296376
    115          1           0        3.798849   -2.264144    4.096322
    116          1           0        4.040831   -2.633744    2.510213
    117          1           0        3.245666   -1.045643    2.898347
    118          1           0       -0.117393   -0.547036    4.918204
    119          1           0        1.189363   -0.140999    3.750718
    120          1           0       -0.377883   -0.962137    3.292708
    121          7           0        2.513128   -3.051435   -0.281714
    122          6           0        3.498404   -3.732812   -1.093413
    123          6           0        4.945848   -3.335109   -0.819116
    124          8           0        5.247298   -2.373558   -0.118939
    125          6           0        3.138039   -3.446876   -2.544061
    126          8           0        3.362579   -2.087344   -2.828056
    127          1           0        2.174835   -2.172953   -0.644519
    128          1           0        3.423564   -4.812923   -0.901687
    129          1           0        2.107916   -3.754075   -2.767835
    130          1           0        3.741144   -4.077920   -3.194789
    131          1           0        2.662060   -1.608231   -2.389053
    132          7           0        5.939077   -4.086468   -1.278198
    133          6           0        7.371312   -3.980321   -1.082408
    134          6           0        7.952262   -2.586000   -1.269130
    135          8           0        8.711107   -2.212549   -0.370137
    136          6           0        8.080341   -4.965580   -2.015116
    137          1           0        5.627114   -4.940486   -1.712055
    138          1           0        7.574364   -4.347619   -0.074855
    139          1           0        9.167372   -4.827669   -2.072949
    140          1           0        7.924740   -5.957787   -1.592845
    141          1           0        7.688995   -4.785561   -3.014186
    142          7           0        7.546367   -1.730766   -2.207599
    143          6           0        7.979280   -0.352977   -2.390861
    144          6           0        7.413590    0.564000   -1.316408
    145          8           0        8.117949    1.394119   -0.739883
    146          6           0        7.517095    0.142116   -3.759132
    147          1           0        6.948841   -2.112127   -2.918672
    148          1           0        9.052760   -0.195054   -2.354801
    149          1           0        8.039647   -0.303327   -4.599501
    150          1           0        6.436075    0.006919   -3.720181
    151          1           0        7.756397    1.197372   -3.796151
    152          7           0        6.168496    0.279203   -0.948672
    153          6           0        5.464931    1.033752    0.069145
    154          6           0        6.062522    0.716239    1.431889
    155          8           0        6.191494    1.615595    2.258886
    156          6           0        3.992320    0.644413    0.116401
    157          6           0        3.265680    0.874102   -1.204711
    158          6           0        1.810528    0.438909   -1.063153
    159          8           0        0.930799    1.165087   -0.550373
    160          8           0        1.519506   -0.656458   -1.609758
    161          1           0        5.699604   -0.524004   -1.351039
    162          1           0        5.471358    2.118357   -0.080160
    163          1           0        3.497162    1.189107    0.926788
    164          1           0        3.997685   -0.401714    0.433874
    165          1           0        3.717064    0.267994   -1.984894
    166          1           0        3.319711    1.911667   -1.536283
    167          7           0        6.533159   -0.506009    1.681511
    168          6           0        7.245747   -0.960305    2.859957
    169          1           0        6.562612   -1.509584    3.507350
    170          1           0        8.065603   -1.612691    2.560098
    171          1           0        7.643589   -0.100122    3.399363
    172          1           0        6.371001   -1.185071    0.949747
    173         20           0       -1.208171    0.120057   -1.519140
    174          8           0       -0.855582   -2.361445   -2.473108
    175          1           0       -0.831885   -3.308840   -2.315684
    176          1           0       -0.124118   -2.199902   -3.064433
 ---------------------------------------------------------------------

 SCF Done:  E(RB3LYP) =  -5333.61446877     A.U. after   15 cycles

 The electronic state is 1-A.
 Alpha  occ. eigenvalues -- -145.37898 -19.22379 -19.14499 -19.14111 -19.13738
 Alpha  occ. eigenvalues --  -19.12224 -19.11944 -19.11729 -19.11166 -19.11015
 Alpha  occ. eigenvalues --  -19.10810 -19.10123 -19.09226 -19.07348 -19.06705
 Alpha  occ. eigenvalues --  -19.06230 -19.06187 -19.06057 -19.05613 -19.05435
 Alpha  occ. eigenvalues --  -19.05154 -19.04819 -19.03390 -19.03122 -15.43639
 Alpha  occ. eigenvalues --  -14.57069 -14.39872 -14.38488 -14.37837 -14.36649
 Alpha  occ. eigenvalues --  -14.36306 -14.36044 -14.34678 -14.32958 -14.32674
 Alpha  occ. eigenvalues --  -14.32426 -14.31892 -14.31359 -14.29606 -14.29423
 Alpha  occ. eigenvalues --  -12.57260 -12.57217 -12.57191 -10.32658 -10.32478
 Alpha  occ. eigenvalues --  -10.30663 -10.30552 -10.30310 -10.30106 -10.29312
 Alpha  occ. eigenvalues --  -10.28613 -10.28349 -10.27173 -10.27096 -10.26295
 Alpha  occ. eigenvalues --  -10.26259 -10.25620 -10.25096 -10.24985 -10.24968
 Alpha  occ. eigenvalues --  -10.24900 -10.24713 -10.24592 -10.24013 -10.23962
 Alpha  occ. eigenvalues --  -10.23668 -10.23509 -10.23402 -10.23002 -10.22945
 Alpha  occ. eigenvalues --  -10.22821 -10.22565 -10.21522 -10.21406 -10.20736
 Alpha  occ. eigenvalues --  -10.20698 -10.20396 -10.20177 -10.20096 -10.20078
 Alpha  occ. eigenvalues --  -10.19849 -10.19795 -10.19342 -10.19264 -10.19025
 Alpha  occ. eigenvalues --  -10.18523 -10.18396 -10.18262 -10.17799 -10.17425
 Alpha  occ. eigenvalues --  -10.17408 -10.17271 -10.17238 -10.17100 -10.16640
 Alpha  occ. eigenvalues --  -10.16076 -10.15413  -1.80559  -1.11887  -1.09002
 Alpha  occ. eigenvalues --   -1.08339  -1.08068  -1.07651  -1.07510  -1.06058
 Alpha  occ. eigenvalues --   -1.05355  -1.04887  -1.04630  -1.04156  -1.03423
 Alpha  occ. eigenvalues --   -1.02942  -1.02924  -1.02854  -1.01105  -1.00429
 Alpha  occ. eigenvalues --   -1.00225  -0.99164  -0.98896  -0.98771  -0.98091
 Alpha  occ. eigenvalues --   -0.97789  -0.96763  -0.96551  -0.96113  -0.94899
 Alpha  occ. eigenvalues --   -0.94441  -0.93233  -0.92877  -0.91397  -0.90781
 Alpha  occ. eigenvalues --   -0.90515  -0.90286  -0.90109  -0.89360  -0.89140
 Alpha  occ. eigenvalues --   -0.88790  -0.87813  -0.87223  -0.87039  -0.85635
 Alpha  occ. eigenvalues --   -0.82992  -0.82853  -0.82394  -0.81120  -0.80664
 Alpha  occ. eigenvalues --   -0.79370  -0.78514  -0.77699  -0.77096  -0.76383
 Alpha  occ. eigenvalues --   -0.75123  -0.74735  -0.73749  -0.73707  -0.72664
 Alpha  occ. eigenvalues --   -0.72568  -0.72502  -0.71814  -0.70924  -0.69879
 Alpha  occ. eigenvalues --   -0.69757  -0.69220  -0.69097  -0.68262  -0.67979
 Alpha  occ. eigenvalues --   -0.67848  -0.66712  -0.65368  -0.64858  -0.64329
 Alpha  occ. eigenvalues --   -0.64192  -0.63579  -0.63035  -0.62567  -0.61772
 Alpha  occ. eigenvalues --   -0.61718  -0.61393  -0.61233  -0.60298  -0.60290
 Alpha  occ. eigenvalues --   -0.60252  -0.59816  -0.59347  -0.59200  -0.57703
 Alpha  occ. eigenvalues --   -0.57625  -0.57523  -0.56618  -0.56430  -0.56348
 Alpha  occ. eigenvalues --   -0.56216  -0.56045  -0.55786  -0.55720  -0.55184
 Alpha  occ. eigenvalues --   -0.54531  -0.54411  -0.54218  -0.54162  -0.53560
 Alpha  occ. eigenvalues --   -0.53464  -0.53387  -0.52862  -0.52664  -0.52362
 Alpha  occ. eigenvalues --   -0.51640  -0.51512  -0.51142  -0.50680  -0.50194
 Alpha  occ. eigenvalues --   -0.49895  -0.49821  -0.49300  -0.49134  -0.48894
 Alpha  occ. eigenvalues --   -0.48771  -0.48524  -0.48425  -0.48262  -0.48113
 Alpha  occ. eigenvalues --   -0.47693  -0.47517  -0.47314  -0.47255  -0.46960
 Alpha  occ. eigenvalues --   -0.46789  -0.46693  -0.46441  -0.46051  -0.46001
 Alpha  occ. eigenvalues --   -0.45750  -0.45631  -0.45479  -0.45417  -0.45306
 Alpha  occ. eigenvalues --   -0.45042  -0.45029  -0.44999  -0.44679  -0.44437
 Alpha  occ. eigenvalues --   -0.44031  -0.43916  -0.43776  -0.43613  -0.43234
 Alpha  occ. eigenvalues --   -0.43050  -0.42894  -0.42723  -0.42684  -0.42503
 Alpha  occ. eigenvalues --   -0.42408  -0.42284  -0.42079  -0.42000  -0.41908
 Alpha  occ. eigenvalues --   -0.41829  -0.41611  -0.41290  -0.41170  -0.41118
 Alpha  occ. eigenvalues --   -0.40999  -0.40782  -0.40581  -0.40445  -0.40381
 Alpha  occ. eigenvalues --   -0.40332  -0.40234  -0.40078  -0.39984  -0.39847
 Alpha  occ. eigenvalues --   -0.39720  -0.39535  -0.39322  -0.39207  -0.39134
 Alpha  occ. eigenvalues --   -0.39036  -0.38960  -0.38835  -0.38666  -0.38542
 Alpha  occ. eigenvalues --   -0.38376  -0.38147  -0.38053  -0.37931  -0.37736
 Alpha  occ. eigenvalues --   -0.37642  -0.37576  -0.37335  -0.37291  -0.37114
 Alpha  occ. eigenvalues --   -0.36871  -0.36519  -0.36439  -0.36346  -0.36282
 Alpha  occ. eigenvalues --   -0.36183  -0.35997  -0.35916  -0.35519  -0.35102
 Alpha  occ. eigenvalues --   -0.34828  -0.34727  -0.34437  -0.34342  -0.34292
 Alpha  occ. eigenvalues --   -0.34174  -0.33750  -0.33143  -0.32929  -0.32800
 Alpha  occ. eigenvalues --   -0.32759  -0.32483  -0.32346  -0.32094  -0.31827
 Alpha  occ. eigenvalues --   -0.31481  -0.31215  -0.30942  -0.30810  -0.30594
 Alpha  occ. eigenvalues --   -0.29585  -0.29499  -0.29323  -0.29290  -0.29042
 Alpha  occ. eigenvalues --   -0.28892  -0.28119  -0.27771  -0.27464  -0.27259
 Alpha  occ. eigenvalues --   -0.27172  -0.26762  -0.26597  -0.26228  -0.25420
 Alpha  occ. eigenvalues --   -0.25360  -0.24872  -0.24572  -0.24454  -0.23900
 Alpha  occ. eigenvalues --   -0.23672  -0.23659  -0.23511  -0.23143  -0.22926
 Alpha  occ. eigenvalues --   -0.22796  -0.22706  -0.22266  -0.22227  -0.21617
 Alpha  occ. eigenvalues --   -0.21404  -0.21186  -0.20250  -0.20210  -0.20068
 Alpha  occ. eigenvalues --   -0.19416  -0.19072  -0.18920
 Alpha virt. eigenvalues --   -0.08779  -0.04262  -0.02639  -0.02342  -0.01977
 Alpha virt. eigenvalues --   -0.01410  -0.00888  -0.00688  -0.00453   0.00005
 Alpha virt. eigenvalues --    0.00215   0.00617   0.00756   0.01402   0.01828

 Mulliken charges:
               1
     1  C    0.058732
     2  C    0.032914
     3  O   -0.303765
     4  H    0.027525
     5  H    0.020915
     6  H    0.041568
     7  N   -0.115973
     8  C    0.128117
     9  C    0.027920
    10  O   -0.274572
    11  C    0.077699
    12  C    0.158770
    13  O   -0.392979
    14  O   -0.454470
    15  H    0.111065
    16  H   -0.000543
    17  H   -0.001933
    18  H    0.004521
    19  N   -0.164800
    20  C    0.158635
    21  C    0.076603
    22  O   -0.306750
    23  C    0.040044
    24  C   -0.053862
    25  C   -0.001087
    26  C    0.034311
    27  N    0.068352
    28  H    0.152580
    29  H   -0.009561
    30  H    0.015026
    31  H    0.022042
    32  H    0.047467
    33  H   -0.034679
    34  H    0.018790
    35  H    0.054674
    36  H    0.068997
    37  H    0.079601
    38  H    0.191985
    39  H    0.192822
    40  H    0.198281
    41  N   -0.128861
    42  C    0.042949
    43  C    0.097078
    44  O   -0.273107
    45  C    0.173459
    46  C    0.034507
    47  O   -0.446115
    48  O   -0.388474
    49  H    0.170228
    50  H    0.026504
    51  H   -0.013954
    52  H    0.006625
    53  N   -0.184302
    54  C    0.247620
    55  C    0.015685
    56  O   -0.306677
    57  H    0.133844
    58  H    0.032150
    59  H    0.043175
    60  N   -0.160080
    61  C    0.148257
    62  C    0.050489
    63  O   -0.284359
    64  C    0.091225
    65  C    0.087381
    66  N   -0.039940
    67  O   -0.354045
    68  H    0.126263
    69  H    0.021542
    70  H    0.058891
    71  H    0.018693
    72  H    0.124754
    73  H    0.081035
    74  N   -0.157570
    75  C    0.192234
    76  C    0.048522
    77  O   -0.303955
    78  H    0.150963
    79  H    0.030424
    80  H    0.028035
    81  N   -0.148767
    82  C    0.125565
    83  C    0.112378
    84  O   -0.352967
    85  C    0.150507
    86  C    0.001780
    87  C    0.021621
    88  C    0.029110
    89  C   -0.012434
    90  C   -0.062356
    91  C    0.204736
    92  O   -0.203630
    93  H    0.168794
    94  H   -0.016606
    95  H   -0.032156
    96  H   -0.065946
    97  H   -0.065296
    98  H   -0.033825
    99  H   -0.037649
   100  H   -0.038771
   101  H    0.172879
   102  N   -0.123830
   103  C    0.137743
   104  C    0.080217
   105  O   -0.289501
   106  C   -0.075282
   107  C    0.028283
   108  C    0.050029
   109  C   -0.026336
   110  H    0.140028
   111  H    0.027497
   112  H   -0.008409
   113  H   -0.007914
   114  H   -0.015603
   115  H    0.001915
   116  H    0.015600
   117  H    0.031033
   118  H    0.003224
   119  H    0.035588
   120  H    0.041958
   121  N   -0.137970
   122  C    0.060587
   123  C    0.104127
   124  O   -0.286029
   125  C    0.248524
   126  O   -0.337452
   127  H    0.120104
   128  H    0.024678
   129  H   -0.027402
   130  H   -0.020399
   131  H    0.166336
   132  N   -0.097626
   133  C    0.105215
   134  C    0.061173
   135  O   -0.272721
   136  C    0.006363
   137  H    0.109983
   138  H    0.026111
   139  H    0.046355
   140  H    0.035688
   141  H    0.013463
   142  N   -0.109106
   143  C    0.097425
   144  C    0.050962
   145  O   -0.262547
   146  C    0.038028
   147  H    0.110758
   148  H    0.015538
   149  H    0.030797
   150  H    0.013816
   151  H    0.021475
   152  N   -0.155073
   153  C    0.168794
   154  C    0.049067
   155  O   -0.304035
   156  C   -0.086087
   157  C    0.115389
   158  C    0.186518
   159  O   -0.379489
   160  O   -0.471366
   161  H    0.138270
   162  H   -0.040663
   163  H    0.043557
   164  H    0.017713
   165  H   -0.012656
   166  H   -0.012784
   167  N   -0.158346
   168  C    0.136799
   169  H    0.007645
   170  H    0.028992
   171  H    0.029284
   172  H    0.135208
   173  Ca   1.278452
   174  O   -0.264073
   175  H    0.202052
   176  H    0.191291
 Sum of Mulliken charges =   0.00000

 Dipole moment (field-independent basis, Debye):
    X=             31.3573    Y=             -0.9674    Z=             -4.4857  Tot=             31.6913
 Quadrupole moment (field-independent basis, Debye-Ang):
   XX=           -664.3849   YY=           -458.8319   ZZ=           -511.8197
   XY=            113.4554   XZ=            -18.5877   YZ=             68.2633

 ESP charges:
               1
     1  C   -0.451147
     2  C    0.831301
     3  O   -0.672838
     4  H    0.110539
     5  H    0.123943
     6  H    0.131283
     7  N   -0.850869
     8  C    0.325699
     9  C    0.696583
    10  O   -0.600181
    11  C   -0.282131
    12  C    0.612970
    13  O   -0.596506
    14  O   -0.788452
    15  H    0.390403
    16  H   -0.002722
    17  H    0.082736
    18  H    0.056237
    19  N   -0.289160
    20  C   -0.401496
    21  C    0.915221
    22  O   -0.619678
    23  C   -0.070303
    24  C    0.173377
    25  C   -0.190970
    26  C    0.304248
    27  N   -0.528505
    28  H    0.219328
    29  H    0.137389
    30  H    0.069730
    31  H    0.061075
    32  H    0.027891
    33  H   -0.033917
    34  H    0.031058
    35  H    0.070667
    36  H    0.027871
    37  H   -0.011563
    38  H    0.364384
    39  H    0.360297
    40  H    0.356187
    41  N   -0.906031
    42  C    0.321027
    43  C    0.430344
    44  O   -0.542616
    45  C   -0.273920
    46  C    0.776928
    47  O   -0.785180
    48  O   -0.746170
    49  H    0.526075
    50  H    0.050295
    51  H    0.071782
    52  H    0.073774
    53  N   -0.198474
    54  C   -0.241812
    55  C    0.512918
    56  O   -0.579649
    57  H    0.211223
    58  H    0.139592
    59  H    0.136653
    60  N   -0.140361
    61  C   -0.076616
    62  C    0.336601
    63  O   -0.455993
    64  C   -0.294967
    65  C    0.791119
    66  N   -0.868398
    67  O   -0.601440
    68  H    0.108758
    69  H    0.137862
    70  H    0.137189
    71  H    0.105530
    72  H    0.357086
    73  H    0.398553
    74  N   -0.099860
    75  C   -0.276969
    76  C    0.722355
    77  O   -0.594218
    78  H    0.160056
    79  H    0.136166
    80  H    0.099476
    81  N   -0.774189
    82  C    0.245963
    83  C    0.673611
    84  O   -0.650083
    85  C   -0.152415
    86  C   -0.237436
    87  C    0.014666
    88  C    0.211135
    89  C   -0.397381
    90  C   -0.532492
    91  C    0.545490
    92  O   -0.589454
    93  H    0.603944
    94  H    0.034267
    95  H    0.018188
    96  H    0.093601
    97  H    0.084897
    98  H    0.056995
    99  H    0.187315
   100  H    0.187929
   101  H    0.422686
   102  N   -0.698853
   103  C    0.073170
   104  C    0.547282
   105  O   -0.557169
   106  C    0.195776
   107  C   -0.142836
   108  C   -0.265337
   109  C   -0.127831
   110  H    0.357309
   111  H    0.058606
   112  H   -0.001007
   113  H    0.032521
   114  H    0.035913
   115  H    0.079519
   116  H    0.085772
   117  H    0.037165
   118  H    0.045936
   119  H    0.091547
   120  H    0.093611
   121  N   -0.242870
   122  C   -0.209850
   123  C    0.647741
   124  O   -0.527030
   125  C    0.261536
   126  O   -0.600844
   127  H    0.232185
   128  H    0.098393
   129  H   -0.019452
   130  H    0.008822
   131  H    0.358484
   132  N   -0.498014
   133  C    0.252043
   134  C    0.463528
   135  O   -0.536306
   136  C   -0.427694
   137  H    0.273752
   138  H    0.064301
   139  H    0.146512
   140  H    0.132314
   141  H    0.092075
   142  N   -0.442818
   143  C    0.232475
   144  C    0.351401
   145  O   -0.506914
   146  C   -0.363039
   147  H    0.282440
   148  H    0.065509
   149  H    0.112675
   150  H    0.065383
   151  H    0.119394
   152  N   -0.219107
   153  C   -0.099339
   154  C    0.396116
   155  O   -0.568106
   156  C    0.024523
   157  C   -0.296125
   158  C    0.825214
   159  O   -0.698270
   160  O   -0.751824
   161  H    0.221984
   162  H    0.107998
   163  H    0.098179
   164  H   -0.011446
   165  H    0.073941
   166  H    0.073653
   167  N    0.031917
   168  C   -0.215461
   169  H    0.047235
   170  H    0.091803
   171  H    0.108533
   172  H    0.126955
   173  Ca   1.612786
   174  O   -0.924842
   175  H    0.454745
   176  H    0.465806
 Sum of ESP charges =   0.00000

 Normal termination of Gaussian 09 at Mon Sep 16 18:40:43 2019.
