 Gaussian 16, Revision A.03,
 Gaussian 16:  ES64L-G16RevA.03 25-Dec-2016

 ----------------------------------------------------------------------
 #b3lyp/svp scf=(tight,noincore) Test #IOP(5/87=12) Density=Current Pop
 =(MK,readradii) iop(6/33=2) iop(6/42=6)
 ----------------------------------------------------------------------

 ------------------
 holoCaM_loop3_79.0
 ------------------
 Symbolic Z-matrix:
 Charge =  0 Multiplicity = 1

                         Standard orientation:
 ---------------------------------------------------------------------
 Center     Atomic      Atomic             Coordinates (Angstroms)
 Number     Number       Type             X           Y           Z
 ---------------------------------------------------------------------
      1          6           0        1.729111    3.617942    5.745351
      2          6           0        1.433540    3.351147    4.277578
      3          8           0        2.295807    3.071034    3.446776
      4          1           0        0.909389    4.187066    6.183135
      5          1           0        1.834694    2.669886    6.273580
      6          1           0        2.653922    4.188282    5.832803
      7          7           0        0.136443    3.305446    3.956873
      8          6           0       -0.368018    2.943148    2.655966
      9          6           0       -0.385028    4.204835    1.802234
     10          8           0       -0.791535    5.301958    2.184953
     11          6           0       -1.773665    2.361317    2.799243
     12          6           0       -2.042853    1.594062    1.514347
     13          8           0       -2.299772    0.373891    1.559908
     14          8           0       -2.089362    2.198556    0.411159
     15          1           0       -0.527680    3.546933    4.684007
     16          1           0        0.381157    2.206683    2.350095
     17          1           0       -2.531446    3.140693    2.805473
     18          1           0       -1.831461    1.648843    3.615968
     19          7           0        0.102042    4.117849    0.564334
     20          6           0        0.306203    5.190763   -0.381856
     21          6           0       -0.781382    5.439548   -1.416972
     22          8           0       -0.931735    6.514391   -2.001614
     23          6           0        1.631484    5.046807   -1.125028
     24          6           0        2.889007    5.047001   -0.262047
     25          6           0        4.214707    5.093255   -1.009696
     26          6           0        5.352915    5.253939   -0.017847
     27          7           0        6.679760    5.481122   -0.628151
     28          1           0        0.449492    3.180289    0.388381
     29          1           0        0.268294    6.176707    0.091828
     30          1           0        1.657332    5.843391   -1.855703
     31          1           0        1.592080    4.061818   -1.587676
     32          1           0        2.824942    4.268762    0.507395
     33          1           0        2.871469    6.027289    0.218918
     34          1           0        4.158513    5.999628   -1.617832
     35          1           0        4.281789    4.193365   -1.621739
     36          1           0        5.457087    4.486151    0.742251
     37          1           0        5.028045    6.083927    0.615620
     38          1           0        6.616549    6.134472   -1.399474
     39          1           0        7.337293    5.634047    0.123091
     40          1           0        7.125080    4.652659   -1.006884
     41          7           0       -1.694773    4.502459   -1.690800
     42          6           0       -2.962818    4.713250   -2.346719
     43          6           0       -4.221555    4.525581   -1.525464
     44          8           0       -5.281970    4.835333   -2.067382
     45          6           0       -2.828724    3.925226   -3.649845
     46          6           0       -2.721699    2.428719   -3.450068
     47          8           0       -2.997415    1.902769   -2.345732
     48          8           0       -2.378337    1.692040   -4.406105
     49          1           0       -1.522598    3.692923   -1.112175
     50          1           0       -3.014891    5.778960   -2.595419
     51          1           0       -1.932971    4.309689   -4.140474
     52          1           0       -3.699545    4.072207   -4.299281
     53          7           0       -4.147881    3.823340   -0.395672
     54          6           0       -5.295455    3.792943    0.483959
     55          6           0       -6.007289    2.444622    0.425451
     56          8           0       -6.867827    2.151427    1.245518
     57          1           0       -3.311345    3.295057   -0.179980
     58          1           0       -6.075905    4.486732    0.157532
     59          1           0       -5.002149    4.039185    1.502653
     60          7           0       -5.749638    1.629771   -0.598724
     61          6           0       -6.483633    0.434469   -0.970751
     62          6           0       -6.576266   -0.558194    0.178962
     63          8           0       -7.583923   -1.268275    0.249054
     64          6           0       -5.784702   -0.171609   -2.174606
     65          6           0       -4.415129   -0.837057   -2.018565
     66          7           0       -3.919732   -1.434537   -3.099536
     67          8           0       -3.735500   -0.689008   -1.003338
     68          1           0       -5.015296    1.982385   -1.184391
     69          1           0       -7.533487    0.617878   -1.228370
     70          1           0       -5.760887    0.534161   -3.011339
     71          1           0       -6.449350   -0.934394   -2.569450
     72          1           0       -4.422462   -1.347815   -3.974089
     73          1           0       -2.970682   -1.760608   -3.082720
     74          7           0       -5.720575   -0.411031    1.195345
     75          6           0       -5.793273   -1.203100    2.403915
     76          6           0       -4.814345   -2.367790    2.331146
     77          8           0       -4.846591   -3.223378    3.212411
     78          1           0       -5.073175    0.366886    1.114612
     79          1           0       -6.799995   -1.610213    2.390884
     80          1           0       -5.703050   -0.542596    3.268840
     81          7           0       -3.860978   -2.394939    1.400794
     82          6           0       -2.942614   -3.503973    1.252299
     83          6           0       -1.552246   -2.957577    0.986912
     84          8           0       -1.280510   -2.135535    0.109982
     85          6           0       -3.363838   -4.410427    0.092337
     86          6           0       -4.842781   -4.623702   -0.083280
     87          6           0       -5.308824   -4.711010   -1.401643
     88          6           0       -5.726498   -4.956531    0.949372
     89          6           0       -6.697523   -4.655280   -1.620757
     90          6           0       -7.113211   -5.058303    0.739683
     91          6           0       -7.601830   -4.879326   -0.569599
     92          8           0       -8.950455   -4.847921   -0.768651
     93          1           0       -3.713945   -1.587198    0.820419
     94          1           0       -2.867503   -4.112878    2.148454
     95          1           0       -2.900536   -5.389153    0.233218
     96          1           0       -2.948542   -3.992086   -0.813157
     97          1           0       -4.612584   -4.669200   -2.218283
     98          1           0       -5.315788   -5.132031    1.929992
     99          1           0       -7.157130   -4.598942   -2.598349
    100          1           0       -7.840414   -5.183568    1.536918
    101          1           0       -9.430301   -5.217989   -0.029599
    102          7           0       -0.519731   -3.323979    1.755132
    103          6           0        0.879439   -2.975398    1.641045
    104          6           0        1.404874   -3.918240    0.564817
    105          8           0        1.155264   -5.117742    0.551054
    106          6           0        1.564974   -3.118851    3.003822
    107          6           0        1.087009   -1.986505    3.915931
    108          6           0        3.079958   -3.040840    2.863679
    109          6           0        1.311988   -0.518548    3.561693
    110          1           0       -0.714252   -3.924762    2.546726
    111          1           0        0.832457   -1.950781    1.277517
    112          1           0        1.299226   -4.053185    3.488382
    113          1           0        1.573967   -2.169643    4.869572
    114          1           0        0.009684   -2.084911    4.079294
    115          1           0        3.441882   -3.963167    2.398142
    116          1           0        3.257558   -2.143314    2.281267
    117          1           0        3.580637   -2.966679    3.827743
    118          1           0        0.517506    0.112469    3.939867
    119          1           0        2.258588   -0.103317    3.914016
    120          1           0        1.407820   -0.369453    2.489318
    121          7           0        2.184589   -3.318794   -0.340561
    122          6           0        3.078177   -3.895951   -1.324934
    123          6           0        4.520517   -3.908487   -0.851543
    124          8           0        4.901259   -3.149004    0.046577
    125          6           0        2.954991   -3.058653   -2.595823
    126          8           0        3.359823   -1.718821   -2.412905
    127          1           0        2.126053   -2.308709   -0.339733
    128          1           0        2.695925   -4.909067   -1.495753
    129          1           0        1.908341   -2.981048   -2.903395
    130          1           0        3.502319   -3.436093   -3.458883
    131          1           0        2.649996   -1.286926   -1.931852
    132          7           0        5.474782   -4.441125   -1.614024
    133          6           0        6.883172   -4.389675   -1.284345
    134          6           0        7.552013   -3.017730   -1.320671
    135          8           0        8.547270   -2.866277   -0.622726
    136          6           0        7.556683   -5.293687   -2.305200
    137          1           0        5.150754   -4.966932   -2.406887
    138          1           0        7.038484   -4.924761   -0.349219
    139          1           0        8.630795   -5.108391   -2.172355
    140          1           0        7.240650   -6.332001   -2.200193
    141          1           0        7.310708   -5.073053   -3.340824
    142          7           0        6.990933   -2.094740   -2.096479
    143          6           0        7.535330   -0.750617   -2.231999
    144          6           0        7.095549    0.147929   -1.086482
    145          8           0        7.867618    0.719729   -0.330272
    146          6           0        7.252049   -0.115684   -3.583003
    147          1           0        6.330787   -2.447858   -2.776195
    148          1           0        8.627144   -0.748877   -2.167665
    149          1           0        6.187414    0.107220   -3.548866
    150          1           0        7.792349    0.831355   -3.658466
    151          1           0        7.594853   -0.765200   -4.387375
    152          7           0        5.825163    0.028143   -0.688023
    153          6           0        5.369861    0.653075    0.535562
    154          6           0        6.124297    0.107148    1.736266
    155          8           0        6.461586    0.899967    2.617047
    156          6           0        3.850433    0.577392    0.662483
    157          6           0        3.128694    1.226468   -0.508369
    158          6           0        1.669025    0.785400   -0.420473
    159          8           0        0.799666    1.665533   -0.298491
    160          8           0        1.348356   -0.380246   -0.744727
    161          1           0        5.245227   -0.666532   -1.129611
    162          1           0        5.716680    1.678049    0.402730
    163          1           0        3.539327    1.175232    1.530296
    164          1           0        3.523984   -0.453239    0.802597
    165          1           0        3.454563    0.840831   -1.472368
    166          1           0        3.213602    2.306765   -0.414835
    167          7           0        6.313629   -1.209192    1.735879
    168          6           0        7.016038   -1.897708    2.792841
    169          1           0        7.714593   -2.613072    2.357953
    170          1           0        7.565632   -1.174550    3.396368
    171          1           0        6.299269   -2.426621    3.421738
    172          1           0        5.992313   -1.757021    0.945791
    173         20           0       -1.322647    0.342004   -1.088528
    174          8           0       -0.859931   -1.632651   -2.832011
    175          1           0       -0.777596   -2.553847   -2.583175
    176          1           0       -0.561882   -1.611165   -3.745249
 ---------------------------------------------------------------------

 SCF Done:  E(RB3LYP) =  -5333.58874463     A.U. after   18 cycles

 The electronic state is 1-A.
 Alpha  occ. eigenvalues -- -145.37463 -19.21070 -19.16933 -19.13923 -19.13335
 Alpha  occ. eigenvalues --  -19.12455 -19.12411 -19.11654 -19.11561 -19.10854
 Alpha  occ. eigenvalues --  -19.10763 -19.10281 -19.09045 -19.07921 -19.06846
 Alpha  occ. eigenvalues --  -19.06771 -19.06031 -19.05849 -19.05465 -19.05092
 Alpha  occ. eigenvalues --  -19.04736 -19.04668 -19.03647 -19.01447 -15.43156
 Alpha  occ. eigenvalues --  -14.58323 -14.40073 -14.39305 -14.36546 -14.36435
 Alpha  occ. eigenvalues --  -14.35834 -14.35135 -14.34589 -14.33830 -14.31810
 Alpha  occ. eigenvalues --  -14.31685 -14.30947 -14.30883 -14.30451 -14.29684
 Alpha  occ. eigenvalues --  -12.56784 -12.56743 -12.56714 -10.34086 -10.32440
 Alpha  occ. eigenvalues --  -10.31287 -10.30652 -10.29721 -10.29310 -10.29200
 Alpha  occ. eigenvalues --  -10.29176 -10.28419 -10.27883 -10.27335 -10.27007
 Alpha  occ. eigenvalues --  -10.26868 -10.26773 -10.26241 -10.25829 -10.25643
 Alpha  occ. eigenvalues --  -10.24790 -10.24576 -10.23722 -10.23603 -10.23570
 Alpha  occ. eigenvalues --  -10.23386 -10.23376 -10.22957 -10.22638 -10.22576
 Alpha  occ. eigenvalues --  -10.22441 -10.22313 -10.22266 -10.22173 -10.22001
 Alpha  occ. eigenvalues --  -10.20855 -10.20798 -10.20709 -10.20611 -10.20316
 Alpha  occ. eigenvalues --  -10.20260 -10.19249 -10.18859 -10.18725 -10.18639
 Alpha  occ. eigenvalues --  -10.18294 -10.18068 -10.17917 -10.17885 -10.17726
 Alpha  occ. eigenvalues --  -10.17214 -10.17108 -10.16786 -10.16302 -10.16243
 Alpha  occ. eigenvalues --  -10.16209 -10.14250  -1.80021  -1.13293  -1.08237
 Alpha  occ. eigenvalues --   -1.07929  -1.07646  -1.07474  -1.06548  -1.06439
 Alpha  occ. eigenvalues --   -1.05837  -1.05452  -1.04918  -1.04405  -1.03223
 Alpha  occ. eigenvalues --   -1.02999  -1.02104  -1.02101  -1.01586  -1.00509
 Alpha  occ. eigenvalues --   -1.00120  -0.99337  -0.99241  -0.98861  -0.97829
 Alpha  occ. eigenvalues --   -0.97405  -0.97203  -0.96861  -0.96832  -0.95786
 Alpha  occ. eigenvalues --   -0.93839  -0.93455  -0.92559  -0.91458  -0.91181
 Alpha  occ. eigenvalues --   -0.90395  -0.90259  -0.89715  -0.89240  -0.88734
 Alpha  occ. eigenvalues --   -0.88412  -0.87939  -0.87120  -0.86553  -0.86257
 Alpha  occ. eigenvalues --   -0.83290  -0.82432  -0.82149  -0.81550  -0.80929
 Alpha  occ. eigenvalues --   -0.80358  -0.78910  -0.78063  -0.77113  -0.76351
 Alpha  occ. eigenvalues --   -0.76015  -0.74540  -0.74283  -0.73955  -0.73023
 Alpha  occ. eigenvalues --   -0.72466  -0.72131  -0.71439  -0.70699  -0.70216
 Alpha  occ. eigenvalues --   -0.69882  -0.69657  -0.69270  -0.68773  -0.68469
 Alpha  occ. eigenvalues --   -0.67535  -0.67200  -0.65191  -0.65149  -0.65066
 Alpha  occ. eigenvalues --   -0.64069  -0.63282  -0.63183  -0.63149  -0.62505
 Alpha  occ. eigenvalues --   -0.61965  -0.60907  -0.60781  -0.60384  -0.59845
 Alpha  occ. eigenvalues --   -0.59685  -0.59300  -0.58825  -0.58571  -0.58370
 Alpha  occ. eigenvalues --   -0.57583  -0.57127  -0.56957  -0.56811  -0.56731
 Alpha  occ. eigenvalues --   -0.55862  -0.55812  -0.55542  -0.55245  -0.55128
 Alpha  occ. eigenvalues --   -0.54755  -0.54678  -0.54578  -0.54002  -0.53907
 Alpha  occ. eigenvalues --   -0.53637  -0.53252  -0.52329  -0.52152  -0.52044
 Alpha  occ. eigenvalues --   -0.51948  -0.51711  -0.51015  -0.50768  -0.50521
 Alpha  occ. eigenvalues --   -0.50094  -0.49880  -0.49460  -0.49266  -0.49243
 Alpha  occ. eigenvalues --   -0.48920  -0.48819  -0.48466  -0.48436  -0.48080
 Alpha  occ. eigenvalues --   -0.47767  -0.47398  -0.47346  -0.47017  -0.46917
 Alpha  occ. eigenvalues --   -0.46779  -0.46614  -0.46455  -0.46371  -0.46227
 Alpha  occ. eigenvalues --   -0.46063  -0.45938  -0.45576  -0.45498  -0.45367
 Alpha  occ. eigenvalues --   -0.45165  -0.44728  -0.44647  -0.44604  -0.44020
 Alpha  occ. eigenvalues --   -0.43952  -0.43794  -0.43758  -0.43639  -0.43431
 Alpha  occ. eigenvalues --   -0.43379  -0.43060  -0.42853  -0.42822  -0.42646
 Alpha  occ. eigenvalues --   -0.42560  -0.42322  -0.42201  -0.42044  -0.41922
 Alpha  occ. eigenvalues --   -0.41799  -0.41656  -0.41433  -0.41264  -0.41056
 Alpha  occ. eigenvalues --   -0.41016  -0.40668  -0.40601  -0.40499  -0.40417
 Alpha  occ. eigenvalues --   -0.40268  -0.40033  -0.39859  -0.39784  -0.39732
 Alpha  occ. eigenvalues --   -0.39686  -0.39601  -0.39486  -0.39423  -0.39125
 Alpha  occ. eigenvalues --   -0.39009  -0.38698  -0.38608  -0.38572  -0.38429
 Alpha  occ. eigenvalues --   -0.38403  -0.38011  -0.37899  -0.37861  -0.37727
 Alpha  occ. eigenvalues --   -0.37689  -0.37597  -0.37434  -0.37255  -0.37216
 Alpha  occ. eigenvalues --   -0.37181  -0.36868  -0.36653  -0.36620  -0.36227
 Alpha  occ. eigenvalues --   -0.36071  -0.35796  -0.35700  -0.35365  -0.35182
 Alpha  occ. eigenvalues --   -0.35013  -0.34938  -0.34831  -0.34565  -0.34425
 Alpha  occ. eigenvalues --   -0.34313  -0.34179  -0.33803  -0.33289  -0.32829
 Alpha  occ. eigenvalues --   -0.32750  -0.32669  -0.32338  -0.32238  -0.31634
 Alpha  occ. eigenvalues --   -0.31519  -0.31505  -0.31359  -0.30858  -0.30823
 Alpha  occ. eigenvalues --   -0.30000  -0.29669  -0.29642  -0.29628  -0.28466
 Alpha  occ. eigenvalues --   -0.28052  -0.27957  -0.27888  -0.27612  -0.27393
 Alpha  occ. eigenvalues --   -0.27251  -0.26766  -0.26360  -0.26126  -0.25815
 Alpha  occ. eigenvalues --   -0.25425  -0.25247  -0.24788  -0.24358  -0.23953
 Alpha  occ. eigenvalues --   -0.23616  -0.23455  -0.23288  -0.23141  -0.22916
 Alpha  occ. eigenvalues --   -0.22739  -0.22617  -0.22243  -0.21767  -0.21329
 Alpha  occ. eigenvalues --   -0.21047  -0.20645  -0.20396  -0.20128  -0.19774
 Alpha  occ. eigenvalues --   -0.19489  -0.19057  -0.17182
 Alpha virt. eigenvalues --   -0.10213  -0.04551  -0.03920  -0.03785  -0.02949
 Alpha virt. eigenvalues --   -0.01942  -0.00989  -0.00763  -0.00389   0.00128
 Alpha virt. eigenvalues --    0.00513   0.00863   0.01275   0.01419   0.02280

 Mulliken charges:
               1
     1  C    0.056519
     2  C    0.036043
     3  O   -0.309054
     4  H    0.009908
     5  H    0.046824
     6  H    0.027021
     7  N   -0.122784
     8  C    0.039660
     9  C    0.062629
    10  O   -0.291101
    11  C    0.195719
    12  C    0.055223
    13  O   -0.363324
    14  O   -0.471718
    15  H    0.118741
    16  H    0.011725
    17  H    0.020466
    18  H   -0.000754
    19  N   -0.129520
    20  C    0.167327
    21  C    0.025394
    22  O   -0.306072
    23  C    0.031794
    24  C   -0.028196
    25  C    0.005179
    26  C    0.000740
    27  N    0.091891
    28  H    0.143458
    29  H    0.016132
    30  H    0.004566
    31  H   -0.000385
    32  H    0.055910
    33  H   -0.005844
    34  H    0.017675
    35  H    0.030415
    36  H    0.094940
    37  H    0.067461
    38  H    0.195826
    39  H    0.197981
    40  H    0.190247
    41  N   -0.152874
    42  C    0.130491
    43  C    0.079075
    44  O   -0.298294
    45  C    0.110369
    46  C    0.055570
    47  O   -0.465491
    48  O   -0.387221
    49  H    0.127967
    50  H    0.021305
    51  H    0.001976
    52  H    0.018417
    53  N   -0.193482
    54  C    0.257124
    55  C   -0.054724
    56  O   -0.286684
    57  H    0.157595
    58  H    0.043338
    59  H    0.016334
    60  N   -0.151011
    61  C    0.187846
    62  C    0.047165
    63  O   -0.283338
    64  C   -0.001553
    65  C    0.110733
    66  N   -0.020112
    67  O   -0.353460
    68  H    0.151736
    69  H    0.021919
    70  H    0.054431
    71  H    0.023554
    72  H    0.129724
    73  H    0.081825
    74  N   -0.173991
    75  C    0.255886
    76  C    0.040161
    77  O   -0.316053
    78  H    0.150320
    79  H    0.027922
    80  H    0.034282
    81  N   -0.135957
    82  C    0.140307
    83  C    0.132262
    84  O   -0.371524
    85  C    0.184502
    86  C   -0.081637
    87  C    0.003884
    88  C    0.049529
    89  C   -0.009949
    90  C   -0.034823
    91  C    0.147447
    92  O   -0.198109
    93  H    0.177087
    94  H   -0.011773
    95  H    0.007878
    96  H   -0.053311
    97  H   -0.055917
    98  H   -0.011717
    99  H   -0.034592
   100  H   -0.038447
   101  H    0.171663
   102  N   -0.119340
   103  C    0.126523
   104  C    0.055433
   105  O   -0.268558
   106  C   -0.102765
   107  C    0.047851
   108  C    0.084529
   109  C   -0.016476
   110  H    0.122360
   111  H    0.014003
   112  H   -0.008080
   113  H   -0.006728
   114  H   -0.003946
   115  H    0.020378
   116  H    0.008139
   117  H    0.008509
   118  H    0.023822
   119  H    0.017961
   120  H    0.004643
   121  N   -0.151230
   122  C    0.103652
   123  C    0.128111
   124  O   -0.291014
   125  C    0.224800
   126  O   -0.346594
   127  H    0.134566
   128  H    0.025356
   129  H   -0.020019
   130  H   -0.003039
   131  H    0.176849
   132  N   -0.133140
   133  C    0.090124
   134  C    0.076835
   135  O   -0.252840
   136  C    0.007076
   137  H    0.114658
   138  H    0.032956
   139  H    0.047692
   140  H    0.031810
   141  H   -0.004469
   142  N   -0.123139
   143  C    0.102863
   144  C    0.028998
   145  O   -0.258279
   146  C    0.044957
   147  H    0.118880
   148  H    0.019180
   149  H    0.016259
   150  H    0.012614
   151  H    0.030575
   152  N   -0.182700
   153  C    0.159649
   154  C    0.080723
   155  O   -0.288383
   156  C   -0.055479
   157  C    0.107021
   158  C    0.160579
   159  O   -0.405063
   160  O   -0.426877
   161  H    0.123949
   162  H   -0.064812
   163  H    0.053615
   164  H    0.035680
   165  H    0.002483
   166  H   -0.028827
   167  N   -0.174001
   168  C    0.130092
   169  H    0.023643
   170  H    0.034431
   171  H    0.013260
   172  H    0.139623
   173  Ca   1.269880
   174  O   -0.259901
   175  H    0.198734
   176  H    0.195134
 Sum of Mulliken charges =  -0.00000

 Dipole moment (field-independent basis, Debye):
    X=             34.5275    Y=              0.2468    Z=             -8.5861  Tot=             35.5799
 Quadrupole moment (field-independent basis, Debye-Ang):
   XX=           -564.2257   YY=           -508.1657   ZZ=           -540.8573
   XY=            133.9677   XZ=            -66.4192   YZ=             41.2938

 ESP charges:
               1
     1  C   -0.409649
     2  C    0.750627
     3  O   -0.630745
     4  H    0.090493
     5  H    0.121256
     6  H    0.119398
     7  N   -0.661218
     8  C    0.329170
     9  C    0.415290
    10  O   -0.547013
    11  C   -0.569968
    12  C    1.006015
    13  O   -0.835269
    14  O   -0.690767
    15  H    0.350910
    16  H   -0.091024
    17  H    0.170544
    18  H    0.163066
    19  N   -0.086432
    20  C   -0.281305
    21  C    0.680570
    22  O   -0.591293
    23  C    0.036648
    24  C    0.071730
    25  C   -0.244471
    26  C    0.272007
    27  N   -0.578255
    28  H    0.221406
    29  H    0.122207
    30  H    0.031494
    31  H   -0.024724
    32  H   -0.026375
    33  H    0.030756
    34  H    0.089663
    35  H    0.040401
    36  H    0.058801
    37  H    0.036330
    38  H    0.377354
    39  H    0.379579
    40  H    0.376228
    41  N   -0.485325
    42  C    0.162465
    43  C    0.409317
    44  O   -0.557850
    45  C   -0.396821
    46  C    0.743094
    47  O   -0.615828
    48  O   -0.721546
    49  H    0.194260
    50  H    0.097768
    51  H    0.107013
    52  H    0.126178
    53  N   -0.131223
    54  C   -0.235926
    55  C    0.611836
    56  O   -0.599103
    57  H    0.092569
    58  H    0.149385
    59  H    0.086306
    60  N   -0.486512
    61  C    0.272564
    62  C    0.291055
    63  O   -0.495224
    64  C   -0.485357
    65  C    0.848860
    66  N   -0.823146
    67  O   -0.782415
    68  H    0.310603
    69  H    0.061566
    70  H    0.159079
    71  H    0.119505
    72  H    0.380105
    73  H    0.346747
    74  N    0.097251
    75  C   -0.393508
    76  C    0.808899
    77  O   -0.622495
    78  H    0.149230
    79  H    0.152236
    80  H    0.129296
    81  N   -0.775431
    82  C    0.185247
    83  C    0.824593
    84  O   -0.638561
    85  C   -0.255962
    86  C    0.328291
    87  C   -0.349048
    88  C   -0.296953
    89  C   -0.114665
    90  C   -0.230102
    91  C    0.255341
    92  O   -0.518406
    93  H    0.521054
    94  H    0.050558
    95  H    0.048942
    96  H    0.065431
    97  H    0.148550
    98  H    0.189588
    99  H    0.117640
   100  H    0.148455
   101  H    0.399504
   102  N   -0.790512
   103  C    0.399520
   104  C    0.194819
   105  O   -0.500032
   106  C    0.203357
   107  C   -0.229986
   108  C   -0.325043
   109  C    0.020818
   110  H    0.312844
   111  H    0.076982
   112  H   -0.000206
   113  H    0.042021
   114  H    0.046504
   115  H    0.080715
   116  H    0.058038
   117  H    0.107576
   118  H    0.052053
   119  H    0.017083
   120  H    0.013368
   121  N    0.274915
   122  C   -0.330531
   123  C    0.606954
   124  O   -0.525095
   125  C    0.181017
   126  O   -0.529534
   127  H   -0.138341
   128  H    0.111422
   129  H    0.003776
   130  H    0.048273
   131  H    0.363590
   132  N   -0.445693
   133  C    0.092336
   134  C    0.511284
   135  O   -0.507666
   136  C   -0.371080
   137  H    0.288662
   138  H    0.109632
   139  H    0.123195
   140  H    0.121657
   141  H    0.086596
   142  N   -0.455076
   143  C    0.314187
   144  C    0.257939
   145  O   -0.500098
   146  C   -0.293257
   147  H    0.289597
   148  H    0.032637
   149  H    0.042307
   150  H    0.091036
   151  H    0.086607
   152  N   -0.053106
   153  C   -0.396987
   154  C    0.601011
   155  O   -0.571489
   156  C   -0.182871
   157  C   -0.283042
   158  C    0.716135
   159  O   -0.616813
   160  O   -0.615895
   161  H    0.174114
   162  H    0.154573
   163  H    0.227755
   164  H   -0.017972
   165  H    0.062550
   166  H    0.174703
   167  N   -0.106695
   168  C   -0.132457
   169  H    0.063644
   170  H    0.089490
   171  H    0.036417
   172  H    0.184258
   173  Ca   1.427636
   174  O   -0.680219
   175  H    0.366348
   176  H    0.405340
 Sum of ESP charges =  -0.00000

 Normal termination of Gaussian 16 at Sat Sep 14 22:40:06 2019.
