 Gaussian 16, Revision A.03,
 Gaussian 16:  ES64L-G16RevA.03 25-Dec-2016

 ----------------------------------------------------------------------
 #b3lyp/svp scf=(tight,noincore) Test #IOP(5/87=12) Density=Current Pop
 =(MK,readradii) iop(6/33=2) iop(6/42=6)
 ----------------------------------------------------------------------

 ------------------
 holoCaM_loop3_59.0
 ------------------
 Symbolic Z-matrix:
 Charge =  0 Multiplicity = 1

                         Standard orientation:
 ---------------------------------------------------------------------
 Center     Atomic      Atomic             Coordinates (Angstroms)
 Number     Number       Type             X           Y           Z
 ---------------------------------------------------------------------
      1          6           0        2.315482    1.872652    5.787305
      2          6           0        1.739297    1.867896    4.376848
      3          8           0        2.488348    1.942459    3.414007
      4          1           0        2.669237    2.874041    6.031289
      5          1           0        1.542278    1.578582    6.496803
      6          1           0        3.147099    1.170225    5.843106
      7          7           0        0.408155    1.862323    4.245976
      8          6           0       -0.197200    1.927269    2.937454
      9          6           0       -0.062878    3.351770    2.430548
     10          8           0       -0.674890    4.266382    2.982839
     11          6           0       -1.697442    1.628668    3.056661
     12          6           0       -2.443113    1.607272    1.735633
     13          8           0       -1.837152    1.901685    0.684523
     14          8           0       -3.608973    1.151467    1.739191
     15          1           0       -0.135522    1.733265    5.095893
     16          1           0        0.315883    1.294001    2.216469
     17          1           0       -2.146898    2.386840    3.696712
     18          1           0       -1.881211    0.657385    3.516161
     19          7           0        0.651690    3.527188    1.318244
     20          6           0        1.061210    4.755722    0.675827
     21          6           0        0.023549    5.423475   -0.223876
     22          8           0        0.191574    6.579842   -0.625103
     23          6           0        2.323207    4.434386   -0.126548
     24          6           0        3.138744    5.660099   -0.523320
     25          6           0        4.399890    5.219562   -1.276804
     26          6           0        5.165954    6.414933   -1.844549
     27          7           0        6.376945    5.952477   -2.531670
     28          1           0        1.096772    2.693761    0.958938
     29          1           0        1.226394    5.427731    1.515361
     30          1           0        1.947930    3.805113   -0.926912
     31          1           0        2.935244    3.743235    0.440744
     32          1           0        3.307434    6.205594    0.406669
     33          1           0        2.506471    6.262094   -1.183572
     34          1           0        4.084898    4.509055   -2.032820
     35          1           0        5.086510    4.705045   -0.606861
     36          1           0        5.361660    7.118323   -1.036377
     37          1           0        4.457026    6.901563   -2.519466
     38          1           0        6.848985    6.705854   -3.001990
     39          1           0        7.034210    5.557250   -1.876157
     40          1           0        6.131538    5.221447   -3.183107
     41          7           0       -1.116059    4.781072   -0.457999
     42          6           0       -2.239245    5.302709   -1.220460
     43          6           0       -3.558048    5.095204   -0.495545
     44          8           0       -4.587143    5.384211   -1.099482
     45          6           0       -2.247511    4.851974   -2.677501
     46          6           0       -2.424447    3.358827   -2.921642
     47          8           0       -2.317049    2.522713   -1.992514
     48          8           0       -2.773607    3.040424   -4.074251
     49          1           0       -1.195522    3.827243   -0.121851
     50          1           0       -2.105347    6.378187   -1.216110
     51          1           0       -1.307638    5.171798   -3.116764
     52          1           0       -3.033568    5.465139   -3.112752
     53          7           0       -3.501538    4.576737    0.730586
     54          6           0       -4.722262    4.228465    1.422857
     55          6           0       -5.619606    3.164734    0.795681
     56          8           0       -6.735745    3.019313    1.288921
     57          1           0       -2.605665    4.301596    1.110336
     58          1           0       -5.265056    5.162766    1.574373
     59          1           0       -4.531740    3.745482    2.371714
     60          7           0       -5.238573    2.377259   -0.217678
     61          6           0       -6.187393    1.615123   -0.998120
     62          6           0       -6.641118    0.337491   -0.304369
     63          8           0       -7.375151   -0.419940   -0.928464
     64          6           0       -5.625343    1.349381   -2.390989
     65          6           0       -4.793772    0.120092   -2.706483
     66          7           0       -4.739103   -0.338848   -3.957437
     67          8           0       -4.053533   -0.286127   -1.818603
     68          1           0       -4.262860    2.378565   -0.459300
     69          1           0       -7.106234    2.153864   -1.244878
     70          1           0       -5.069161    2.242438   -2.674734
     71          1           0       -6.498583    1.306168   -3.057685
     72          1           0       -5.331312   -0.084456   -4.738382
     73          1           0       -4.062107   -1.086757   -4.046925
     74          7           0       -6.135598   -0.013191    0.882547
     75          6           0       -6.423451   -1.205444    1.660541
     76          6           0       -5.372270   -2.301530    1.583644
     77          8           0       -5.597070   -3.302681    2.253914
     78          1           0       -5.610357    0.699958    1.364358
     79          1           0       -7.333710   -1.741903    1.392138
     80          1           0       -6.591777   -1.012767    2.722588
     81          7           0       -4.301628   -2.236120    0.777948
     82          6           0       -3.348288   -3.312390    0.606528
     83          6           0       -1.926683   -2.773933    0.641220
     84          8           0       -1.653371   -1.659635    0.204711
     85          6           0       -3.524692   -4.138960   -0.663222
     86          6           0       -4.927072   -4.693554   -0.794196
     87          6           0       -5.863619   -4.110145   -1.654379
     88          6           0       -5.290170   -5.770954    0.019112
     89          6           0       -7.188049   -4.577428   -1.679521
     90          6           0       -6.581073   -6.315250   -0.066401
     91          6           0       -7.503094   -5.736455   -0.945761
     92          8           0       -8.738301   -6.292687   -1.173947
     93          1           0       -4.137279   -1.340644    0.348049
     94          1           0       -3.413423   -4.103316    1.352379
     95          1           0       -2.754620   -4.906047   -0.761031
     96          1           0       -3.396137   -3.456605   -1.507003
     97          1           0       -5.608456   -3.323487   -2.343916
     98          1           0       -4.528098   -6.166847    0.670737
     99          1           0       -7.893656   -4.167723   -2.380349
    100          1           0       -6.945570   -7.221555    0.397014
    101          1           0       -8.976330   -7.057496   -0.643562
    102          7           0       -0.979587   -3.571748    1.128149
    103          6           0        0.390531   -3.133008    1.309489
    104          6           0        1.273615   -4.038481    0.475353
    105          8           0        0.991164   -5.227077    0.343975
    106          6           0        0.729570   -3.089483    2.802157
    107          6           0       -0.054924   -1.941583    3.423200
    108          6           0        2.239370   -3.087618    3.017100
    109          6           0       -0.138851   -1.966674    4.945740
    110          1           0       -1.237083   -4.399967    1.659044
    111          1           0        0.489849   -2.132378    0.883255
    112          1           0        0.246082   -3.994719    3.169970
    113          1           0       -1.110710   -1.897250    3.144721
    114          1           0        0.416734   -0.971100    3.265395
    115          1           0        2.600423   -2.244410    2.420241
    116          1           0        2.483377   -2.964834    4.069329
    117          1           0        2.667778   -4.007581    2.634694
    118          1           0       -0.864990   -2.693434    5.300622
    119          1           0        0.834100   -2.296987    5.329354
    120          1           0       -0.287617   -0.956040    5.314776
    121          7           0        2.353722   -3.465990   -0.059271
    122          6           0        3.335778   -4.086678   -0.923454
    123          6           0        4.746957   -3.972816   -0.351257
    124          8           0        5.006218   -3.096443    0.468655
    125          6           0        3.296670   -3.502496   -2.334730
    126          8           0        3.849593   -2.202882   -2.390221
    127          1           0        2.555357   -2.553283    0.332787
    128          1           0        3.029099   -5.137550   -0.934229
    129          1           0        2.229514   -3.457604   -2.585454
    130          1           0        3.835436   -4.055667   -3.097248
    131          1           0        3.333321   -1.670773   -2.997941
    132          7           0        5.666119   -4.798514   -0.869586
    133          6           0        7.072207   -4.597234   -0.603873
    134          6           0        7.681750   -3.238432   -0.943601
    135          8           0        8.480416   -2.711080   -0.183909
    136          6           0        7.788097   -5.784133   -1.241425
    137          1           0        5.407473   -5.434735   -1.611222
    138          1           0        7.159317   -4.672121    0.470931
    139          1           0        7.741919   -5.595619   -2.312560
    140          1           0        8.796465   -6.002646   -0.899597
    141          1           0        7.228786   -6.708816   -1.088025
    142          7           0        7.182508   -2.541432   -1.969197
    143          6           0        7.435553   -1.161865   -2.354506
    144          6           0        6.956359   -0.067298   -1.416372
    145          8           0        7.653447    0.928151   -1.237341
    146          6           0        6.904881   -1.004043   -3.774816
    147          1           0        6.401971   -3.024209   -2.376491
    148          1           0        8.508250   -0.980831   -2.430320
    149          1           0        5.819037   -1.115062   -3.731018
    150          1           0        7.218986    0.001292   -4.044703
    151          1           0        7.406009   -1.712086   -4.445148
    152          7           0        5.842543   -0.312689   -0.714804
    153          6           0        5.278119    0.643947    0.212812
    154          6           0        5.814109    0.396007    1.611897
    155          8           0        5.930048    1.294434    2.448311
    156          6           0        3.756793    0.597265    0.260659
    157          6           0        3.249145    1.139862   -1.067904
    158          6           0        1.759050    0.820677   -1.160294
    159          8           0        1.240471    0.756302   -2.293754
    160          8           0        0.950602    0.792619   -0.211915
    161          1           0        5.374010   -1.192261   -0.899819
    162          1           0        5.642879    1.653081   -0.003975
    163          1           0        3.417483    1.287936    1.026454
    164          1           0        3.413209   -0.428803    0.356761
    165          1           0        3.822172    0.689354   -1.876101
    166          1           0        3.375123    2.220031   -1.174979
    167          7           0        6.202850   -0.830771    1.961606
    168          6           0        7.034641   -1.225415    3.077706
    169          1           0        7.929641   -0.604237    3.100366
    170          1           0        6.480114   -1.097225    4.007703
    171          1           0        7.321331   -2.270968    2.965471
    172          1           0        5.944870   -1.557984    1.304941
    173         20           0       -1.358866    0.299640   -1.425476
    174          8           0       -1.167834   -2.077293   -2.607124
    175          1           0       -0.601407   -2.846945   -2.561328
    176          1           0       -1.679804   -2.200874   -3.398019
 ---------------------------------------------------------------------

 SCF Done:  E(RB3LYP) =  -5333.58408125     A.U. after   20 cycles

 The electronic state is 1-A.
 Alpha  occ. eigenvalues -- -145.36740 -19.20476 -19.19615 -19.16088 -19.14170
 Alpha  occ. eigenvalues --  -19.12490 -19.12412 -19.11749 -19.10708 -19.10424
 Alpha  occ. eigenvalues --  -19.06986 -19.06972 -19.06153 -19.06076 -19.06061
 Alpha  occ. eigenvalues --  -19.06061 -19.05109 -19.03944 -19.03776 -19.03007
 Alpha  occ. eigenvalues --  -19.02926 -19.02597 -19.01521 -18.99848 -15.42504
 Alpha  occ. eigenvalues --  -14.58460 -14.41666 -14.38891 -14.38184 -14.37545
 Alpha  occ. eigenvalues --  -14.36129 -14.36100 -14.33472 -14.32209 -14.32052
 Alpha  occ. eigenvalues --  -14.31560 -14.30648 -14.30023 -14.29441 -14.28420
 Alpha  occ. eigenvalues --  -12.56119 -12.56085 -12.56058 -10.34279 -10.34120
 Alpha  occ. eigenvalues --  -10.30799 -10.30785 -10.30432 -10.29848 -10.29238
 Alpha  occ. eigenvalues --  -10.28835 -10.28596 -10.27295 -10.26293 -10.25902
 Alpha  occ. eigenvalues --  -10.25844 -10.25474 -10.25064 -10.24648 -10.24393
 Alpha  occ. eigenvalues --  -10.24314 -10.24286 -10.23200 -10.23178 -10.23052
 Alpha  occ. eigenvalues --  -10.22669 -10.22650 -10.22553 -10.22028 -10.22012
 Alpha  occ. eigenvalues --  -10.21998 -10.21941 -10.21406 -10.20816 -10.20619
 Alpha  occ. eigenvalues --  -10.20329 -10.19767 -10.19414 -10.19280 -10.19087
 Alpha  occ. eigenvalues --  -10.18806 -10.18677 -10.18592 -10.18570 -10.17909
 Alpha  occ. eigenvalues --  -10.17746 -10.17518 -10.17363 -10.17357 -10.17353
 Alpha  occ. eigenvalues --  -10.17319 -10.17312 -10.17274 -10.16615 -10.16540
 Alpha  occ. eigenvalues --  -10.14672 -10.12689  -1.79297  -1.13721  -1.09252
 Alpha  occ. eigenvalues --   -1.07563  -1.07316  -1.06953  -1.06717  -1.06008
 Alpha  occ. eigenvalues --   -1.05795  -1.05303  -1.04919  -1.03516  -1.03200
 Alpha  occ. eigenvalues --   -1.02351  -1.02238  -1.00614  -0.99391  -0.99290
 Alpha  occ. eigenvalues --   -0.98840  -0.98584  -0.98503  -0.97494  -0.97087
 Alpha  occ. eigenvalues --   -0.96996  -0.96032  -0.95872  -0.95771  -0.94953
 Alpha  occ. eigenvalues --   -0.94455  -0.92839  -0.90570  -0.90485  -0.89850
 Alpha  occ. eigenvalues --   -0.89604  -0.89117  -0.88135  -0.88063  -0.87716
 Alpha  occ. eigenvalues --   -0.87217  -0.86427  -0.86073  -0.85713  -0.85172
 Alpha  occ. eigenvalues --   -0.84115  -0.83197  -0.82654  -0.81089  -0.80403
 Alpha  occ. eigenvalues --   -0.79889  -0.79032  -0.77987  -0.75869  -0.75172
 Alpha  occ. eigenvalues --   -0.74450  -0.74283  -0.73130  -0.72817  -0.72728
 Alpha  occ. eigenvalues --   -0.72472  -0.72449  -0.71729  -0.71430  -0.70707
 Alpha  occ. eigenvalues --   -0.70228  -0.69621  -0.68900  -0.68321  -0.67761
 Alpha  occ. eigenvalues --   -0.66987  -0.66863  -0.66029  -0.64713  -0.64056
 Alpha  occ. eigenvalues --   -0.63466  -0.63201  -0.62492  -0.62419  -0.62278
 Alpha  occ. eigenvalues --   -0.61573  -0.61547  -0.61295  -0.60810  -0.60044
 Alpha  occ. eigenvalues --   -0.60026  -0.59875  -0.59784  -0.58820  -0.57480
 Alpha  occ. eigenvalues --   -0.57469  -0.57298  -0.57248  -0.56589  -0.55626
 Alpha  occ. eigenvalues --   -0.55608  -0.55471  -0.55257  -0.55113  -0.54840
 Alpha  occ. eigenvalues --   -0.54683  -0.54011  -0.53865  -0.53498  -0.52872
 Alpha  occ. eigenvalues --   -0.52848  -0.52411  -0.52274  -0.52142  -0.51999
 Alpha  occ. eigenvalues --   -0.51669  -0.51105  -0.50798  -0.50488  -0.49746
 Alpha  occ. eigenvalues --   -0.49411  -0.49341  -0.49126  -0.48864  -0.48386
 Alpha  occ. eigenvalues --   -0.48362  -0.48179  -0.48067  -0.47850  -0.47599
 Alpha  occ. eigenvalues --   -0.47360  -0.47100  -0.46897  -0.46815  -0.46658
 Alpha  occ. eigenvalues --   -0.46385  -0.46142  -0.46032  -0.45846  -0.45541
 Alpha  occ. eigenvalues --   -0.45428  -0.44924  -0.44861  -0.44766  -0.44522
 Alpha  occ. eigenvalues --   -0.44271  -0.44148  -0.44046  -0.43970  -0.43596
 Alpha  occ. eigenvalues --   -0.43520  -0.43352  -0.43203  -0.43147  -0.42828
 Alpha  occ. eigenvalues --   -0.42787  -0.42712  -0.42529  -0.42490  -0.42287
 Alpha  occ. eigenvalues --   -0.41977  -0.41813  -0.41707  -0.41479  -0.41309
 Alpha  occ. eigenvalues --   -0.41100  -0.41022  -0.40940  -0.40557  -0.40464
 Alpha  occ. eigenvalues --   -0.40415  -0.40289  -0.40173  -0.40005  -0.39628
 Alpha  occ. eigenvalues --   -0.39618  -0.39489  -0.39379  -0.39318  -0.39206
 Alpha  occ. eigenvalues --   -0.38822  -0.38763  -0.38630  -0.38486  -0.38318
 Alpha  occ. eigenvalues --   -0.38247  -0.38204  -0.38040  -0.37968  -0.37858
 Alpha  occ. eigenvalues --   -0.37596  -0.37416  -0.37255  -0.37237  -0.37053
 Alpha  occ. eigenvalues --   -0.36813  -0.36635  -0.36353  -0.36266  -0.36180
 Alpha  occ. eigenvalues --   -0.36028  -0.35636  -0.35536  -0.35321  -0.35178
 Alpha  occ. eigenvalues --   -0.35037  -0.34860  -0.34655  -0.34596  -0.34394
 Alpha  occ. eigenvalues --   -0.34240  -0.34101  -0.33976  -0.33864  -0.33604
 Alpha  occ. eigenvalues --   -0.33386  -0.33341  -0.33146  -0.32947  -0.32652
 Alpha  occ. eigenvalues --   -0.32479  -0.32220  -0.31992  -0.31715  -0.31643
 Alpha  occ. eigenvalues --   -0.31253  -0.31104  -0.31094  -0.30417  -0.30021
 Alpha  occ. eigenvalues --   -0.29918  -0.29859  -0.29575  -0.28832  -0.28287
 Alpha  occ. eigenvalues --   -0.28187  -0.27860  -0.27512  -0.27344  -0.26115
 Alpha  occ. eigenvalues --   -0.26044  -0.25708  -0.25331  -0.24256  -0.24044
 Alpha  occ. eigenvalues --   -0.23967  -0.23135  -0.22968  -0.22913  -0.22672
 Alpha  occ. eigenvalues --   -0.22660  -0.22600  -0.21793  -0.21644  -0.21547
 Alpha  occ. eigenvalues --   -0.21235  -0.21032  -0.20561  -0.20313  -0.20129
 Alpha  occ. eigenvalues --   -0.19820  -0.19381  -0.19312  -0.18964  -0.18393
 Alpha  occ. eigenvalues --   -0.18324  -0.17130  -0.15856
 Alpha virt. eigenvalues --   -0.09965  -0.04784  -0.03882  -0.03842  -0.03740
 Alpha virt. eigenvalues --   -0.01919  -0.01369  -0.00839  -0.00352  -0.00192
 Alpha virt. eigenvalues --    0.00312   0.00427   0.00701   0.01865   0.02147

 Mulliken charges:
               1
     1  C    0.076465
     2  C    0.012898
     3  O   -0.281716
     4  H    0.044152
     5  H   -0.015213
     6  H    0.034314
     7  N   -0.126265
     8  C    0.099277
     9  C    0.050035
    10  O   -0.298515
    11  C    0.062586
    12  C    0.107834
    13  O   -0.438797
    14  O   -0.383364
    15  H    0.124161
    16  H    0.012976
    17  H    0.014395
    18  H   -0.002210
    19  N   -0.122944
    20  C    0.149857
    21  C    0.058208
    22  O   -0.319091
    23  C   -0.075603
    24  C    0.051941
    25  C   -0.084584
    26  C    0.030937
    27  N    0.099458
    28  H    0.144064
    29  H    0.012855
    30  H    0.039462
    31  H    0.032533
    32  H    0.020574
    33  H    0.033699
    34  H    0.039080
    35  H    0.033370
    36  H    0.081618
    37  H    0.080082
    38  H    0.188923
    39  H    0.196777
    40  H    0.195177
    41  N   -0.167027
    42  C    0.146577
    43  C    0.025701
    44  O   -0.284304
    45  C    0.090361
    46  C    0.130758
    47  O   -0.485614
    48  O   -0.381278
    49  H    0.168397
    50  H    0.003838
    51  H   -0.015449
    52  H    0.017935
    53  N   -0.149751
    54  C    0.243154
    55  C    0.032948
    56  O   -0.321596
    57  H    0.137176
    58  H    0.024521
    59  H    0.023364
    60  N   -0.144197
    61  C    0.183593
    62  C    0.037642
    63  O   -0.310380
    64  C    0.032575
    65  C    0.090022
    66  N   -0.026982
    67  O   -0.349325
    68  H    0.153138
    69  H    0.020940
    70  H    0.084583
    71  H   -0.007262
    72  H    0.143071
    73  H    0.098901
    74  N   -0.133845
    75  C    0.236499
    76  C    0.023218
    77  O   -0.311355
    78  H    0.154226
    79  H    0.036898
    80  H    0.024561
    81  N   -0.126991
    82  C    0.123180
    83  C    0.135028
    84  O   -0.366826
    85  C    0.150647
    86  C   -0.007140
    87  C    0.002274
    88  C    0.031629
    89  C    0.005866
    90  C    0.003187
    91  C    0.139038
    92  O   -0.219550
    93  H    0.156565
    94  H   -0.012224
    95  H   -0.015397
    96  H   -0.062585
    97  H   -0.046091
    98  H   -0.042439
    99  H   -0.024413
   100  H   -0.056055
   101  H    0.171477
   102  N   -0.115176
   103  C    0.097212
   104  C    0.036697
   105  O   -0.273779
   106  C   -0.088672
   107  C   -0.023496
   108  C    0.098415
   109  C    0.034491
   110  H    0.136057
   111  H    0.021721
   112  H   -0.026750
   113  H    0.035652
   114  H    0.027695
   115  H    0.014360
   116  H    0.022929
   117  H    0.020648
   118  H    0.010978
   119  H   -0.015911
   120  H   -0.002724
   121  N   -0.148035
   122  C    0.109490
   123  C    0.087444
   124  O   -0.271496
   125  C    0.219964
   126  O   -0.318079
   127  H    0.157007
   128  H    0.031852
   129  H    0.007913
   130  H   -0.001219
   131  H    0.204062
   132  N   -0.130115
   133  C    0.087558
   134  C    0.053259
   135  O   -0.246150
   136  C    0.033631
   137  H    0.123606
   138  H    0.030305
   139  H    0.003700
   140  H    0.052987
   141  H    0.022113
   142  N   -0.133811
   143  C    0.109696
   144  C    0.062625
   145  O   -0.288315
   146  C    0.028641
   147  H    0.100029
   148  H    0.018144
   149  H    0.003496
   150  H    0.013144
   151  H    0.027458
   152  N   -0.162424
   153  C    0.105821
   154  C    0.051082
   155  O   -0.287233
   156  C    0.050781
   157  C    0.087093
   158  C    0.092701
   159  O   -0.418406
   160  O   -0.401893
   161  H    0.140330
   162  H   -0.020218
   163  H    0.063079
   164  H   -0.026775
   165  H   -0.045326
   166  H   -0.031238
   167  N   -0.159956
   168  C    0.155391
   169  H    0.022350
   170  H    0.016588
   171  H    0.009864
   172  H    0.115264
   173  Ca   1.293253
   174  O   -0.269382
   175  H    0.185358
   176  H    0.177826
 Sum of Mulliken charges =  -0.00000

 Dipole moment (field-independent basis, Debye):
    X=             35.2998    Y=             -6.4150    Z=            -15.8230  Tot=             39.2122
 Quadrupole moment (field-independent basis, Debye-Ang):
   XX=           -570.6369   YY=           -456.4655   ZZ=           -511.3248
   XY=            138.9741   XZ=            -86.0232   YZ=            -20.0158

 ESP charges:
               1
     1  C   -0.447728
     2  C    0.817570
     3  O   -0.626393
     4  H    0.135687
     5  H    0.072157
     6  H    0.131457
     7  N   -0.722443
     8  C    0.184232
     9  C    0.652959
    10  O   -0.582545
    11  C   -0.476034
    12  C    1.080935
    13  O   -0.937916
    14  O   -0.853114
    15  H    0.379808
    16  H   -0.027344
    17  H    0.127013
    18  H    0.112142
    19  N   -0.309913
    20  C   -0.485491
    21  C    0.730250
    22  O   -0.593930
    23  C    0.291147
    24  C   -0.412668
    25  C    0.176644
    26  C    0.086864
    27  N   -0.477539
    28  H    0.287424
    29  H    0.192213
    30  H    0.033473
    31  H    0.040263
    32  H    0.119275
    33  H    0.112140
    34  H   -0.013600
    35  H   -0.010886
    36  H    0.072257
    37  H    0.070734
    38  H    0.357563
    39  H    0.363826
    40  H    0.349240
    41  N   -0.616157
    42  C    0.160465
    43  C    0.436454
    44  O   -0.529031
    45  C   -0.255596
    46  C    0.806796
    47  O   -0.868703
    48  O   -0.709480
    49  H    0.436535
    50  H    0.072396
    51  H    0.062775
    52  H    0.074988
    53  N   -0.258226
    54  C   -0.265140
    55  C    0.607878
    56  O   -0.605977
    57  H    0.217247
    58  H    0.134835
    59  H    0.132785
    60  N   -0.304821
    61  C   -0.120945
    62  C    0.494970
    63  O   -0.560045
    64  C   -0.222380
    65  C    0.741762
    66  N   -0.872734
    67  O   -0.543846
    68  H    0.329445
    69  H    0.150502
    70  H    0.150497
    71  H    0.060874
    72  H    0.420581
    73  H    0.371958
    74  N   -0.309080
    75  C   -0.099166
    76  C    0.571543
    77  O   -0.584811
    78  H    0.343263
    79  H    0.120622
    80  H    0.070380
    81  N   -0.250706
    82  C    0.130830
    83  C    0.388427
    84  O   -0.519938
    85  C    0.311528
    86  C   -0.154422
    87  C   -0.200646
    88  C   -0.143706
    89  C   -0.099761
    90  C   -0.167478
    91  C    0.294607
    92  O   -0.582342
    93  H    0.143968
    94  H    0.013900
    95  H   -0.061244
    96  H   -0.093257
    97  H    0.131693
    98  H    0.130475
    99  H    0.131307
   100  H    0.093554
   101  H    0.428210
   102  N   -0.498655
   103  C   -0.006850
   104  C    0.737680
   105  O   -0.591222
   106  C    0.078357
   107  C    0.178037
   108  C   -0.324759
   109  C   -0.271348
   110  H    0.316712
   111  H    0.048551
   112  H    0.011970
   113  H    0.010502
   114  H    0.050846
   115  H    0.035859
   116  H    0.122479
   117  H    0.077463
   118  H    0.061485
   119  H    0.037230
   120  H    0.055050
   121  N   -0.415149
   122  C    0.066602
   123  C    0.459852
   124  O   -0.358128
   125  C   -0.061287
   126  O   -0.361227
   127  H    0.196151
   128  H    0.065581
   129  H    0.072643
   130  H    0.057451
   131  H    0.361456
   132  N   -0.458786
   133  C    0.100060
   134  C    0.539242
   135  O   -0.526548
   136  C   -0.276507
   137  H    0.302352
   138  H    0.095497
   139  H    0.059751
   140  H    0.114610
   141  H    0.093154
   142  N   -0.550999
   143  C    0.358285
   144  C    0.274949
   145  O   -0.550413
   146  C   -0.366350
   147  H    0.292069
   148  H    0.052407
   149  H    0.064518
   150  H    0.094359
   151  H    0.101792
   152  N    0.191335
   153  C   -0.076148
   154  C    0.495589
   155  O   -0.549398
   156  C   -0.428722
   157  C   -0.218847
   158  C    0.799807
   159  O   -0.781604
   160  O   -0.718174
   161  H   -0.137432
   162  H    0.074670
   163  H    0.218047
   164  H    0.175851
   165  H    0.033902
   166  H    0.068953
   167  N   -0.142078
   168  C   -0.205132
   169  H    0.104459
   170  H    0.080767
   171  H    0.087576
   172  H    0.114906
   173  Ca   1.616170
   174  O   -0.847714
   175  H    0.438551
   176  H    0.409755
 Sum of ESP charges =   0.00000

 Normal termination of Gaussian 16 at Wed Sep 18 20:37:54 2019.
