 Gaussian 16, Revision A.03,
 Gaussian 16:  ES64L-G16RevA.03 25-Dec-2016

 ----------------------------------------------------------------------
 #b3lyp/svp scf=(tight,noincore) Test #IOP(5/87=12) Density=Current Pop
 =(MK,readradii) iop(6/33=2) iop(6/42=6)
 ----------------------------------------------------------------------

 ------------------
 holoCaM_loop3_52.0
 ------------------
 Symbolic Z-matrix:
 Charge =  0 Multiplicity = 1

                         Standard orientation:
 ---------------------------------------------------------------------
 Center     Atomic      Atomic             Coordinates (Angstroms)
 Number     Number       Type             X           Y           Z
 ---------------------------------------------------------------------
      1          6           0        2.344979    2.835197    4.545379
      2          6           0        1.480526    2.613147    3.314683
      3          8           0        1.993046    2.674300    2.201631
      4          1           0        3.360869    2.497091    4.340867
      5          1           0        2.358830    3.896108    4.793443
      6          1           0        1.936957    2.270481    5.384133
      7          7           0        0.162773    2.402857    3.446991
      8          6           0       -0.757905    2.317949    2.336837
      9          6           0       -1.202867    3.740986    2.037545
     10          8           0       -2.255894    4.228708    2.430814
     11          6           0       -1.840008    1.312089    2.721804
     12          6           0       -2.890993    1.181297    1.626303
     13          8           0       -2.519537    1.294159    0.437572
     14          8           0       -4.076792    0.959875    1.962239
     15          1           0       -0.233244    2.384008    4.370471
     16          1           0       -0.214780    1.968292    1.451594
     17          1           0       -2.263600    1.630174    3.677153
     18          1           0       -1.330120    0.370946    2.896345
     19          7           0       -0.392611    4.462948    1.246497
     20          6           0       -0.588324    5.802700    0.760019
     21          6           0       -1.773136    6.006554   -0.170553
     22          8           0       -2.458720    7.033174   -0.111160
     23          6           0        0.665094    6.268740    0.023846
     24          6           0        2.026365    6.292283    0.717451
     25          6           0        3.108703    6.802153   -0.222218
     26          6           0        3.723392    5.826010   -1.224916
     27          7           0        5.094398    5.367500   -0.964705
     28          1           0        0.384114    3.916598    0.901388
     29          1           0       -0.812047    6.403068    1.640078
     30          1           0        0.540017    7.231290   -0.483355
     31          1           0        0.851333    5.500655   -0.725195
     32          1           0        2.295833    5.258954    0.949440
     33          1           0        2.012294    6.950878    1.590064
     34          1           0        3.931318    7.242886    0.345284
     35          1           0        2.790555    7.707987   -0.726743
     36          1           0        3.701380    6.308213   -2.196923
     37          1           0        3.133398    4.918723   -1.362168
     38          1           0        5.737233    6.128213   -1.130478
     39          1           0        5.202965    4.979882   -0.039197
     40          1           0        5.375968    4.627414   -1.604073
     41          7           0       -2.049284    5.104986   -1.122769
     42          6           0       -3.240123    5.166652   -1.951623
     43          6           0       -4.512964    4.784409   -1.214489
     44          8           0       -5.541508    5.353463   -1.590886
     45          6           0       -3.141543    4.200601   -3.131042
     46          6           0       -2.505170    2.859642   -2.790223
     47          8           0       -1.375747    2.799081   -2.258398
     48          8           0       -3.070444    1.786827   -3.082681
     49          1           0       -1.503327    4.259466   -1.065083
     50          1           0       -3.481302    6.173064   -2.282482
     51          1           0       -2.574264    4.677690   -3.921914
     52          1           0       -4.177606    4.090674   -3.455218
     53          7           0       -4.392825    3.869149   -0.248225
     54          6           0       -5.569288    3.589784    0.542085
     55          6           0       -6.427162    2.479982   -0.045531
     56          8           0       -7.614447    2.760348   -0.205686
     57          1           0       -3.509246    3.448328   -0.014348
     58          1           0       -6.165662    4.496499    0.684931
     59          1           0       -5.184572    3.220568    1.490015
     60          7           0       -5.824806    1.339707   -0.409317
     61          6           0       -6.400125    0.158215   -1.001756
     62          6           0       -6.478862   -1.110702   -0.168060
     63          8           0       -6.967283   -2.145955   -0.621710
     64          6           0       -5.706630   -0.122891   -2.327895
     65          6           0       -4.356595   -0.807762   -2.212323
     66          7           0       -3.775982   -1.362594   -3.283841
     67          8           0       -3.740732   -0.854951   -1.155448
     68          1           0       -4.888919    1.219503   -0.045084
     69          1           0       -7.424879    0.449978   -1.264156
     70          1           0       -5.630178    0.723690   -3.009844
     71          1           0       -6.285301   -0.969722   -2.721109
     72          1           0       -4.273722   -1.275675   -4.169053
     73          1           0       -2.905489   -1.849868   -3.347139
     74          7           0       -6.018346   -1.032603    1.080309
     75          6           0       -5.887376   -2.097040    2.057919
     76          6           0       -4.533180   -2.800841    2.035200
     77          8           0       -4.311736   -3.692168    2.858060
     78          1           0       -5.607465   -0.138225    1.324574
     79          1           0       -6.558865   -2.939791    1.930352
     80          1           0       -5.932359   -1.742124    3.083254
     81          7           0       -3.663332   -2.636780    1.043914
     82          6           0       -2.657788   -3.659185    0.840273
     83          6           0       -1.354946   -2.927829    0.548694
     84          8           0       -1.264350   -1.908261   -0.155063
     85          6           0       -2.958730   -4.598779   -0.315019
     86          6           0       -4.320882   -5.265368   -0.313935
     87          6           0       -5.272653   -5.005700   -1.297198
     88          6           0       -4.662975   -6.018747    0.815840
     89          6           0       -6.542933   -5.602137   -1.289937
     90          6           0       -5.942734   -6.571821    0.908716
     91          6           0       -6.796925   -6.467060   -0.203706
     92          8           0       -8.032408   -7.031394   -0.107234
     93          1           0       -3.899522   -2.047691    0.262704
     94          1           0       -2.513175   -4.269628    1.736625
     95          1           0       -2.217986   -5.378434   -0.502730
     96          1           0       -2.896691   -4.028425   -1.239436
     97          1           0       -5.002572   -4.348900   -2.120890
     98          1           0       -3.917154   -6.215102    1.585383
     99          1           0       -7.289197   -5.351410   -2.022825
    100          1           0       -6.109906   -7.121168    1.830710
    101          1           0       -8.119564   -7.634129    0.635743
    102          7           0       -0.280199   -3.430265    1.148759
    103          6           0        1.071575   -2.898363    1.131814
    104          6           0        1.986347   -3.763778    0.284966
    105          8           0        2.094615   -4.971619    0.509237
    106          6           0        1.610074   -2.733761    2.552914
    107          6           0        0.838168   -1.675698    3.328518
    108          6           0        3.112279   -2.477695    2.573190
    109          6           0        1.145863   -1.781468    4.825961
    110          1           0       -0.455467   -4.208249    1.760496
    111          1           0        0.968276   -1.910007    0.687539
    112          1           0        1.500309   -3.735334    2.965108
    113          1           0       -0.245592   -1.761009    3.223702
    114          1           0        1.176734   -0.691194    2.993518
    115          1           0        3.418176   -1.659471    1.925166
    116          1           0        3.581108   -2.207962    3.512841
    117          1           0        3.602855   -3.409415    2.264266
    118          1           0        2.021235   -1.206230    5.137289
    119          1           0        0.363777   -1.331294    5.436441
    120          1           0        1.205283   -2.815794    5.166018
    121          7           0        2.764970   -3.164870   -0.613119
    122          6           0        3.856807   -3.791387   -1.334762
    123          6           0        5.194711   -3.446983   -0.683611
    124          8           0        5.288515   -2.527529    0.122555
    125          6           0        3.809119   -3.350208   -2.786412
    126          8           0        4.333067   -2.052924   -2.922912
    127          1           0        2.692152   -2.165708   -0.759310
    128          1           0        3.666471   -4.859956   -1.391631
    129          1           0        2.777103   -3.286941   -3.146467
    130          1           0        4.443834   -4.025757   -3.372646
    131          1           0        3.709322   -1.394220   -3.247335
    132          7           0        6.245303   -4.136119   -1.149173
    133          6           0        7.579300   -3.838587   -0.652255
    134          6           0        8.077446   -2.421856   -0.903503
    135          8           0        8.664126   -1.842743   -0.001208
    136          6           0        8.491350   -4.928569   -1.223309
    137          1           0        6.207985   -4.859983   -1.843744
    138          1           0        7.557081   -3.933782    0.435377
    139          1           0        9.529441   -4.846791   -0.901004
    140          1           0        8.036172   -5.874996   -0.946202
    141          1           0        8.525815   -4.910458   -2.313761
    142          7           0        7.549429   -1.786373   -1.950765
    143          6           0        7.936723   -0.410370   -2.243884
    144          6           0        7.356059    0.514494   -1.181078
    145          8           0        7.841450    1.623625   -0.987107
    146          6           0        7.344821   -0.064150   -3.604907
    147          1           0        6.967766   -2.326975   -2.571827
    148          1           0        9.027766   -0.294401   -2.271759
    149          1           0        6.291933   -0.339282   -3.599653
    150          1           0        7.467303    1.006662   -3.762259
    151          1           0        7.868903   -0.562292   -4.414718
    152          7           0        6.213874    0.118049   -0.623186
    153          6           0        5.437414    0.879382    0.336076
    154          6           0        6.043828    0.703362    1.717625
    155          8           0        5.978296    1.609421    2.552647
    156          6           0        3.958471    0.526234    0.198181
    157          6           0        3.124589    1.327631   -0.790607
    158          6           0        1.649057    0.929473   -0.888975
    159          8           0        1.382978   -0.179010   -1.389544
    160          8           0        0.730631    1.682215   -0.488884
    161          1           0        5.948313   -0.841251   -0.802127
    162          1           0        5.531214    1.922597    0.028337
    163          1           0        3.448688    0.603551    1.154969
    164          1           0        3.845955   -0.521704   -0.084782
    165          1           0        3.560820    1.248123   -1.794142
    166          1           0        3.089033    2.388117   -0.536235
    167          7           0        6.594805   -0.476536    2.001287
    168          6           0        7.368974   -0.671306    3.205334
    169          1           0        8.380502   -0.980134    2.940424
    170          1           0        7.409666    0.262042    3.766263
    171          1           0        6.902512   -1.443273    3.817175
    172          1           0        6.577143   -1.152158    1.243578
    173         20           0       -1.325736    0.345060   -1.520374
    174          8           0       -1.157309   -2.145800   -2.772431
    175          1           0       -1.333044   -2.802951   -3.444866
    176          1           0       -0.513188   -2.563997   -2.196132
 ---------------------------------------------------------------------

 SCF Done:  E(RB3LYP) =  -5333.62711141     A.U. after   17 cycles

 The electronic state is 1-A.
 Alpha  occ. eigenvalues -- -145.36261 -19.19926 -19.18781 -19.16212 -19.13892
 Alpha  occ. eigenvalues --  -19.13276 -19.12045 -19.11321 -19.11107 -19.09900
 Alpha  occ. eigenvalues --  -19.08829 -19.08753 -19.08668 -19.07462 -19.07008
 Alpha  occ. eigenvalues --  -19.05878 -19.05823 -19.05039 -19.04970 -19.04949
 Alpha  occ. eigenvalues --  -19.04633 -19.03580 -19.03441 -19.03141 -15.42001
 Alpha  occ. eigenvalues --  -14.57167 -14.41614 -14.39154 -14.37810 -14.37391
 Alpha  occ. eigenvalues --  -14.36225 -14.35175 -14.34756 -14.34566 -14.32893
 Alpha  occ. eigenvalues --  -14.32036 -14.31030 -14.30164 -14.29697 -14.29353
 Alpha  occ. eigenvalues --  -12.55614 -12.55582 -12.55561 -10.34323 -10.33639
 Alpha  occ. eigenvalues --  -10.31613 -10.30251 -10.30088 -10.29686 -10.29496
 Alpha  occ. eigenvalues --  -10.28995 -10.27868 -10.27508 -10.27472 -10.27411
 Alpha  occ. eigenvalues --  -10.27199 -10.26446 -10.26372 -10.25456 -10.24903
 Alpha  occ. eigenvalues --  -10.24594 -10.24433 -10.24107 -10.24043 -10.24004
 Alpha  occ. eigenvalues --  -10.23842 -10.23630 -10.23408 -10.22876 -10.22541
 Alpha  occ. eigenvalues --  -10.22303 -10.22081 -10.21958 -10.21912 -10.21294
 Alpha  occ. eigenvalues --  -10.20753 -10.20222 -10.20137 -10.19971 -10.19886
 Alpha  occ. eigenvalues --  -10.19871 -10.19581 -10.18989 -10.18875 -10.18592
 Alpha  occ. eigenvalues --  -10.18178 -10.17815 -10.17683 -10.17564 -10.17378
 Alpha  occ. eigenvalues --  -10.17221 -10.17076 -10.17068 -10.16874 -10.15761
 Alpha  occ. eigenvalues --  -10.15751 -10.15215  -1.78895  -1.12295  -1.09358
 Alpha  occ. eigenvalues --   -1.06964  -1.06866  -1.06633  -1.06512  -1.06476
 Alpha  occ. eigenvalues --   -1.05818  -1.04814  -1.04178  -1.04036  -1.03549
 Alpha  occ. eigenvalues --   -1.02898  -1.02743  -1.02181  -1.01557  -1.00333
 Alpha  occ. eigenvalues --   -1.00206  -0.99864  -0.98677  -0.98610  -0.98539
 Alpha  occ. eigenvalues --   -0.98071  -0.96405  -0.96233  -0.95525  -0.94573
 Alpha  occ. eigenvalues --   -0.94073  -0.93670  -0.92459  -0.91373  -0.90482
 Alpha  occ. eigenvalues --   -0.90295  -0.90082  -0.89423  -0.89372  -0.88981
 Alpha  occ. eigenvalues --   -0.88176  -0.87541  -0.87267  -0.86590  -0.85647
 Alpha  occ. eigenvalues --   -0.83753  -0.83141  -0.82548  -0.81268  -0.80670
 Alpha  occ. eigenvalues --   -0.79882  -0.79220  -0.77763  -0.76794  -0.75730
 Alpha  occ. eigenvalues --   -0.75230  -0.75030  -0.74001  -0.73697  -0.72609
 Alpha  occ. eigenvalues --   -0.72339  -0.72014  -0.71642  -0.71209  -0.70978
 Alpha  occ. eigenvalues --   -0.70771  -0.70134  -0.69676  -0.69145  -0.68073
 Alpha  occ. eigenvalues --   -0.67507  -0.67304  -0.66485  -0.64927  -0.64389
 Alpha  occ. eigenvalues --   -0.64263  -0.63695  -0.63255  -0.62811  -0.62379
 Alpha  occ. eigenvalues --   -0.61946  -0.61251  -0.60801  -0.60575  -0.60378
 Alpha  occ. eigenvalues --   -0.60187  -0.59941  -0.59900  -0.58624  -0.58458
 Alpha  occ. eigenvalues --   -0.57885  -0.57535  -0.57361  -0.57215  -0.56782
 Alpha  occ. eigenvalues --   -0.56622  -0.56324  -0.55604  -0.55121  -0.54832
 Alpha  occ. eigenvalues --   -0.54588  -0.54250  -0.53643  -0.53402  -0.53168
 Alpha  occ. eigenvalues --   -0.53034  -0.52923  -0.52867  -0.52550  -0.52307
 Alpha  occ. eigenvalues --   -0.52163  -0.51539  -0.51037  -0.50783  -0.50398
 Alpha  occ. eigenvalues --   -0.50159  -0.49947  -0.49279  -0.49162  -0.49002
 Alpha  occ. eigenvalues --   -0.48801  -0.48459  -0.48133  -0.47825  -0.47683
 Alpha  occ. eigenvalues --   -0.47488  -0.47294  -0.47190  -0.46998  -0.46905
 Alpha  occ. eigenvalues --   -0.46771  -0.46755  -0.46390  -0.46291  -0.46241
 Alpha  occ. eigenvalues --   -0.46036  -0.45777  -0.45606  -0.45392  -0.45218
 Alpha  occ. eigenvalues --   -0.44914  -0.44894  -0.44516  -0.44339  -0.44176
 Alpha  occ. eigenvalues --   -0.44024  -0.43829  -0.43796  -0.43646  -0.43370
 Alpha  occ. eigenvalues --   -0.43299  -0.43172  -0.42977  -0.42899  -0.42355
 Alpha  occ. eigenvalues --   -0.42336  -0.42210  -0.42118  -0.41867  -0.41688
 Alpha  occ. eigenvalues --   -0.41542  -0.41369  -0.41345  -0.41264  -0.41165
 Alpha  occ. eigenvalues --   -0.41009  -0.40900  -0.40801  -0.40702  -0.40574
 Alpha  occ. eigenvalues --   -0.40293  -0.40226  -0.40069  -0.39834  -0.39761
 Alpha  occ. eigenvalues --   -0.39681  -0.39403  -0.39295  -0.39240  -0.39063
 Alpha  occ. eigenvalues --   -0.38989  -0.38831  -0.38645  -0.38517  -0.38263
 Alpha  occ. eigenvalues --   -0.38184  -0.38015  -0.37838  -0.37777  -0.37591
 Alpha  occ. eigenvalues --   -0.37498  -0.37270  -0.37159  -0.36924  -0.36859
 Alpha  occ. eigenvalues --   -0.36723  -0.36470  -0.36359  -0.36053  -0.35887
 Alpha  occ. eigenvalues --   -0.35819  -0.35572  -0.35394  -0.35177  -0.34926
 Alpha  occ. eigenvalues --   -0.34612  -0.34397  -0.34240  -0.34025  -0.33861
 Alpha  occ. eigenvalues --   -0.33737  -0.33686  -0.33414  -0.33390  -0.33317
 Alpha  occ. eigenvalues --   -0.33255  -0.33147  -0.32837  -0.32810  -0.32607
 Alpha  occ. eigenvalues --   -0.32452  -0.31800  -0.31778  -0.31071  -0.31045
 Alpha  occ. eigenvalues --   -0.30782  -0.29944  -0.29230  -0.28956  -0.28579
 Alpha  occ. eigenvalues --   -0.28386  -0.28187  -0.28066  -0.26897  -0.26703
 Alpha  occ. eigenvalues --   -0.26597  -0.26486  -0.25650  -0.25503  -0.24999
 Alpha  occ. eigenvalues --   -0.24783  -0.24683  -0.24330  -0.24077  -0.24042
 Alpha  occ. eigenvalues --   -0.23871  -0.23479  -0.23443  -0.23028  -0.22967
 Alpha  occ. eigenvalues --   -0.22425  -0.22381  -0.22031  -0.21718  -0.21413
 Alpha  occ. eigenvalues --   -0.20898  -0.20738  -0.20245  -0.20071  -0.19942
 Alpha  occ. eigenvalues --   -0.19115  -0.18401  -0.17539
 Alpha virt. eigenvalues --   -0.09018  -0.04513  -0.03581  -0.02963  -0.02684
 Alpha virt. eigenvalues --   -0.02067  -0.01388  -0.00646   0.00140   0.00183
 Alpha virt. eigenvalues --    0.00294   0.00477   0.00542   0.01185   0.01709

 Mulliken charges:
               1
     1  C    0.057331
     2  C    0.022522
     3  O   -0.311657
     4  H    0.046274
     5  H    0.035126
     6  H    0.004993
     7  N   -0.123911
     8  C    0.040062
     9  C    0.049848
    10  O   -0.263060
    11  C    0.137853
    12  C    0.181216
    13  O   -0.486123
    14  O   -0.384473
    15  H    0.112358
    16  H    0.053206
    17  H   -0.009859
    18  H   -0.009227
    19  N   -0.150065
    20  C    0.217072
    21  C    0.042590
    22  O   -0.285816
    23  C   -0.039248
    24  C    0.074859
    25  C   -0.026587
    26  C    0.012860
    27  N    0.066130
    28  H    0.139439
    29  H    0.001214
    30  H    0.016429
    31  H   -0.006679
    32  H    0.016072
    33  H    0.018483
    34  H   -0.003737
    35  H    0.027107
    36  H    0.061728
    37  H    0.092177
    38  H    0.188640
    39  H    0.214390
    40  H    0.198954
    41  N   -0.139908
    42  C    0.095261
    43  C    0.048576
    44  O   -0.281306
    45  C    0.150850
    46  C    0.095888
    47  O   -0.450167
    48  O   -0.409419
    49  H    0.132947
    50  H    0.000459
    51  H    0.000285
    52  H    0.013944
    53  N   -0.170572
    54  C    0.242880
    55  C    0.014617
    56  O   -0.278814
    57  H    0.148694
    58  H    0.020506
    59  H    0.022321
    60  N   -0.164453
    61  C    0.148213
    62  C    0.025330
    63  O   -0.287292
    64  C    0.088901
    65  C    0.058969
    66  N   -0.033999
    67  O   -0.348962
    68  H    0.140530
    69  H    0.024523
    70  H    0.062255
    71  H    0.018943
    72  H    0.119440
    73  H    0.070519
    74  N   -0.146887
    75  C    0.265584
    76  C    0.020370
    77  O   -0.329857
    78  H    0.140564
    79  H    0.046624
    80  H    0.026343
    81  N   -0.123157
    82  C    0.107315
    83  C    0.108997
    84  O   -0.368923
    85  C    0.167541
    86  C   -0.038993
    87  C    0.012594
    88  C    0.000111
    89  C    0.011995
    90  C   -0.054329
    91  C    0.182822
    92  O   -0.209524
    93  H    0.162064
    94  H    0.009825
    95  H   -0.009192
    96  H   -0.074660
    97  H   -0.051353
    98  H   -0.029368
    99  H   -0.020286
   100  H   -0.034460
   101  H    0.170419
   102  N   -0.104621
   103  C    0.173788
   104  C    0.047757
   105  O   -0.290282
   106  C   -0.119952
   107  C    0.006963
   108  C    0.079638
   109  C    0.018201
   110  H    0.124301
   111  H    0.005380
   112  H   -0.011789
   113  H    0.033154
   114  H    0.020755
   115  H   -0.011266
   116  H    0.002074
   117  H    0.015012
   118  H    0.010946
   119  H   -0.000664
   120  H    0.006382
   121  N   -0.134424
   122  C    0.087997
   123  C    0.150304
   124  O   -0.274153
   125  C    0.220148
   126  O   -0.333905
   127  H    0.133523
   128  H    0.025855
   129  H    0.021359
   130  H   -0.002336
   131  H    0.193553
   132  N   -0.141130
   133  C    0.079053
   134  C    0.062134
   135  O   -0.257088
   136  C    0.024960
   137  H    0.122703
   138  H    0.031527
   139  H    0.049383
   140  H    0.031416
   141  H    0.007405
   142  N   -0.160663
   143  C    0.106835
   144  C    0.056466
   145  O   -0.296925
   146  C    0.049629
   147  H    0.121993
   148  H    0.024394
   149  H    0.005527
   150  H    0.014096
   151  H    0.022496
   152  N   -0.180947
   153  C    0.176740
   154  C    0.060142
   155  O   -0.296822
   156  C    0.003590
   157  C    0.105839
   158  C    0.104435
   159  O   -0.442220
   160  O   -0.359743
   161  H    0.146025
   162  H   -0.071793
   163  H    0.046151
   164  H    0.005818
   165  H   -0.036291
   166  H   -0.036030
   167  N   -0.160440
   168  C    0.127830
   169  H    0.028110
   170  H    0.039645
   171  H    0.014351
   172  H    0.134558
   173  Ca   1.288175
   174  O   -0.257288
   175  H    0.172969
   176  H    0.188655
 Sum of Mulliken charges =  -0.00000

 Dipole moment (field-independent basis, Debye):
    X=             37.1648    Y=             -6.1429    Z=            -12.0697  Tot=             39.5554
 Quadrupole moment (field-independent basis, Debye-Ang):
   XX=           -634.8289   YY=           -503.6869   ZZ=           -510.3518
   XY=            111.5288   XZ=            -58.1204   YZ=             11.8777

 ESP charges:
               1
     1  C   -0.387910
     2  C    0.723980
     3  O   -0.628226
     4  H    0.129374
     5  H    0.106752
     6  H    0.084348
     7  N   -0.714745
     8  C    0.103484
     9  C    0.642201
    10  O   -0.525426
    11  C   -0.126944
    12  C    0.459705
    13  O   -0.633993
    14  O   -0.548408
    15  H    0.364744
    16  H    0.091767
    17  H    0.063332
    18  H    0.027778
    19  N   -0.475055
    20  C   -0.031998
    21  C    0.445677
    22  O   -0.533669
    23  C   -0.075796
    24  C   -0.012271
    25  C   -0.018971
    26  C    0.120684
    27  N   -0.501202
    28  H    0.358953
    29  H    0.109171
    30  H    0.074476
    31  H    0.004928
    32  H   -0.013604
    33  H    0.053524
    34  H    0.015833
    35  H    0.046346
    36  H    0.058523
    37  H    0.061703
    38  H    0.363427
    39  H    0.372970
    40  H    0.363647
    41  N   -0.449811
    42  C    0.260390
    43  C    0.382213
    44  O   -0.532002
    45  C   -0.469392
    46  C    0.850532
    47  O   -0.761796
    48  O   -0.758318
    49  H    0.294283
    50  H    0.052077
    51  H    0.114465
    52  H    0.129159
    53  N    0.096881
    54  C   -0.370057
    55  C    0.717926
    56  O   -0.581049
    57  H    0.036798
    58  H    0.146251
    59  H    0.136266
    60  N   -0.551240
    61  C    0.242902
    62  C    0.163911
    63  O   -0.438074
    64  C   -0.247620
    65  C    0.901845
    66  N   -0.914206
    67  O   -0.719323
    68  H    0.197562
    69  H    0.086482
    70  H    0.118885
    71  H    0.017970
    72  H    0.345394
    73  H    0.450509
    74  N   -0.048970
    75  C   -0.363109
    76  C    0.729981
    77  O   -0.615050
    78  H    0.197148
    79  H    0.195639
    80  H    0.119870
    81  N   -0.558051
    82  C    0.080763
    83  C    0.549894
    84  O   -0.454699
    85  C   -0.013677
    86  C    0.011221
    87  C   -0.162391
    88  C   -0.205060
    89  C   -0.183272
    90  C   -0.184734
    91  C    0.254361
    92  O   -0.514036
    93  H    0.469157
    94  H    0.087923
    95  H    0.023387
    96  H   -0.016448
    97  H    0.100054
    98  H    0.152073
    99  H    0.166769
   100  H    0.128062
   101  H    0.388843
   102  N   -0.675590
   103  C    0.151745
   104  C    0.632550
   105  O   -0.575897
   106  C    0.205071
   107  C    0.019841
   108  C   -0.372867
   109  C   -0.350788
   110  H    0.318729
   111  H   -0.063681
   112  H    0.004257
   113  H    0.059466
   114  H    0.122089
   115  H   -0.033551
   116  H    0.106990
   117  H    0.102399
   118  H    0.084098
   119  H    0.083830
   120  H    0.079861
   121  N   -0.449383
   122  C    0.049762
   123  C    0.515415
   124  O   -0.418235
   125  C   -0.005005
   126  O   -0.520891
   127  H    0.297952
   128  H    0.074021
   129  H    0.083449
   130  H    0.055989
   131  H    0.415367
   132  N   -0.463319
   133  C    0.093149
   134  C    0.602341
   135  O   -0.549797
   136  C   -0.350707
   137  H    0.313128
   138  H    0.096189
   139  H    0.125902
   140  H    0.107874
   141  H    0.088459
   142  N   -0.550994
   143  C    0.188835
   144  C    0.358091
   145  O   -0.560131
   146  C   -0.305788
   147  H    0.328840
   148  H    0.084805
   149  H    0.052344
   150  H    0.097815
   151  H    0.098319
   152  N    0.155757
   153  C   -0.405406
   154  C    0.573620
   155  O   -0.580518
   156  C    0.353279
   157  C   -0.598415
   158  C    0.901573
   159  O   -0.787847
   160  O   -0.728185
   161  H   -0.119666
   162  H    0.092241
   163  H    0.022715
   164  H    0.051045
   165  H    0.072249
   166  H    0.189871
   167  N   -0.107106
   168  C   -0.238803
   169  H    0.096313
   170  H    0.120275
   171  H    0.076573
   172  H    0.185594
   173  Ca   1.525732
   174  O   -0.795177
   175  H    0.396668
   176  H    0.390702
 Sum of ESP charges =   0.00000

 Normal termination of Gaussian 16 at Wed Sep 18 20:07:38 2019.
