 Gaussian 16, Revision A.03,
 Gaussian 16:  ES64L-G16RevA.03 25-Dec-2016

 ----------------------------------------------------------------------
 #b3lyp/svp scf=(tight,noincore) Test #IOP(5/87=12) Density=Current Pop
 =(MK,readradii) iop(6/33=2) iop(6/42=6)
 ----------------------------------------------------------------------

 ------------------
 holoCaM_loop3_45.0
 ------------------
 Symbolic Z-matrix:
 Charge =  0 Multiplicity = 1

                         Standard orientation:
 ---------------------------------------------------------------------
 Center     Atomic      Atomic             Coordinates (Angstroms)
 Number     Number       Type             X           Y           Z
 ---------------------------------------------------------------------
      1          6           0        1.960736    2.310256    5.999760
      2          6           0        1.470809    2.051289    4.580075
      3          8           0        2.339995    1.939386    3.726323
      4          1           0        3.022680    2.553915    5.977822
      5          1           0        1.405867    3.144463    6.429492
      6          1           0        1.805939    1.418392    6.606524
      7          7           0        0.168076    1.896177    4.359332
      8          6           0       -0.381023    1.952733    3.018663
      9          6           0       -0.194670    3.310096    2.353578
     10          8           0       -0.797284    4.300722    2.767119
     11          6           0       -1.842925    1.528205    3.081259
     12          6           0       -2.583574    1.553000    1.740429
     13          8           0       -1.953431    1.318969    0.685323
     14          8           0       -3.797879    1.811364    1.700289
     15          1           0       -0.512472    2.061126    5.099498
     16          1           0        0.159443    1.265631    2.383063
     17          1           0       -2.317146    2.164666    3.835800
     18          1           0       -1.887744    0.484032    3.386372
     19          7           0        0.681018    3.399065    1.342957
     20          6           0        1.357015    4.576460    0.832987
     21          6           0        0.531470    5.250483   -0.250557
     22          8           0        0.567432    6.479250   -0.347712
     23          6           0        2.713256    4.075649    0.332689
     24          6           0        3.709225    5.226151    0.216539
     25          6           0        5.048194    4.614780   -0.158947
     26          6           0        6.191194    5.450819   -0.745623
     27          7           0        5.939245    6.082786   -2.053040
     28          1           0        0.958336    2.518916    0.938194
     29          1           0        1.497527    5.245418    1.687769
     30          1           0        2.460745    3.667199   -0.648946
     31          1           0        3.153627    3.358934    1.019852
     32          1           0        3.833025    5.800324    1.143685
     33          1           0        3.428908    5.997833   -0.494326
     34          1           0        4.778406    3.757653   -0.770460
     35          1           0        5.441232    4.169778    0.754340
     36          1           0        7.108874    4.895049   -0.925853
     37          1           0        6.461383    6.229500   -0.043302
     38          1           0        5.089767    6.619011   -2.141075
     39          1           0        6.721717    6.645290   -2.350237
     40          1           0        5.761181    5.362387   -2.740659
     41          7           0       -0.171150    4.514483   -1.099102
     42          6           0       -1.154398    5.096479   -1.992749
     43          6           0       -2.487632    5.255936   -1.276467
     44          8           0       -3.167700    6.251001   -1.510677
     45          6           0       -1.230265    4.342258   -3.309106
     46          6           0       -1.510143    2.852768   -3.193834
     47          8           0       -2.435518    2.466597   -2.448547
     48          8           0       -0.752932    1.934126   -3.603137
     49          1           0       -0.008180    3.513235   -1.198317
     50          1           0       -0.918049    6.134469   -2.242381
     51          1           0       -0.281216    4.512023   -3.814167
     52          1           0       -2.026650    4.869036   -3.828408
     53          7           0       -2.869668    4.353348   -0.371822
     54          6           0       -4.014880    4.565026    0.503268
     55          6           0       -5.201680    3.702093    0.124253
     56          8           0       -6.287100    3.727856    0.701920
     57          1           0       -2.233472    3.576253   -0.257465
     58          1           0       -4.377206    5.588590    0.464065
     59          1           0       -3.657261    4.370918    1.514520
     60          7           0       -5.002196    2.733440   -0.775089
     61          6           0       -5.996631    1.863870   -1.380934
     62          6           0       -6.505805    0.727041   -0.519504
     63          8           0       -7.358437   -0.044612   -0.953289
     64          6           0       -5.495760    1.302596   -2.709354
     65          6           0       -4.578674    0.097422   -2.644485
     66          7           0       -4.404386   -0.607930   -3.769964
     67          8           0       -3.907858   -0.237962   -1.668563
     68          1           0       -4.040391    2.592050   -1.038035
     69          1           0       -6.867756    2.471548   -1.609773
     70          1           0       -4.967632    2.049861   -3.308333
     71          1           0       -6.443029    1.102022   -3.208806
     72          1           0       -4.999608   -0.386216   -4.558096
     73          1           0       -3.996155   -1.527516   -3.702809
     74          7           0       -5.993423    0.618590    0.706018
     75          6           0       -6.512622   -0.360535    1.637655
     76          6           0       -5.628715   -1.589829    1.836006
     77          8           0       -6.069222   -2.582032    2.408009
     78          1           0       -5.213163    1.204171    0.970571
     79          1           0       -7.391988   -0.731152    1.101130
     80          1           0       -6.739563    0.083851    2.603998
     81          7           0       -4.417044   -1.505021    1.287226
     82          6           0       -3.620574   -2.705618    1.096693
     83          6           0       -2.139514   -2.371761    1.096643
     84          8           0       -1.657126   -1.505469    0.380444
     85          6           0       -3.790951   -3.428167   -0.235934
     86          6           0       -5.095827   -4.143183   -0.495456
     87          6           0       -6.119232   -3.521394   -1.213593
     88          6           0       -5.212129   -5.459093   -0.045950
     89          6           0       -7.322514   -4.222823   -1.422182
     90          6           0       -6.391520   -6.168873   -0.323529
     91          6           0       -7.484395   -5.534818   -0.933853
     92          8           0       -8.681475   -6.185873   -1.068119
     93          1           0       -4.109486   -0.656256    0.851789
     94          1           0       -3.859086   -3.387075    1.905413
     95          1           0       -2.873171   -4.003549   -0.393463
     96          1           0       -3.754880   -2.706492   -1.044256
     97          1           0       -6.047049   -2.491081   -1.526395
     98          1           0       -4.418689   -5.911691    0.524232
     99          1           0       -8.157179   -3.776934   -1.931904
    100          1           0       -6.586932   -7.093086    0.204813
    101          1           0       -8.590720   -7.139898   -0.963238
    102          7           0       -1.309967   -3.121696    1.837082
    103          6           0        0.108060   -2.817316    1.899944
    104          6           0        0.817570   -3.706551    0.890758
    105          8           0        0.682505   -4.929687    1.015239
    106          6           0        0.634670   -2.930749    3.328129
    107          6           0       -0.088763   -1.966583    4.256746
    108          6           0        2.157112   -2.834078    3.369673
    109          6           0        0.334271   -2.082094    5.723238
    110          1           0       -1.656035   -3.830448    2.455311
    111          1           0        0.219043   -1.766228    1.635751
    112          1           0        0.450745   -3.964061    3.638835
    113          1           0       -1.160883   -2.203883    4.263518
    114          1           0       -0.003279   -0.931476    3.943620
    115          1           0        2.541108   -3.146103    4.336207
    116          1           0        2.665479   -3.380305    2.573998
    117          1           0        2.525329   -1.817646    3.277031
    118          1           0        1.376123   -1.890199    5.963695
    119          1           0       -0.284919   -1.468093    6.366516
    120          1           0        0.166832   -3.148126    5.917507
    121          7           0        1.627449   -3.221091   -0.041350
    122          6           0        2.514412   -4.007016   -0.878380
    123          6           0        3.987589   -3.980191   -0.496110
    124          8           0        4.402727   -3.216996    0.372793
    125          6           0        2.385773   -3.538706   -2.323315
    126          8           0        2.895010   -2.229520   -2.480833
    127          1           0        1.559723   -2.232358   -0.230877
    128          1           0        2.224372   -5.056962   -0.850275
    129          1           0        1.336100   -3.585684   -2.592720
    130          1           0        2.948067   -4.165094   -3.016687
    131          1           0        2.146071   -1.677976   -2.225710
    132          7           0        4.792061   -4.855422   -1.101581
    133          6           0        6.177026   -4.894947   -0.692545
    134          6           0        6.966240   -3.617714   -0.940571
    135          8           0        7.551397   -3.071089    0.000382
    136          6           0        6.847558   -6.146456   -1.252466
    137          1           0        4.437938   -5.524737   -1.779530
    138          1           0        6.239298   -5.121615    0.366768
    139          1           0        6.160762   -6.981600   -1.371820
    140          1           0        7.249033   -5.908507   -2.242415
    141          1           0        7.677198   -6.358263   -0.571339
    142          7           0        6.909072   -2.996161   -2.121293
    143          6           0        7.561925   -1.743023   -2.460010
    144          6           0        7.027475   -0.579974   -1.633524
    145          8           0        7.838921    0.260860   -1.249917
    146          6           0        7.511219   -1.473677   -3.958236
    147          1           0        6.442728   -3.403689   -2.916179
    148          1           0        8.587356   -1.962315   -2.187061
    149          1           0        7.632030   -2.391308   -4.553264
    150          1           0        6.579159   -1.017436   -4.300009
    151          1           0        8.338714   -0.802079   -4.187819
    152          7           0        5.775279   -0.599438   -1.164669
    153          6           0        5.284140    0.329867   -0.165882
    154          6           0        5.933626    0.184119    1.198605
    155          8           0        6.589057    1.109035    1.668754
    156          6           0        3.770606    0.172725   -0.118747
    157          6           0        3.027166    0.714328   -1.334668
    158          6           0        1.534654    0.436674   -1.281609
    159          8           0        1.077652   -0.710116   -1.517028
    160          8           0        0.813673    1.414429   -0.979977
    161          1           0        5.155788   -1.358172   -1.403318
    162          1           0        5.448022    1.330180   -0.553460
    163          1           0        3.346920    0.676977    0.754821
    164          1           0        3.494695   -0.862592    0.089320
    165          1           0        3.515413    0.321442   -2.231248
    166          1           0        3.224900    1.783159   -1.478198
    167          7           0        5.803246   -1.022298    1.764786
    168          6           0        6.246549   -1.454496    3.080950
    169          1           0        7.316835   -1.273739    3.181273
    170          1           0        5.710621   -0.894287    3.846979
    171          1           0        6.046020   -2.519258    3.200697
    172          1           0        5.248811   -1.687174    1.263347
    173         20           0       -1.420660    0.249114   -1.615583
    174          8           0       -1.558667   -1.923036   -3.315235
    175          1           0       -1.575622   -2.869794   -3.203600
    176          1           0       -1.441647   -1.789627   -4.257683
 ---------------------------------------------------------------------

 SCF Done:  E(RB3LYP) =  -5333.63376232     A.U. after   15 cycles

 The electronic state is 1-A.
 Alpha  occ. eigenvalues -- -145.36154 -19.20251 -19.14632 -19.13072 -19.12727
 Alpha  occ. eigenvalues --  -19.12071 -19.11908 -19.11582 -19.10463 -19.10392
 Alpha  occ. eigenvalues --  -19.09290 -19.08869 -19.08267 -19.07560 -19.07011
 Alpha  occ. eigenvalues --  -19.06815 -19.05836 -19.05823 -19.05782 -19.05279
 Alpha  occ. eigenvalues --  -19.04418 -19.04359 -19.03048 -19.02781 -15.41913
 Alpha  occ. eigenvalues --  -14.57794 -14.39236 -14.37239 -14.36660 -14.36281
 Alpha  occ. eigenvalues --  -14.35917 -14.35038 -14.34700 -14.33415 -14.32391
 Alpha  occ. eigenvalues --  -14.32250 -14.32243 -14.29925 -14.28866 -14.28562
 Alpha  occ. eigenvalues --  -12.55514 -12.55489 -12.55487 -10.34139 -10.31292
 Alpha  occ. eigenvalues --  -10.30650 -10.29941 -10.29644 -10.29447 -10.28275
 Alpha  occ. eigenvalues --  -10.27900 -10.27138 -10.26333 -10.25726 -10.25526
 Alpha  occ. eigenvalues --  -10.25525 -10.25491 -10.25484 -10.25368 -10.24931
 Alpha  occ. eigenvalues --  -10.24518 -10.24427 -10.23713 -10.23394 -10.23344
 Alpha  occ. eigenvalues --  -10.23016 -10.23004 -10.22962 -10.22493 -10.22436
 Alpha  occ. eigenvalues --  -10.22320 -10.21936 -10.21903 -10.21488 -10.20977
 Alpha  occ. eigenvalues --  -10.20855 -10.20439 -10.20094 -10.20057 -10.19537
 Alpha  occ. eigenvalues --  -10.19254 -10.19127 -10.18942 -10.18081 -10.18036
 Alpha  occ. eigenvalues --  -10.17939 -10.17618 -10.17505 -10.17473 -10.17460
 Alpha  occ. eigenvalues --  -10.17397 -10.17352 -10.17274 -10.17049 -10.16966
 Alpha  occ. eigenvalues --  -10.16916 -10.16263  -1.78875  -1.13063  -1.07386
 Alpha  occ. eigenvalues --   -1.06765  -1.06447  -1.06415  -1.05819  -1.05452
 Alpha  occ. eigenvalues --   -1.04912  -1.04403  -1.03644  -1.02954  -1.02649
 Alpha  occ. eigenvalues --   -1.01955  -1.01719  -1.01609  -1.01431  -1.00855
 Alpha  occ. eigenvalues --   -0.99477  -0.99459  -0.99054  -0.98809  -0.98176
 Alpha  occ. eigenvalues --   -0.97633  -0.96041  -0.96017  -0.95760  -0.93627
 Alpha  occ. eigenvalues --   -0.93009  -0.92145  -0.91821  -0.91441  -0.91309
 Alpha  occ. eigenvalues --   -0.90780  -0.89774  -0.89667  -0.89485  -0.88764
 Alpha  occ. eigenvalues --   -0.88614  -0.87391  -0.87031  -0.86359  -0.85132
 Alpha  occ. eigenvalues --   -0.83235  -0.81850  -0.81746  -0.81384  -0.79831
 Alpha  occ. eigenvalues --   -0.78443  -0.77734  -0.77208  -0.77190  -0.76275
 Alpha  occ. eigenvalues --   -0.75924  -0.74911  -0.74159  -0.72834  -0.72467
 Alpha  occ. eigenvalues --   -0.72339  -0.72163  -0.71058  -0.70557  -0.69910
 Alpha  occ. eigenvalues --   -0.69215  -0.68921  -0.68157  -0.68114  -0.67849
 Alpha  occ. eigenvalues --   -0.66863  -0.65704  -0.65303  -0.64396  -0.64126
 Alpha  occ. eigenvalues --   -0.63920  -0.63709  -0.62454  -0.62340  -0.62100
 Alpha  occ. eigenvalues --   -0.61416  -0.60629  -0.60367  -0.60328  -0.59459
 Alpha  occ. eigenvalues --   -0.59400  -0.59390  -0.59262  -0.59091  -0.57946
 Alpha  occ. eigenvalues --   -0.57445  -0.56956  -0.56821  -0.56501  -0.56215
 Alpha  occ. eigenvalues --   -0.55877  -0.55519  -0.54982  -0.54771  -0.54497
 Alpha  occ. eigenvalues --   -0.54027  -0.53735  -0.53624  -0.53509  -0.53181
 Alpha  occ. eigenvalues --   -0.53022  -0.52674  -0.52544  -0.51854  -0.51478
 Alpha  occ. eigenvalues --   -0.51383  -0.50941  -0.50641  -0.50434  -0.50254
 Alpha  occ. eigenvalues --   -0.49320  -0.49081  -0.48942  -0.48827  -0.48739
 Alpha  occ. eigenvalues --   -0.48308  -0.48009  -0.47827  -0.47753  -0.47412
 Alpha  occ. eigenvalues --   -0.47251  -0.47124  -0.46908  -0.46686  -0.46327
 Alpha  occ. eigenvalues --   -0.46193  -0.46062  -0.45872  -0.45431  -0.45328
 Alpha  occ. eigenvalues --   -0.45123  -0.45102  -0.44915  -0.44750  -0.44671
 Alpha  occ. eigenvalues --   -0.44441  -0.44159  -0.44127  -0.44014  -0.43839
 Alpha  occ. eigenvalues --   -0.43551  -0.43367  -0.43276  -0.43064  -0.42848
 Alpha  occ. eigenvalues --   -0.42692  -0.42636  -0.42483  -0.42311  -0.42148
 Alpha  occ. eigenvalues --   -0.41998  -0.41956  -0.41763  -0.41580  -0.41294
 Alpha  occ. eigenvalues --   -0.41259  -0.40982  -0.40805  -0.40556  -0.40529
 Alpha  occ. eigenvalues --   -0.40501  -0.40398  -0.40223  -0.40087  -0.39958
 Alpha  occ. eigenvalues --   -0.39850  -0.39812  -0.39677  -0.39565  -0.39368
 Alpha  occ. eigenvalues --   -0.39260  -0.39113  -0.39000  -0.38694  -0.38662
 Alpha  occ. eigenvalues --   -0.38624  -0.38533  -0.38172  -0.38105  -0.37920
 Alpha  occ. eigenvalues --   -0.37863  -0.37831  -0.37766  -0.37667  -0.37543
 Alpha  occ. eigenvalues --   -0.37410  -0.37298  -0.37163  -0.36585  -0.36497
 Alpha  occ. eigenvalues --   -0.36385  -0.36317  -0.36100  -0.35780  -0.35619
 Alpha  occ. eigenvalues --   -0.35528  -0.35341  -0.35197  -0.35101  -0.34839
 Alpha  occ. eigenvalues --   -0.34732  -0.34604  -0.34450  -0.34215  -0.34072
 Alpha  occ. eigenvalues --   -0.33774  -0.33708  -0.33229  -0.33141  -0.32895
 Alpha  occ. eigenvalues --   -0.32836  -0.32642  -0.32482  -0.32120  -0.32050
 Alpha  occ. eigenvalues --   -0.31815  -0.31299  -0.30415  -0.30366  -0.29962
 Alpha  occ. eigenvalues --   -0.29625  -0.29039  -0.28700  -0.28612  -0.27934
 Alpha  occ. eigenvalues --   -0.27830  -0.27761  -0.27538  -0.27183  -0.26747
 Alpha  occ. eigenvalues --   -0.26476  -0.26085  -0.25924  -0.25668  -0.25223
 Alpha  occ. eigenvalues --   -0.24949  -0.24703  -0.24302  -0.24025  -0.24003
 Alpha  occ. eigenvalues --   -0.23781  -0.23695  -0.23230  -0.23052  -0.22759
 Alpha  occ. eigenvalues --   -0.22459  -0.22231  -0.22209  -0.21955  -0.21587
 Alpha  occ. eigenvalues --   -0.21372  -0.20561  -0.20498  -0.19970  -0.19816
 Alpha  occ. eigenvalues --   -0.19463  -0.18496  -0.17810
 Alpha virt. eigenvalues --   -0.09915  -0.03621  -0.03325  -0.02847  -0.01162
 Alpha virt. eigenvalues --   -0.00351  -0.00222  -0.00022   0.00344   0.00598
 Alpha virt. eigenvalues --    0.00668   0.01268   0.01384   0.01656   0.02328

 Mulliken charges:
               1
     1  C    0.050680
     2  C    0.025335
     3  O   -0.288952
     4  H    0.027679
     5  H    0.020785
     6  H    0.027494
     7  N   -0.124104
     8  C    0.122842
     9  C    0.052011
    10  O   -0.280255
    11  C    0.080991
    12  C    0.135277
    13  O   -0.461672
    14  O   -0.369979
    15  H    0.124000
    16  H   -0.024049
    17  H    0.008814
    18  H    0.002720
    19  N   -0.132944
    20  C    0.142904
    21  C    0.079773
    22  O   -0.286829
    23  C   -0.024471
    24  C    0.027785
    25  C   -0.049927
    26  C    0.059096
    27  N    0.066105
    28  H    0.146677
    29  H    0.007061
    30  H    0.021312
    31  H    0.058533
    32  H    0.017873
    33  H   -0.028734
    34  H    0.030931
    35  H    0.078295
    36  H    0.075541
    37  H    0.064324
    38  H    0.183679
    39  H    0.193575
    40  H    0.186565
    41  N   -0.160346
    42  C    0.095226
    43  C    0.043306
    44  O   -0.286473
    45  C    0.152701
    46  C    0.077183
    47  O   -0.434538
    48  O   -0.414412
    49  H    0.163636
    50  H    0.007504
    51  H   -0.015296
    52  H    0.016714
    53  N   -0.178010
    54  C    0.257447
    55  C    0.027567
    56  O   -0.302979
    57  H    0.137044
    58  H    0.027298
    59  H    0.046017
    60  N   -0.160359
    61  C    0.178689
    62  C    0.038492
    63  O   -0.309686
    64  C    0.042925
    65  C    0.086238
    66  N   -0.042967
    67  O   -0.364813
    68  H    0.137316
    69  H    0.015886
    70  H    0.053089
    71  H    0.026811
    72  H    0.122875
    73  H    0.112136
    74  N   -0.167694
    75  C    0.230815
    76  C    0.021899
    77  O   -0.292399
    78  H    0.162657
    79  H    0.038904
    80  H    0.034260
    81  N   -0.146304
    82  C    0.164102
    83  C    0.111398
    84  O   -0.347180
    85  C    0.119643
    86  C   -0.006855
    87  C    0.008602
    88  C    0.001431
    89  C   -0.017802
    90  C   -0.043418
    91  C    0.164004
    92  O   -0.209498
    93  H    0.157795
    94  H   -0.011111
    95  H   -0.014462
    96  H   -0.027078
    97  H   -0.021838
    98  H   -0.040706
    99  H   -0.025248
   100  H   -0.036783
   101  H    0.174578
   102  N   -0.122509
   103  C    0.152468
   104  C    0.054447
   105  O   -0.307272
   106  C   -0.087957
   107  C    0.013646
   108  C    0.037325
   109  C    0.027475
   110  H    0.125113
   111  H    0.004813
   112  H   -0.012482
   113  H   -0.006173
   114  H    0.020115
   115  H    0.004306
   116  H    0.024809
   117  H    0.008949
   118  H    0.014542
   119  H    0.009600
   120  H   -0.002297
   121  N   -0.114798
   122  C    0.098927
   123  C    0.126646
   124  O   -0.273679
   125  C    0.242091
   126  O   -0.355107
   127  H    0.143123
   128  H    0.014650
   129  H   -0.014952
   130  H   -0.026736
   131  H    0.179911
   132  N   -0.131409
   133  C    0.095539
   134  C    0.062655
   135  O   -0.253241
   136  C    0.035632
   137  H    0.122600
   138  H    0.015711
   139  H    0.020273
   140  H    0.000961
   141  H    0.046391
   142  N   -0.140318
   143  C    0.090782
   144  C    0.080875
   145  O   -0.280035
   146  C    0.035137
   147  H    0.097799
   148  H    0.019271
   149  H    0.011569
   150  H    0.017845
   151  H    0.035661
   152  N   -0.142295
   153  C    0.161028
   154  C    0.087624
   155  O   -0.273242
   156  C   -0.062602
   157  C    0.096987
   158  C    0.211565
   159  O   -0.458143
   160  O   -0.401583
   161  H    0.127068
   162  H   -0.051048
   163  H    0.024610
   164  H   -0.004528
   165  H   -0.009172
   166  H   -0.041501
   167  N   -0.162449
   168  C    0.145094
   169  H    0.028813
   170  H    0.019627
   171  H    0.017855
   172  H    0.129999
   173  Ca   1.262129
   174  O   -0.267981
   175  H    0.186370
   176  H    0.188408
 Sum of Mulliken charges =  -0.00000

 Dipole moment (field-independent basis, Debye):
    X=             29.2498    Y=             -2.9737    Z=            -17.0661  Tot=             33.9947
 Quadrupole moment (field-independent basis, Debye-Ang):
   XX=           -603.1886   YY=           -472.0609   ZZ=           -488.7433
   XY=            144.4900   XZ=            -44.4240   YZ=            -13.5848

 ESP charges:
               1
     1  C   -0.421663
     2  C    0.849336
     3  O   -0.649727
     4  H    0.124412
     5  H    0.089294
     6  H    0.103652
     7  N   -0.791560
     8  C    0.369558
     9  C    0.383660
    10  O   -0.524517
    11  C   -0.303098
    12  C    0.804057
    13  O   -0.834159
    14  O   -0.682854
    15  H    0.375633
    16  H    0.020649
    17  H    0.079311
    18  H    0.048663
    19  N    0.048390
    20  C   -0.616886
    21  C    0.772788
    22  O   -0.579719
    23  C    0.137205
    24  C    0.027355
    25  C   -0.141721
    26  C    0.121891
    27  N   -0.357725
    28  H    0.136330
    29  H    0.210654
    30  H   -0.011863
    31  H    0.096230
    32  H    0.033966
    33  H   -0.009532
    34  H    0.040122
    35  H    0.081622
    36  H    0.069801
    37  H    0.065764
    38  H    0.322533
    39  H    0.324817
    40  H    0.319572
    41  N   -0.617828
    42  C    0.292524
    43  C    0.440486
    44  O   -0.574952
    45  C   -0.380356
    46  C    0.751782
    47  O   -0.610220
    48  O   -0.761907
    49  H    0.398400
    50  H    0.033087
    51  H    0.082161
    52  H    0.106890
    53  N    0.089440
    54  C   -0.311825
    55  C    0.667825
    56  O   -0.610421
    57  H   -0.086092
    58  H    0.134888
    59  H    0.162343
    60  N   -0.399840
    61  C    0.091519
    62  C    0.316406
    63  O   -0.535710
    64  C   -0.172298
    65  C    0.503110
    66  N   -0.676817
    67  O   -0.631653
    68  H    0.053890
    69  H    0.105700
    70  H    0.115733
    71  H    0.070039
    72  H    0.343595
    73  H    0.315450
    74  N    0.119757
    75  C   -0.602620
    76  C    0.921038
    77  O   -0.586499
    78  H    0.220476
    79  H    0.206699
    80  H    0.165542
    81  N   -1.206545
    82  C    0.827931
    83  C    0.500497
    84  O   -0.562866
    85  C   -0.552150
    86  C    0.107473
    87  C   -0.187561
    88  C    0.027593
    89  C   -0.330409
    90  C   -0.540436
    91  C    0.546254
    92  O   -0.565782
    93  H    0.677036
    94  H   -0.074037
    95  H    0.097347
    96  H    0.153002
    97  H    0.212880
    98  H    0.092231
    99  H    0.165624
   100  H    0.196343
   101  H    0.389369
   102  N   -0.706824
   103  C    0.128803
   104  C    0.633991
   105  O   -0.579003
   106  C   -0.119939
   107  C    0.363258
   108  C   -0.269484
   109  C   -0.382201
   110  H    0.342705
   111  H    0.078217
   112  H    0.067142
   113  H   -0.043030
   114  H   -0.043112
   115  H    0.081263
   116  H    0.084975
   117  H    0.068638
   118  H    0.099790
   119  H    0.087914
   120  H    0.062722
   121  N   -0.338062
   122  C   -0.004047
   123  C    0.607753
   124  O   -0.499691
   125  C    0.125864
   126  O   -0.538626
   127  H    0.214819
   128  H    0.047807
   129  H    0.018883
   130  H    0.016708
   131  H    0.339435
   132  N   -0.585184
   133  C    0.315751
   134  C    0.374488
   135  O   -0.502506
   136  C   -0.261208
   137  H    0.320489
   138  H    0.035250
   139  H    0.084541
   140  H    0.027410
   141  H    0.091965
   142  N   -0.288176
   143  C   -0.024969
   144  C    0.418601
   145  O   -0.506885
   146  C   -0.272318
   147  H    0.257757
   148  H    0.124490
   149  H    0.077563
   150  H    0.079796
   151  H    0.100032
   152  N    0.049966
   153  C   -0.553241
   154  C    0.680594
   155  O   -0.566875
   156  C    0.374085
   157  C   -0.148436
   158  C    0.827332
   159  O   -0.734033
   160  O   -0.772286
   161  H    0.067786
   162  H    0.109058
   163  H   -0.055655
   164  H   -0.140057
   165  H   -0.012598
   166  H    0.047733
   167  N   -0.171103
   168  C   -0.294019
   169  H    0.125549
   170  H    0.098650
   171  H    0.114894
   172  H    0.217606
   173  Ca   1.604411
   174  O   -0.747308
   175  H    0.406388
   176  H    0.402228
 Sum of ESP charges =   0.00000

 Normal termination of Gaussian 16 at Wed Sep 18 19:34:08 2019.
