 Gaussian 09, Revision D.01,
 Gaussian 09:  ES64L-G09RevD.01 24-Apr-2013

 ----------------------------------------------------------------------
 #maxdisk=50GB #B3LYP/SVP Density=Current scf=(tight) #IOP(5/87=12)Pop=
 (MK,readradii) iop(6/33=2) iop(6/42=6)
 ----------------------------------------------------------------------

 ------------
 SOL molecule
 ------------
 Symbolic Z-matrix:
 Charge =  0 Multiplicity = 1

                         Standard orientation:
 ---------------------------------------------------------------------
 Center     Atomic      Atomic             Coordinates (Angstroms)
 Number     Number       Type             X           Y           Z
 ---------------------------------------------------------------------
      1          6           0        2.017316    3.156867    5.319581
      2          6           0        1.492810    2.642948    3.985609
      3          8           0        2.218249    2.313235    3.047245
      4          1           0        1.726686    2.468531    6.112811
      5          1           0        3.104654    3.227857    5.280578
      6          1           0        1.595259    4.141214    5.521764
      7          7           0        0.173280    2.720806    3.802089
      8          6           0       -0.461121    2.597448    2.502544
      9          6           0       -0.381799    3.945955    1.809554
     10          8           0       -0.958902    4.920282    2.304669
     11          6           0       -1.896203    2.094179    2.599809
     12          6           0       -2.433832    1.976694    1.182363
     13          8           0       -3.231638    2.804061    0.682394
     14          8           0       -2.081693    0.949615    0.576305
     15          1           0       -0.334156    3.223963    4.525996
     16          1           0        0.006095    1.886881    1.821807
     17          1           0       -2.491975    2.713294    3.277343
     18          1           0       -1.933550    1.105782    3.065294
     19          7           0        0.263325    3.956002    0.638139
     20          6           0        0.643555    5.086955   -0.175784
     21          6           0       -0.005378    5.357291   -1.517688
     22          8           0        0.293886    6.360129   -2.167809
     23          6           0        2.143506    5.012502   -0.430940
     24          6           0        3.118640    5.143708    0.737306
     25          6           0        2.818709    6.272565    1.711895
     26          6           0        4.155134    6.650820    2.337429
     27          7           0        4.596105    5.641345    3.314059
     28          1           0        0.775989    3.095476    0.479174
     29          1           0        0.386180    5.994463    0.384204
     30          1           0        2.458759    5.712996   -1.207680
     31          1           0        2.360150    4.078899   -0.952717
     32          1           0        4.144057    5.176152    0.366000
     33          1           0        2.999889    4.213143    1.288982
     34          1           0        1.994207    6.156007    2.415252
     35          1           0        2.608736    7.092610    1.024846
     36          1           0        3.996814    7.578411    2.875396
     37          1           0        4.899390    6.855207    1.566644
     38          1           0        4.850418    4.777025    2.861426
     39          1           0        5.434253    5.924180    3.809145
     40          1           0        3.886142    5.445253    4.001446
     41          7           0       -0.928626    4.453998   -1.862471
     42          6           0       -1.755453    4.538258   -3.052621
     43          6           0       -3.272117    4.529485   -2.934922
     44          8           0       -3.994950    4.749644   -3.905717
     45          6           0       -1.254912    3.499085   -4.055706
     46          6           0       -1.259661    2.092940   -3.461289
     47          8           0       -0.160440    1.506629   -3.333800
     48          8           0       -2.295082    1.479060   -3.133944
     49          1           0       -1.069779    3.724001   -1.174155
     50          1           0       -1.479789    5.496256   -3.504671
     51          1           0       -0.200003    3.729698   -4.181738
     52          1           0       -1.789639    3.582751   -4.995104
     53          7           0       -3.771165    4.169376   -1.752647
     54          6           0       -5.195842    4.250962   -1.506598
     55          6           0       -6.040397    2.991273   -1.359254
     56          8           0       -7.233680    3.121999   -1.094704
     57          1           0       -3.138163    4.014979   -0.989712
     58          1           0       -5.704434    4.771195   -2.316283
     59          1           0       -5.462427    4.710673   -0.560872
     60          7           0       -5.487320    1.796102   -1.578053
     61          6           0       -6.218690    0.564160   -1.395796
     62          6           0       -6.166624   -0.091602   -0.029500
     63          8           0       -6.825426   -1.101851    0.245417
     64          6           0       -5.908984   -0.444756   -2.503121
     65          6           0       -4.549775   -1.116026   -2.423461
     66          7           0       -4.391052   -2.188412   -3.214281
     67          8           0       -3.666059   -0.889910   -1.607117
     68          1           0       -4.495796    1.823670   -1.761136
     69          1           0       -7.237711    0.825819   -1.685673
     70          1           0       -6.035304   -0.010544   -3.492718
     71          1           0       -6.736319   -1.162608   -2.469867
     72          1           0       -5.215886   -2.365033   -3.779661
     73          1           0       -3.643714   -2.859466   -3.184758
     74          7           0       -5.373329    0.503760    0.866729
     75          6           0       -5.268643    0.082955    2.248056
     76          6           0       -4.581585   -1.258849    2.461863
     77          8           0       -4.802491   -1.828730    3.527807
     78          1           0       -4.937344    1.339401    0.502007
     79          1           0       -6.299009    0.061497    2.598034
     80          1           0       -4.776819    0.818954    2.892816
     81          7           0       -3.829282   -1.702777    1.458435
     82          6           0       -3.121685   -2.956553    1.581526
     83          6           0       -1.649754   -2.690226    1.306777
     84          8           0       -1.331840   -2.036340    0.317856
     85          6           0       -3.685597   -4.032995    0.656228
     86          6           0       -5.167435   -4.298765    0.750696
     87          6           0       -5.871933   -4.383520   -0.461121
     88          6           0       -5.770052   -4.470556    1.993048
     89          6           0       -7.198156   -4.809331   -0.325777
     90          6           0       -7.110651   -4.855360    2.096582
     91          6           0       -7.834901   -5.064130    0.909873
     92          8           0       -9.111597   -5.554006    0.855368
     93          1           0       -3.671329   -0.990311    0.752500
     94          1           0       -3.100723   -3.292584    2.622700
     95          1           0       -3.186777   -4.969595    0.883296
     96          1           0       -3.362807   -3.799502   -0.358113
     97          1           0       -5.420565   -4.142553   -1.417050
     98          1           0       -5.237118   -4.260993    2.905717
     99          1           0       -7.784858   -5.005874   -1.200506
    100          1           0       -7.597767   -4.939410    3.066610
    101          1           0       -9.380397   -5.765211    1.751436
    102          7           0       -0.671379   -3.187086    2.075745
    103          6           0        0.714821   -2.813216    1.890352
    104          6           0        1.323056   -3.826339    0.941336
    105          8           0        1.107078   -5.024431    1.138644
    106          6           0        1.506301   -2.737138    3.199424
    107          6           0        0.708532   -2.146211    4.359454
    108          6           0        2.832062   -2.041404    2.931262
    109          6           0        0.164012   -0.735968    4.213464
    110          1           0       -0.994138   -3.631358    2.925245
    111          1           0        0.686233   -1.761215    1.599530
    112          1           0        1.687240   -3.790126    3.398114
    113          1           0        1.382626   -2.081728    5.216214
    114          1           0       -0.054649   -2.848178    4.704849
    115          1           0        3.352586   -2.137364    3.886378
    116          1           0        3.478740   -2.511066    2.187604
    117          1           0        2.651510   -1.027821    2.562140
    118          1           0        0.948627   -0.018481    3.969556
    119          1           0       -0.576118   -0.678914    3.411184
    120          1           0       -0.188174   -0.437424    5.203887
    121          7           0        2.024925   -3.366967   -0.100901
    122          6           0        2.745365   -4.179080   -1.052132
    123          6           0        4.229169   -3.855064   -0.952941
    124          8           0        4.687400   -3.062590   -0.135317
    125          6           0        2.136956   -4.023347   -2.434335
    126          8           0        2.364504   -2.741980   -2.975927
    127          1           0        2.069438   -2.358565   -0.238898
    128          1           0        2.630306   -5.240908   -0.803369
    129          1           0        1.060447   -4.194767   -2.319691
    130          1           0        2.669477   -4.709443   -3.094179
    131          1           0        1.951693   -2.111095   -2.391059
    132          7           0        5.127146   -4.504260   -1.692658
    133          6           0        6.553504   -4.546126   -1.454435
    134          6           0        7.264768   -3.204794   -1.486593
    135          8           0        7.995324   -2.857728   -0.567717
    136          6           0        7.087380   -5.487715   -2.522839
    137          1           0        4.762390   -5.177591   -2.358073
    138          1           0        6.773873   -5.059291   -0.517953
    139          1           0        8.161046   -5.494362   -2.372182
    140          1           0        6.781012   -6.527338   -2.410487
    141          1           0        7.056596   -5.103671   -3.541692
    142          7           0        7.013312   -2.329073   -2.472940
    143          6           0        7.673719   -1.048586   -2.566836
    144          6           0        7.229794   -0.079517   -1.491086
    145          8           0        7.956844    0.731835   -0.918370
    146          6           0        7.441133   -0.486508   -3.972315
    147          1           0        6.299305   -2.518201   -3.164261
    148          1           0        8.754231   -1.160815   -2.486218
    149          1           0        7.831729    0.522176   -4.115460
    150          1           0        7.913299   -1.208060   -4.631725
    151          1           0        6.351217   -0.428235   -4.008208
    152          7           0        5.951800   -0.203878   -1.127265
    153          6           0        5.443898    0.460853    0.059776
    154          6           0        6.056294   -0.021354    1.361985
    155          8           0        6.479265    0.830700    2.143458
    156          6           0        3.934574    0.270572    0.194816
    157          6           0        3.191145    0.932608   -0.951535
    158          6           0        1.729592    0.525561   -0.822010
    159          8           0        0.910788    1.447887   -0.630501
    160          8           0        1.477717   -0.694501   -0.960602
    161          1           0        5.410149   -0.937164   -1.566818
    162          1           0        5.731112    1.499166   -0.058183
    163          1           0        3.597042    0.673439    1.146483
    164          1           0        3.727505   -0.797637    0.260021
    165          1           0        3.523012    0.581345   -1.931575
    166          1           0        3.307076    2.005906   -1.063303
    167          7           0        6.227402   -1.304302    1.683644
    168          6           0        6.969172   -1.941822    2.758607
    169          1           0        6.270537   -2.392492    3.463222
    170          1           0        7.617112   -2.715048    2.345477
    171          1           0        7.575483   -1.196681    3.274131
    172          1           0        5.744517   -1.972983    1.099616
    173         20           0       -1.096015   -0.150048   -1.498931
    174          8           0       -1.192177   -2.202349   -3.044801
    175          1           0       -1.087452   -2.273733   -3.992079
    176          1           0       -1.338899   -3.108302   -2.759980
 ---------------------------------------------------------------------

 SCF Done:  E(RB3LYP) =  -5333.64103800     A.U. after   15 cycles

 The electronic state is 1-A.
 Alpha  occ. eigenvalues -- -145.34741 -19.20235 -19.14701 -19.13886 -19.13148
 Alpha  occ. eigenvalues --  -19.12086 -19.11637 -19.11300 -19.10895 -19.09738
 Alpha  occ. eigenvalues --  -19.09674 -19.09125 -19.08315 -19.08251 -19.08159
 Alpha  occ. eigenvalues --  -19.06887 -19.06541 -19.05629 -19.05435 -19.05373
 Alpha  occ. eigenvalues --  -19.05317 -19.04582 -19.04147 -19.03444 -15.40534
 Alpha  occ. eigenvalues --  -14.56691 -14.38830 -14.37227 -14.37151 -14.36597
 Alpha  occ. eigenvalues --  -14.36485 -14.35262 -14.34902 -14.34044 -14.33736
 Alpha  occ. eigenvalues --  -14.33072 -14.32000 -14.31798 -14.31797 -14.31195
 Alpha  occ. eigenvalues --  -12.54129 -12.54114 -12.54099 -10.33493 -10.31586
 Alpha  occ. eigenvalues --  -10.30961 -10.30413 -10.29920 -10.29425 -10.28402
 Alpha  occ. eigenvalues --  -10.27572 -10.27310 -10.26960 -10.26810 -10.26319
 Alpha  occ. eigenvalues --  -10.26064 -10.25600 -10.25592 -10.25314 -10.25223
 Alpha  occ. eigenvalues --  -10.24954 -10.24667 -10.24336 -10.24177 -10.23635
 Alpha  occ. eigenvalues --  -10.23591 -10.23238 -10.23161 -10.23010 -10.22975
 Alpha  occ. eigenvalues --  -10.22801 -10.22785 -10.22532 -10.21818 -10.21395
 Alpha  occ. eigenvalues --  -10.21361 -10.20345 -10.20181 -10.20055 -10.20029
 Alpha  occ. eigenvalues --  -10.19942 -10.19818 -10.19384 -10.18853 -10.18489
 Alpha  occ. eigenvalues --  -10.18417 -10.17922 -10.17879 -10.17598 -10.17458
 Alpha  occ. eigenvalues --  -10.17231 -10.17217 -10.17094 -10.16769 -10.16755
 Alpha  occ. eigenvalues --  -10.16510 -10.14788  -1.77537  -1.11967  -1.06993
 Alpha  occ. eigenvalues --   -1.06628  -1.05481  -1.05340  -1.05010  -1.04727
 Alpha  occ. eigenvalues --   -1.04485  -1.04391  -1.04362  -1.03239  -1.03033
 Alpha  occ. eigenvalues --   -1.02679  -1.02126  -1.01790  -1.01299  -1.00770
 Alpha  occ. eigenvalues --   -1.00159  -0.99763  -0.99265  -0.99073  -0.98935
 Alpha  occ. eigenvalues --   -0.98587  -0.98120  -0.95555  -0.94132  -0.93753
 Alpha  occ. eigenvalues --   -0.93476  -0.92995  -0.92481  -0.92311  -0.91421
 Alpha  occ. eigenvalues --   -0.90735  -0.90555  -0.90411  -0.89769  -0.89474
 Alpha  occ. eigenvalues --   -0.88081  -0.87972  -0.87766  -0.87754  -0.87228
 Alpha  occ. eigenvalues --   -0.83105  -0.82227  -0.81666  -0.80939  -0.79344
 Alpha  occ. eigenvalues --   -0.79119  -0.78018  -0.77745  -0.77478  -0.77206
 Alpha  occ. eigenvalues --   -0.76571  -0.75092  -0.74511  -0.73893  -0.72808
 Alpha  occ. eigenvalues --   -0.72260  -0.71660  -0.71443  -0.71162  -0.70099
 Alpha  occ. eigenvalues --   -0.69877  -0.69211  -0.68996  -0.68614  -0.68001
 Alpha  occ. eigenvalues --   -0.66987  -0.66112  -0.65571  -0.65466  -0.64423
 Alpha  occ. eigenvalues --   -0.64221  -0.63205  -0.62964  -0.62010  -0.61243
 Alpha  occ. eigenvalues --   -0.60826  -0.60763  -0.60559  -0.60040  -0.59862
 Alpha  occ. eigenvalues --   -0.59508  -0.59024  -0.58769  -0.58427  -0.58199
 Alpha  occ. eigenvalues --   -0.57415  -0.57309  -0.57028  -0.56936  -0.56173
 Alpha  occ. eigenvalues --   -0.55922  -0.55572  -0.55216  -0.55186  -0.54875
 Alpha  occ. eigenvalues --   -0.54687  -0.54599  -0.54378  -0.53550  -0.53541
 Alpha  occ. eigenvalues --   -0.53328  -0.52973  -0.52830  -0.52626  -0.52211
 Alpha  occ. eigenvalues --   -0.51946  -0.51356  -0.50900  -0.50344  -0.50119
 Alpha  occ. eigenvalues --   -0.49996  -0.49636  -0.49475  -0.49226  -0.49111
 Alpha  occ. eigenvalues --   -0.48657  -0.48602  -0.48534  -0.48292  -0.48144
 Alpha  occ. eigenvalues --   -0.48087  -0.47937  -0.47723  -0.47271  -0.46809
 Alpha  occ. eigenvalues --   -0.46769  -0.46224  -0.46134  -0.45942  -0.45686
 Alpha  occ. eigenvalues --   -0.45569  -0.45170  -0.45086  -0.45001  -0.44867
 Alpha  occ. eigenvalues --   -0.44734  -0.44474  -0.44412  -0.44230  -0.44030
 Alpha  occ. eigenvalues --   -0.43928  -0.43650  -0.43433  -0.43373  -0.43275
 Alpha  occ. eigenvalues --   -0.42882  -0.42781  -0.42699  -0.42486  -0.42397
 Alpha  occ. eigenvalues --   -0.42250  -0.42026  -0.41855  -0.41561  -0.41494
 Alpha  occ. eigenvalues --   -0.41423  -0.41345  -0.41179  -0.41114  -0.41073
 Alpha  occ. eigenvalues --   -0.40782  -0.40757  -0.40718  -0.40518  -0.40385
 Alpha  occ. eigenvalues --   -0.40372  -0.40171  -0.40045  -0.39961  -0.39867
 Alpha  occ. eigenvalues --   -0.39687  -0.39515  -0.39407  -0.39233  -0.39126
 Alpha  occ. eigenvalues --   -0.39029  -0.38808  -0.38757  -0.38533  -0.38462
 Alpha  occ. eigenvalues --   -0.38315  -0.38017  -0.37999  -0.37713  -0.37630
 Alpha  occ. eigenvalues --   -0.37490  -0.37410  -0.37273  -0.37115  -0.36930
 Alpha  occ. eigenvalues --   -0.36660  -0.36477  -0.36417  -0.36366  -0.36230
 Alpha  occ. eigenvalues --   -0.35778  -0.35630  -0.35590  -0.35386  -0.35176
 Alpha  occ. eigenvalues --   -0.34732  -0.34610  -0.34530  -0.34370  -0.34241
 Alpha  occ. eigenvalues --   -0.34090  -0.33895  -0.33520  -0.33435  -0.33049
 Alpha  occ. eigenvalues --   -0.32860  -0.32587  -0.32452  -0.32316  -0.31994
 Alpha  occ. eigenvalues --   -0.31733  -0.31683  -0.31095  -0.30294  -0.29905
 Alpha  occ. eigenvalues --   -0.29135  -0.28969  -0.28684  -0.28659  -0.27997
 Alpha  occ. eigenvalues --   -0.27942  -0.27653  -0.27295  -0.27189  -0.27029
 Alpha  occ. eigenvalues --   -0.26546  -0.26265  -0.26048  -0.25627  -0.25556
 Alpha  occ. eigenvalues --   -0.25405  -0.25055  -0.24865  -0.24613  -0.24346
 Alpha  occ. eigenvalues --   -0.23884  -0.23810  -0.23636  -0.23611  -0.23458
 Alpha  occ. eigenvalues --   -0.22919  -0.22728  -0.22431  -0.22264  -0.21694
 Alpha  occ. eigenvalues --   -0.21439  -0.21229  -0.21221  -0.21104  -0.20481
 Alpha  occ. eigenvalues --   -0.20107  -0.19994  -0.19086
 Alpha virt. eigenvalues --   -0.08544  -0.03431  -0.02733  -0.01674  -0.01591
 Alpha virt. eigenvalues --   -0.00950  -0.00571  -0.00043   0.00022   0.00284
 Alpha virt. eigenvalues --    0.00500   0.01049   0.01839   0.01940   0.02290

 Mulliken charges:
               1
     1  C    0.026352
     2  C    0.035079
     3  O   -0.292128
     4  H    0.056472
     5  H    0.004464
     6  H    0.027185
     7  N   -0.113099
     8  C    0.056218
     9  C    0.031973
    10  O   -0.289613
    11  C    0.154014
    12  C    0.105493
    13  O   -0.385393
    14  O   -0.444959
    15  H    0.120198
    16  H    0.027273
    17  H   -0.016627
    18  H    0.000429
    19  N   -0.141571
    20  C    0.145301
    21  C    0.064868
    22  O   -0.282434
    23  C   -0.026263
    24  C   -0.001375
    25  C   -0.033545
    26  C    0.017787
    27  N    0.075133
    28  H    0.160305
    29  H    0.018348
    30  H    0.018910
    31  H    0.025545
    32  H    0.004224
    33  H    0.015913
    34  H    0.059316
    35  H    0.050714
    36  H    0.053170
    37  H    0.081900
    38  H    0.203083
    39  H    0.188140
    40  H    0.187226
    41  N   -0.154238
    42  C    0.065200
    43  C    0.090283
    44  O   -0.284749
    45  C    0.171167
    46  C    0.044989
    47  O   -0.416047
    48  O   -0.423265
    49  H    0.163710
    50  H    0.027713
    51  H   -0.012971
    52  H    0.019993
    53  N   -0.145561
    54  C    0.240895
    55  C   -0.003034
    56  O   -0.302293
    57  H    0.113864
    58  H    0.042613
    59  H    0.023453
    60  N   -0.162849
    61  C    0.171946
    62  C    0.058373
    63  O   -0.277872
    64  C   -0.007129
    65  C    0.122873
    66  N   -0.045865
    67  O   -0.333263
    68  H    0.146095
    69  H    0.025382
    70  H    0.041337
    71  H    0.045799
    72  H    0.120945
    73  H    0.094880
    74  N   -0.178923
    75  C    0.232850
    76  C    0.026805
    77  O   -0.304513
    78  H    0.149780
    79  H    0.027931
    80  H    0.029700
    81  N   -0.140197
    82  C    0.143320
    83  C    0.103397
    84  O   -0.371690
    85  C    0.179397
    86  C    0.003206
    87  C    0.033227
    88  C    0.026273
    89  C   -0.005978
    90  C   -0.069793
    91  C    0.172212
    92  O   -0.195412
    93  H    0.177764
    94  H   -0.009658
    95  H   -0.001121
    96  H   -0.056014
    97  H   -0.080658
    98  H   -0.020719
    99  H   -0.045627
   100  H   -0.039759
   101  H    0.168974
   102  N   -0.101612
   103  C    0.080933
   104  C    0.095864
   105  O   -0.292852
   106  C   -0.072667
   107  C    0.031919
   108  C    0.045017
   109  C   -0.027358
   110  H    0.125156
   111  H    0.020263
   112  H   -0.021913
   113  H   -0.017537
   114  H   -0.012199
   115  H    0.006120
   116  H    0.017754
   117  H    0.028648
   118  H    0.022032
   119  H    0.054131
   120  H    0.004281
   121  N   -0.144427
   122  C    0.049333
   123  C    0.105785
   124  O   -0.276731
   125  C    0.268718
   126  O   -0.329377
   127  H    0.159767
   128  H    0.031419
   129  H   -0.010035
   130  H   -0.015305
   131  H    0.162070
   132  N   -0.114571
   133  C    0.118422
   134  C    0.078210
   135  O   -0.240898
   136  C    0.001232
   137  H    0.115456
   138  H    0.016179
   139  H    0.021619
   140  H    0.036830
   141  H    0.016073
   142  N   -0.152699
   143  C    0.079099
   144  C    0.077743
   145  O   -0.266298
   146  C    0.042926
   147  H    0.113955
   148  H    0.016496
   149  H    0.038210
   150  H    0.026592
   151  H    0.007009
   152  N   -0.149383
   153  C    0.196641
   154  C    0.039681
   155  O   -0.313920
   156  C   -0.087773
   157  C    0.138169
   158  C    0.189700
   159  O   -0.383398
   160  O   -0.462570
   161  H    0.110980
   162  H   -0.028391
   163  H    0.041021
   164  H    0.008915
   165  H   -0.010883
   166  H   -0.036554
   167  N   -0.154448
   168  C    0.137730
   169  H    0.002695
   170  H    0.027284
   171  H    0.024816
   172  H    0.132667
   173  Ca   1.243527
   174  O   -0.276212
   175  H    0.193696
   176  H    0.192052
 Sum of Mulliken charges =   0.00000

 Dipole moment (field-independent basis, Debye):
    X=             20.6446    Y=             -1.6436    Z=              8.0392  Tot=             22.2155
 Quadrupole moment (field-independent basis, Debye-Ang):
   XX=           -633.2031   YY=           -468.7797   ZZ=           -490.2257
   XY=            100.5940   XZ=             19.3318   YZ=            139.6013

 ESP charges:
               1
     1  C   -0.437770
     2  C    0.804168
     3  O   -0.647292
     4  H    0.138894
     5  H    0.089674
     6  H    0.108912
     7  N   -0.797648
     8  C    0.178042
     9  C    0.415660
    10  O   -0.545004
    11  C    0.014275
    12  C    0.279406
    13  O   -0.499652
    14  O   -0.664866
    15  H    0.380605
    16  H    0.103912
    17  H    0.042040
    18  H    0.012037
    19  N   -0.060848
    20  C   -0.227981
    21  C    0.734793
    22  O   -0.574983
    23  C   -0.035415
    24  C    0.064835
    25  C   -0.084239
    26  C    0.017715
    27  N   -0.263860
    28  H    0.247046
    29  H    0.067879
    30  H    0.029881
    31  H    0.068472
    32  H    0.019822
    33  H   -0.044380
    34  H    0.076271
    35  H    0.066790
    36  H    0.052655
    37  H    0.093729
    38  H    0.296795
    39  H    0.305073
    40  H    0.305306
    41  N   -0.629015
    42  C    0.124412
    43  C    0.326875
    44  O   -0.507346
    45  C   -0.286126
    46  C    0.806851
    47  O   -0.759040
    48  O   -0.730605
    49  H    0.395801
    50  H    0.099497
    51  H    0.085352
    52  H    0.095767
    53  N   -0.021970
    54  C   -0.297728
    55  C    0.653913
    56  O   -0.591795
    57  H    0.104757
    58  H    0.136952
    59  H    0.111638
    60  N   -0.326803
    61  C   -0.162897
    62  C    0.302733
    63  O   -0.445514
    64  C   -0.072729
    65  C    0.639355
    66  N   -0.802729
    67  O   -0.514359
    68  H    0.203120
    69  H    0.167149
    70  H    0.071631
    71  H    0.066148
    72  H    0.338870
    73  H    0.363197
    74  N    0.023934
    75  C   -0.366198
    76  C    0.621511
    77  O   -0.578072
    78  H    0.145977
    79  H    0.139781
    80  H    0.148250
    81  N   -0.259384
    82  C    0.006225
    83  C    0.772867
    84  O   -0.664224
    85  C   -0.048679
    86  C    0.040721
    87  C   -0.193222
    88  C   -0.114616
    89  C   -0.253115
    90  C   -0.348022
    91  C    0.402058
    92  O   -0.543092
    93  H    0.269278
    94  H    0.000827
    95  H    0.027919
    96  H    0.020010
    97  H    0.136414
    98  H    0.159837
    99  H    0.147532
   100  H    0.158797
   101  H    0.394327
   102  N   -0.714617
   103  C    0.010033
   104  C    0.628322
   105  O   -0.563095
   106  C    0.210358
   107  C   -0.093676
   108  C   -0.499460
   109  C   -0.085995
   110  H    0.378345
   111  H    0.136744
   112  H   -0.009458
   113  H    0.026951
   114  H    0.024425
   115  H    0.131461
   116  H    0.121119
   117  H    0.071868
   118  H    0.105443
   119  H   -0.009269
   120  H    0.039321
   121  N   -0.341690
   122  C    0.026692
   123  C    0.460269
   124  O   -0.486329
   125  C    0.026738
   126  O   -0.539021
   127  H    0.272295
   128  H    0.060526
   129  H    0.035025
   130  H    0.075664
   131  H    0.354974
   132  N   -0.388317
   133  C    0.165744
   134  C    0.444931
   135  O   -0.526096
   136  C   -0.320155
   137  H    0.254842
   138  H    0.073607
   139  H    0.098179
   140  H    0.105925
   141  H    0.076217
   142  N   -0.327059
   143  C    0.150724
   144  C    0.375256
   145  O   -0.508914
   146  C   -0.392811
   147  H    0.228843
   148  H    0.080539
   149  H    0.145043
   150  H    0.111309
   151  H    0.084332
   152  N   -0.234343
   153  C    0.097310
   154  C    0.451152
   155  O   -0.593990
   156  C   -0.522339
   157  C    0.215904
   158  C    0.809643
   159  O   -0.824087
   160  O   -0.757775
   161  H    0.211765
   162  H    0.065696
   163  H    0.175910
   164  H    0.139562
   165  H   -0.048877
   166  H   -0.043899
   167  N   -0.068010
   168  C   -0.189519
   169  H    0.046240
   170  H    0.082539
   171  H    0.104984
   172  H    0.180122
   173  Ca   1.532829
   174  O   -0.760586
   175  H    0.416993
   176  H    0.402921
 Sum of ESP charges =   0.00000

 Normal termination of Gaussian 09 at Mon Sep 16 17:40:41 2019.
