 Gaussian 16, Revision A.03,
 Gaussian 16:  ES64L-G16RevA.03 25-Dec-2016

 ----------------------------------------------------------------------
 #b3lyp/svp scf=(tight,noincore) Test #IOP(5/87=12) Density=Current Pop
 =(MK,readradii) iop(6/33=2) iop(6/42=6)
 ----------------------------------------------------------------------

 ------------------
 holoCaM_loop3_74.0
 ------------------
 Symbolic Z-matrix:
 Charge =  0 Multiplicity = 1

                         Standard orientation:
 ---------------------------------------------------------------------
 Center     Atomic      Atomic             Coordinates (Angstroms)
 Number     Number       Type             X           Y           Z
 ---------------------------------------------------------------------
      1          6           0        2.464179    3.553369    5.430188
      2          6           0        2.020039    3.217077    4.013802
      3          8           0        2.933991    3.020495    3.203773
      4          1           0        2.710345    2.633981    5.960786
      5          1           0        3.343233    4.196851    5.392690
      6          1           0        1.657653    4.068210    5.952237
      7          7           0        0.731022    3.070888    3.713366
      8          6           0        0.199865    2.784913    2.392877
      9          6           0        0.414986    3.960172    1.455226
     10          8           0        0.072708    5.086752    1.825717
     11          6           0       -1.222056    2.236047    2.491799
     12          6           0       -1.638404    1.584720    1.186682
     13          8           0       -1.922078    0.367216    1.124926
     14          8           0       -1.777276    2.254654    0.139781
     15          1           0        0.177240    3.140301    4.555095
     16          1           0        0.820510    2.005821    1.957084
     17          1           0       -1.883951    3.039957    2.830213
     18          1           0       -1.238309    1.427006    3.232129
     19          7           0        0.771342    3.885778    0.174181
     20          6           0        1.050854    4.940580   -0.770099
     21          6           0        0.190032    5.140996   -2.002584
     22          8           0        0.576032    5.930570   -2.870615
     23          6           0        2.530359    4.944891   -1.140025
     24          6           0        3.439231    5.091159    0.082415
     25          6           0        3.224787    6.336449    0.940417
     26          6           0        4.431093    6.652528    1.830596
     27          7           0        4.573247    5.689848    2.933972
     28          1           0        0.792029    2.938278   -0.193128
     29          1           0        0.959684    5.925223   -0.314175
     30          1           0        2.741113    5.823815   -1.743660
     31          1           0        2.793141    4.143528   -1.826292
     32          1           0        4.450479    5.123094   -0.329602
     33          1           0        3.429156    4.204069    0.717056
     34          1           0        2.260944    6.227357    1.434892
     35          1           0        3.110370    7.172346    0.253041
     36          1           0        4.363149    7.628126    2.314426
     37          1           0        5.354211    6.731784    1.256425
     38          1           0        5.397264    5.844582    3.495179
     39          1           0        3.834057    5.741788    3.619757
     40          1           0        4.657907    4.737431    2.583495
     41          7           0       -0.938145    4.420419   -2.024617
     42          6           0       -2.084919    4.688548   -2.875334
     43          6           0       -3.424601    4.515609   -2.171172
     44          8           0       -4.412012    4.877516   -2.815953
     45          6           0       -2.079599    3.881385   -4.176971
     46          6           0       -2.083826    2.374505   -3.959495
     47          8           0       -1.877894    1.636303   -4.957818
     48          8           0       -2.280077    1.865921   -2.839393
     49          1           0       -1.060360    3.573996   -1.498471
     50          1           0       -1.938526    5.714817   -3.191311
     51          1           0       -1.124603    4.145254   -4.628253
     52          1           0       -2.788375    4.217813   -4.925738
     53          7           0       -3.407864    4.142136   -0.894286
     54          6           0       -4.463778    4.275532    0.092249
     55          6           0       -5.578402    3.240490    0.093185
     56          8           0       -6.607827    3.462818    0.731741
     57          1           0       -2.654499    3.606380   -0.480153
     58          1           0       -4.971613    5.222662   -0.041728
     59          1           0       -3.981096    4.277765    1.074447
     60          7           0       -5.314388    2.118217   -0.572698
     61          6           0       -6.294202    1.061230   -0.734073
     62          6           0       -6.406365    0.202216    0.510642
     63          8           0       -7.395285   -0.522390    0.647327
     64          6           0       -6.050716    0.210578   -1.979266
     65          6           0       -4.700959   -0.457184   -2.183107
     66          7           0       -4.358094   -0.907211   -3.391916
     67          8           0       -3.875573   -0.535585   -1.279342
     68          1           0       -4.395057    1.906191   -0.944284
     69          1           0       -7.332359    1.368319   -0.845543
     70          1           0       -6.022786    0.908706   -2.808264
     71          1           0       -6.927968   -0.440333   -1.900885
     72          1           0       -5.058528   -1.003101   -4.108573
     73          1           0       -3.446603   -1.270307   -3.659021
     74          7           0       -5.369565    0.174929    1.362524
     75          6           0       -5.462684   -0.588095    2.586666
     76          6           0       -4.834569   -1.960328    2.472009
     77          8           0       -5.175596   -2.902227    3.195906
     78          1           0       -4.596176    0.817800    1.296309
     79          1           0       -6.497704   -0.778580    2.888245
     80          1           0       -4.935318   -0.033027    3.370429
     81          7           0       -3.966391   -2.184007    1.483457
     82          6           0       -3.164542   -3.369326    1.274037
     83          6           0       -1.738694   -2.937320    0.983470
     84          8           0       -1.471770   -2.318399   -0.052188
     85          6           0       -3.762322   -4.212336    0.150964
     86          6           0       -5.264794   -4.385207    0.238117
     87          6           0       -6.067491   -3.569918   -0.560370
     88          6           0       -5.781141   -5.461183    0.971303
     89          6           0       -7.460921   -3.702312   -0.436180
     90          6           0       -7.176715   -5.571502    1.050680
     91          6           0       -8.043407   -4.725587    0.326130
     92          8           0       -9.391629   -4.914243    0.297707
     93          1           0       -3.706387   -1.364723    0.948506
     94          1           0       -3.134119   -3.963560    2.184894
     95          1           0       -3.329246   -5.215008    0.160739
     96          1           0       -3.535652   -3.737611   -0.797591
     97          1           0       -5.745208   -2.763601   -1.205108
     98          1           0       -5.133418   -6.158151    1.478443
     99          1           0       -8.101502   -3.031337   -0.989940
    100          1           0       -7.632980   -6.391591    1.594625
    101          1           0       -9.662944   -5.739332    0.707605
    102          7           0       -0.836726   -3.164912    1.932814
    103          6           0        0.554582   -2.788195    1.828660
    104          6           0        1.325715   -3.841536    1.049734
    105          8           0        1.341162   -4.998235    1.461083
    106          6           0        1.016210   -2.524146    3.264410
    107          6           0        0.591859   -1.104388    3.604725
    108          6           0        2.518550   -2.692938    3.410638
    109          6           0        1.118287   -0.633016    4.949820
    110          1           0       -1.144523   -3.764610    2.689797
    111          1           0        0.641689   -1.832460    1.313409
    112          1           0        0.595790   -3.138470    4.053050
    113          1           0       -0.500332   -1.166412    3.626430
    114          1           0        0.852026   -0.412470    2.806187
    115          1           0        2.673638   -3.742205    3.120660
    116          1           0        3.054787   -1.947412    2.826136
    117          1           0        2.839573   -2.523919    4.438099
    118          1           0        2.193548   -0.467986    4.868088
    119          1           0        0.678592    0.282467    5.343721
    120          1           0        0.932688   -1.416873    5.699501
    121          7           0        1.991509   -3.373820   -0.001389
    122          6           0        2.717609   -4.080654   -1.042622
    123          6           0        4.228990   -3.950257   -0.950285
    124          8           0        4.798303   -3.242943   -0.127006
    125          6           0        2.098600   -3.778746   -2.404048
    126          8           0        2.383800   -2.419896   -2.663257
    127          1           0        1.813640   -2.398229   -0.192923
    128          1           0        2.544905   -5.153568   -0.949203
    129          1           0        1.021173   -3.895992   -2.276359
    130          1           0        2.526483   -4.364604   -3.215211
    131          1           0        1.775861   -1.835315   -2.189996
    132          7           0        5.001292   -4.634409   -1.804032
    133          6           0        6.439660   -4.798284   -1.674637
    134          6           0        7.228158   -3.499242   -1.630342
    135          8           0        8.278448   -3.398855   -1.006313
    136          6           0        6.892360   -5.635454   -2.867411
    137          1           0        4.568640   -5.293554   -2.431599
    138          1           0        6.568754   -5.280082   -0.701957
    139          1           0        6.468666   -6.642379   -2.941472
    140          1           0        6.731815   -5.094727   -3.798399
    141          1           0        7.951383   -5.803327   -2.699519
    142          7           0        6.728403   -2.494410   -2.372271
    143          6           0        7.415334   -1.216015   -2.411390
    144          6           0        6.903629   -0.156776   -1.452291
    145          8           0        7.143802    1.046733   -1.573869
    146          6           0        7.450101   -0.804843   -3.873009
    147          1           0        5.815631   -2.555458   -2.782662
    148          1           0        8.453350   -1.421447   -2.127102
    149          1           0        6.475875   -0.392726   -4.125482
    150          1           0        8.283197   -0.148449   -4.102785
    151          1           0        7.731861   -1.681048   -4.463159
    152          7           0        5.952704   -0.645094   -0.654301
    153          6           0        5.283660    0.067753    0.409480
    154          6           0        5.720852   -0.472840    1.762448
    155          8           0        5.631628    0.225192    2.768872
    156          6           0        3.762694    0.025016    0.260363
    157          6           0        3.239795    0.576974   -1.060590
    158          6           0        1.718977    0.485178   -1.010726
    159          8           0        0.979508    1.417861   -1.397364
    160          8           0        1.169298   -0.628871   -0.874901
    161          1           0        5.695056   -1.606708   -0.859036
    162          1           0        5.530865    1.125856    0.539511
    163          1           0        3.365811    0.582069    1.111642
    164          1           0        3.458034   -1.007798    0.379850
    165          1           0        3.601465    0.068347   -1.942119
    166          1           0        3.599238    1.602700   -1.152717
    167          7           0        6.224193   -1.692954    1.940691
    168          6           0        6.663241   -2.352864    3.156691
    169          1           0        5.852583   -2.968157    3.548459
    170          1           0        7.524330   -2.983394    2.937668
    171          1           0        6.940123   -1.602842    3.897845
    172          1           0        6.271146   -2.229973    1.082551
    173         20           0       -1.273678   -0.031285   -1.378572
    174          8           0       -1.775699   -2.190636   -2.964976
    175          1           0       -1.902286   -3.079506   -2.660367
    176          1           0       -1.689295   -2.266964   -3.921641
 ---------------------------------------------------------------------

 SCF Done:  E(RB3LYP) =  -5333.62245525     A.U. after   19 cycles

 The electronic state is 1-A.
 Alpha  occ. eigenvalues -- -145.37185 -19.20592 -19.14722 -19.14238 -19.14042
 Alpha  occ. eigenvalues --  -19.13541 -19.12576 -19.11908 -19.11680 -19.11602
 Alpha  occ. eigenvalues --  -19.10465 -19.10057 -19.09265 -19.08943 -19.08909
 Alpha  occ. eigenvalues --  -19.08895 -19.07857 -19.07200 -19.07195 -19.06844
 Alpha  occ. eigenvalues --  -19.06840 -19.04732 -19.03290 -18.99724 -15.42891
 Alpha  occ. eigenvalues --  -14.54713 -14.39679 -14.39466 -14.37844 -14.37446
 Alpha  occ. eigenvalues --  -14.36736 -14.35941 -14.34961 -14.34364 -14.34006
 Alpha  occ. eigenvalues --  -14.33517 -14.33356 -14.33259 -14.31472 -14.30148
 Alpha  occ. eigenvalues --  -12.56516 -12.56472 -12.56454 -10.32587 -10.32516
 Alpha  occ. eigenvalues --  -10.32423 -10.30618 -10.30571 -10.30423 -10.29641
 Alpha  occ. eigenvalues --  -10.29176 -10.28637 -10.28476 -10.28095 -10.27106
 Alpha  occ. eigenvalues --  -10.26575 -10.26451 -10.26380 -10.26338 -10.26305
 Alpha  occ. eigenvalues --  -10.26015 -10.25968 -10.25524 -10.24124 -10.24034
 Alpha  occ. eigenvalues --  -10.23815 -10.23651 -10.23455 -10.23379 -10.23292
 Alpha  occ. eigenvalues --  -10.23037 -10.22349 -10.22195 -10.21998 -10.21565
 Alpha  occ. eigenvalues --  -10.21343 -10.21311 -10.21192 -10.20881 -10.20376
 Alpha  occ. eigenvalues --  -10.19954 -10.19611 -10.19263 -10.19104 -10.19087
 Alpha  occ. eigenvalues --  -10.18905 -10.18664 -10.18627 -10.18614 -10.18024
 Alpha  occ. eigenvalues --  -10.17807 -10.17637 -10.17469 -10.17458 -10.17436
 Alpha  occ. eigenvalues --  -10.16656 -10.12859  -1.79777  -1.10060  -1.08036
 Alpha  occ. eigenvalues --   -1.07810  -1.07764  -1.07127  -1.06476  -1.06260
 Alpha  occ. eigenvalues --   -1.05779  -1.05155  -1.04876  -1.04550  -1.04317
 Alpha  occ. eigenvalues --   -1.03536  -1.03255  -1.02735  -1.02717  -1.02052
 Alpha  occ. eigenvalues --   -1.01025  -1.00928  -0.99888  -0.99467  -0.99375
 Alpha  occ. eigenvalues --   -0.97286  -0.96379  -0.96307  -0.95949  -0.94926
 Alpha  occ. eigenvalues --   -0.94652  -0.94586  -0.93741  -0.93369  -0.91882
 Alpha  occ. eigenvalues --   -0.91245  -0.91033  -0.90843  -0.90436  -0.89464
 Alpha  occ. eigenvalues --   -0.89174  -0.88860  -0.87078  -0.85709  -0.85339
 Alpha  occ. eigenvalues --   -0.83322  -0.83174  -0.82206  -0.81793  -0.80165
 Alpha  occ. eigenvalues --   -0.79504  -0.78855  -0.78388  -0.77951  -0.77285
 Alpha  occ. eigenvalues --   -0.76941  -0.75026  -0.74780  -0.73608  -0.73008
 Alpha  occ. eigenvalues --   -0.72590  -0.72463  -0.71622  -0.70282  -0.69766
 Alpha  occ. eigenvalues --   -0.69652  -0.69608  -0.69421  -0.69316  -0.68248
 Alpha  occ. eigenvalues --   -0.67894  -0.66735  -0.66599  -0.66104  -0.65166
 Alpha  occ. eigenvalues --   -0.64907  -0.63354  -0.62833  -0.62019  -0.61997
 Alpha  occ. eigenvalues --   -0.61590  -0.61439  -0.60638  -0.60477  -0.60364
 Alpha  occ. eigenvalues --   -0.60236  -0.59588  -0.58954  -0.58861  -0.58769
 Alpha  occ. eigenvalues --   -0.58245  -0.58061  -0.57676  -0.57552  -0.56829
 Alpha  occ. eigenvalues --   -0.56657  -0.56561  -0.56345  -0.55900  -0.55833
 Alpha  occ. eigenvalues --   -0.55604  -0.55120  -0.54692  -0.54420  -0.53619
 Alpha  occ. eigenvalues --   -0.53563  -0.53345  -0.53085  -0.52925  -0.52798
 Alpha  occ. eigenvalues --   -0.52543  -0.52359  -0.51614  -0.51250  -0.50713
 Alpha  occ. eigenvalues --   -0.50441  -0.50269  -0.50190  -0.49908  -0.49431
 Alpha  occ. eigenvalues --   -0.49189  -0.49084  -0.49057  -0.48905  -0.48357
 Alpha  occ. eigenvalues --   -0.48319  -0.48189  -0.48011  -0.47812  -0.47246
 Alpha  occ. eigenvalues --   -0.47102  -0.46993  -0.46784  -0.46724  -0.46329
 Alpha  occ. eigenvalues --   -0.46259  -0.46206  -0.46113  -0.45852  -0.45774
 Alpha  occ. eigenvalues --   -0.45516  -0.45424  -0.44962  -0.44785  -0.44572
 Alpha  occ. eigenvalues --   -0.44444  -0.44284  -0.44090  -0.43936  -0.43804
 Alpha  occ. eigenvalues --   -0.43721  -0.43352  -0.43326  -0.43287  -0.43238
 Alpha  occ. eigenvalues --   -0.42995  -0.42742  -0.42639  -0.42604  -0.42564
 Alpha  occ. eigenvalues --   -0.42168  -0.42068  -0.42012  -0.41896  -0.41744
 Alpha  occ. eigenvalues --   -0.41609  -0.41435  -0.41303  -0.41294  -0.41100
 Alpha  occ. eigenvalues --   -0.40977  -0.40840  -0.40742  -0.40565  -0.40321
 Alpha  occ. eigenvalues --   -0.40066  -0.39982  -0.39673  -0.39487  -0.39340
 Alpha  occ. eigenvalues --   -0.39305  -0.39233  -0.39054  -0.38967  -0.38797
 Alpha  occ. eigenvalues --   -0.38713  -0.38432  -0.38393  -0.38055  -0.37994
 Alpha  occ. eigenvalues --   -0.37955  -0.37733  -0.37716  -0.37578  -0.37463
 Alpha  occ. eigenvalues --   -0.37303  -0.36999  -0.36848  -0.36733  -0.36554
 Alpha  occ. eigenvalues --   -0.36441  -0.36322  -0.35738  -0.35587  -0.35464
 Alpha  occ. eigenvalues --   -0.35315  -0.35233  -0.34989  -0.34941  -0.34594
 Alpha  occ. eigenvalues --   -0.34102  -0.33925  -0.33805  -0.33643  -0.33529
 Alpha  occ. eigenvalues --   -0.33452  -0.33327  -0.32646  -0.32618  -0.32383
 Alpha  occ. eigenvalues --   -0.31514  -0.31059  -0.30787  -0.30526  -0.30355
 Alpha  occ. eigenvalues --   -0.30076  -0.29901  -0.29440  -0.29347  -0.29304
 Alpha  occ. eigenvalues --   -0.29169  -0.28935  -0.28684  -0.28475  -0.27938
 Alpha  occ. eigenvalues --   -0.27664  -0.27511  -0.27331  -0.27133  -0.27032
 Alpha  occ. eigenvalues --   -0.26230  -0.26132  -0.25956  -0.25749  -0.25629
 Alpha  occ. eigenvalues --   -0.24801  -0.24627  -0.24405  -0.24298  -0.24104
 Alpha  occ. eigenvalues --   -0.23877  -0.23486  -0.23277  -0.22668  -0.22571
 Alpha  occ. eigenvalues --   -0.22332  -0.22132  -0.20795  -0.20522  -0.20186
 Alpha  occ. eigenvalues --   -0.19835  -0.18950  -0.15856
 Alpha virt. eigenvalues --   -0.07196  -0.02824  -0.02610  -0.02071  -0.01916
 Alpha virt. eigenvalues --   -0.00959  -0.00440  -0.00156   0.00086   0.00296
 Alpha virt. eigenvalues --    0.00353   0.00688   0.00787   0.01157   0.01190

 Mulliken charges:
               1
     1  C    0.076008
     2  C   -0.006707
     3  O   -0.324602
     4  H    0.074179
     5  H   -0.022019
     6  H    0.017735
     7  N   -0.081214
     8  C    0.102792
     9  C    0.045398
    10  O   -0.326087
    11  C    0.153320
    12  C    0.064406
    13  O   -0.407928
    14  O   -0.400936
    15  H    0.125879
    16  H    0.005764
    17  H    0.026579
    18  H    0.013666
    19  N   -0.112515
    20  C    0.117067
    21  C    0.092736
    22  O   -0.288477
    23  C    0.037367
    24  C   -0.014349
    25  C   -0.040853
    26  C    0.043538
    27  N    0.065275
    28  H    0.145871
    29  H    0.022562
    30  H    0.008252
    31  H    0.017836
    32  H   -0.007157
    33  H    0.013206
    34  H    0.062301
    35  H    0.036500
    36  H    0.045739
    37  H    0.064503
    38  H    0.172138
    39  H    0.192684
    40  H    0.201324
    41  N   -0.151639
    42  C    0.083590
    43  C    0.095657
    44  O   -0.288598
    45  C    0.081330
    46  C    0.106124
    47  O   -0.393013
    48  O   -0.472914
    49  H    0.154411
    50  H    0.003530
    51  H    0.004216
    52  H    0.019496
    53  N   -0.170896
    54  C    0.193417
    55  C    0.033745
    56  O   -0.284860
    57  H    0.143455
    58  H    0.024962
    59  H    0.017175
    60  N   -0.149495
    61  C    0.144573
    62  C    0.066280
    63  O   -0.278334
    64  C    0.037788
    65  C    0.086787
    66  N   -0.028392
    67  O   -0.351707
    68  H    0.149972
    69  H    0.023273
    70  H    0.055414
    71  H    0.059255
    72  H    0.120291
    73  H    0.089653
    74  N   -0.165094
    75  C    0.226697
    76  C    0.015606
    77  O   -0.296341
    78  H    0.135211
    79  H    0.049349
    80  H    0.018727
    81  N   -0.144956
    82  C    0.150329
    83  C    0.129593
    84  O   -0.377423
    85  C    0.153554
    86  C   -0.019462
    87  C    0.011712
    88  C    0.032159
    89  C   -0.006513
    90  C   -0.036205
    91  C    0.158376
    92  O   -0.195271
    93  H    0.158133
    94  H   -0.021229
    95  H   -0.017819
    96  H   -0.038093
    97  H   -0.055625
    98  H   -0.038619
    99  H   -0.030653
   100  H   -0.053950
   101  H    0.172691
   102  N   -0.102863
   103  C    0.174014
   104  C    0.046433
   105  O   -0.279291
   106  C   -0.151981
   107  C    0.010966
   108  C    0.051930
   109  C    0.036678
   110  H    0.136263
   111  H    0.010430
   112  H   -0.013989
   113  H    0.001263
   114  H   -0.000352
   115  H    0.036217
   116  H    0.021141
   117  H    0.005820
   118  H    0.027248
   119  H   -0.022678
   120  H    0.005837
   121  N   -0.126247
   122  C    0.084921
   123  C    0.127038
   124  O   -0.286847
   125  C    0.244138
   126  O   -0.350036
   127  H    0.143781
   128  H    0.014929
   129  H    0.002065
   130  H    0.000064
   131  H    0.179374
   132  N   -0.145432
   133  C    0.096276
   134  C    0.067726
   135  O   -0.255953
   136  C    0.034120
   137  H    0.114431
   138  H    0.023274
   139  H    0.030786
   140  H    0.023780
   141  H    0.038658
   142  N   -0.192885
   143  C    0.070826
   144  C    0.081246
   145  O   -0.274513
   146  C    0.060151
   147  H    0.125610
   148  H    0.039894
   149  H    0.024607
   150  H    0.024424
   151  H    0.002230
   152  N   -0.182923
   153  C    0.195977
   154  C    0.019430
   155  O   -0.313449
   156  C   -0.072268
   157  C    0.143561
   158  C    0.149875
   159  O   -0.382294
   160  O   -0.468821
   161  H    0.146724
   162  H    0.000013
   163  H    0.018182
   164  H    0.004332
   165  H    0.017583
   166  H   -0.005403
   167  N   -0.145739
   168  C    0.134217
   169  H    0.024191
   170  H    0.022434
   171  H    0.028492
   172  H    0.119353
   173  Ca   1.252286
   174  O   -0.260613
   175  H    0.190766
   176  H    0.197362
 Sum of Mulliken charges =  -0.00000

 Dipole moment (field-independent basis, Debye):
    X=             20.4342    Y=             -3.6137    Z=             10.3800  Tot=             23.2026
 Quadrupole moment (field-independent basis, Debye-Ang):
   XX=           -621.5325   YY=           -473.7875   ZZ=           -531.6698
   XY=            101.8415   XZ=             32.8625   YZ=            142.0759

 ESP charges:
               1
     1  C   -0.406613
     2  C    0.835255
     3  O   -0.655016
     4  H    0.149954
     5  H    0.076561
     6  H    0.089103
     7  N   -0.869176
     8  C    0.503132
     9  C    0.344558
    10  O   -0.547258
    11  C   -0.232552
    12  C    0.797604
    13  O   -0.770506
    14  O   -0.613642
    15  H    0.389248
    16  H   -0.017230
    17  H    0.087076
    18  H    0.039842
    19  N   -0.184435
    20  C   -0.071236
    21  C    0.695076
    22  O   -0.564159
    23  C   -0.094292
    24  C    0.186669
    25  C   -0.126218
    26  C    0.012098
    27  N   -0.250516
    28  H    0.089512
    29  H    0.072337
    30  H    0.031107
    31  H    0.072699
    32  H   -0.035718
    33  H   -0.050957
    34  H    0.052732
    35  H    0.076991
    36  H    0.062692
    37  H    0.090043
    38  H    0.290520
    39  H    0.312356
    40  H    0.293371
    41  N   -0.563160
    42  C   -0.037757
    43  C    0.473552
    44  O   -0.531568
    45  C   -0.171326
    46  C    0.681943
    47  O   -0.706518
    48  O   -0.644571
    49  H    0.314843
    50  H    0.114557
    51  H    0.073280
    52  H    0.080508
    53  N   -0.206866
    54  C   -0.284765
    55  C    0.581656
    56  O   -0.559046
    57  H    0.154922
    58  H    0.148216
    59  H    0.103859
    60  N   -0.407069
    61  C    0.194720
    62  C    0.226428
    63  O   -0.444791
    64  C   -0.518267
    65  C    0.723844
    66  N   -0.815358
    67  O   -0.540745
    68  H    0.270245
    69  H    0.103456
    70  H    0.174472
    71  H    0.163102
    72  H    0.364636
    73  H    0.385735
    74  N    0.051386
    75  C   -0.373850
    76  C    0.616518
    77  O   -0.563136
    78  H    0.144223
    79  H    0.172716
    80  H    0.109063
    81  N   -0.439287
    82  C    0.394358
    83  C    0.457176
    84  O   -0.474452
    85  C   -0.209525
    86  C    0.421144
    87  C   -0.553123
    88  C   -0.437042
    89  C    0.017373
    90  C   -0.048296
    91  C    0.189007
    92  O   -0.519484
    93  H    0.275268
    94  H   -0.032343
    95  H    0.016464
    96  H    0.018682
    97  H    0.221404
    98  H    0.196804
    99  H    0.104707
   100  H    0.081423
   101  H    0.398547
   102  N   -0.708345
   103  C    0.026075
   104  C    0.905858
   105  O   -0.605075
   106  C    0.025365
   107  C    0.381946
   108  C   -0.305103
   109  C   -0.419344
   110  H    0.368088
   111  H   -0.042761
   112  H    0.044347
   113  H   -0.062739
   114  H   -0.003556
   115  H    0.073912
   116  H    0.075716
   117  H    0.085152
   118  H    0.106241
   119  H    0.074916
   120  H    0.078973
   121  N   -0.693101
   122  C    0.133235
   123  C    0.538685
   124  O   -0.463030
   125  C    0.106705
   126  O   -0.591984
   127  H    0.306218
   128  H    0.018542
   129  H    0.034898
   130  H    0.058269
   131  H    0.358280
   132  N   -0.393698
   133  C    0.039727
   134  C    0.603345
   135  O   -0.551609
   136  C   -0.273101
   137  H    0.257197
   138  H    0.081666
   139  H    0.099870
   140  H    0.074909
   141  H    0.100614
   142  N   -0.502749
   143  C    0.329641
   144  C    0.295718
   145  O   -0.507877
   146  C   -0.387550
   147  H    0.286183
   148  H    0.064350
   149  H    0.109747
   150  H    0.110980
   151  H    0.095593
   152  N   -0.269248
   153  C    0.120438
   154  C    0.420740
   155  O   -0.551994
   156  C    0.290676
   157  C    0.011048
   158  C    0.448885
   159  O   -0.589497
   160  O   -0.511073
   161  H    0.101574
   162  H    0.032478
   163  H   -0.037107
   164  H   -0.173352
   165  H    0.064394
   166  H   -0.028016
   167  N   -0.252248
   168  C   -0.068373
   169  H    0.048083
   170  H    0.069266
   171  H    0.075775
   172  H    0.193925
   173  Ca   1.435162
   174  O   -0.802387
   175  H    0.409636
   176  H    0.422979
 Sum of ESP charges =   0.00000

 Normal termination of Gaussian 16 at Sat Sep 14 22:41:48 2019.
