 Gaussian 16, Revision A.03,
 Gaussian 16:  ES64L-G16RevA.03 25-Dec-2016

 ----------------------------------------------------------------------
 #b3lyp/svp scf=(tight,noincore) Test #IOP(5/87=12) Density=Current Pop
 =(MK,readradii) iop(6/33=2) iop(6/42=6)
 ----------------------------------------------------------------------

 ------------------
 holoCaM_loop3_99.0
 ------------------
 Symbolic Z-matrix:
 Charge =  0 Multiplicity = 1

                         Standard orientation:
 ---------------------------------------------------------------------
 Center     Atomic      Atomic             Coordinates (Angstroms)
 Number     Number       Type             X           Y           Z
 ---------------------------------------------------------------------
      1          6           0        1.727081    3.739815    5.023393
      2          6           0        1.113871    3.255785    3.709966
      3          8           0        1.826792    3.199597    2.718610
      4          1           0        1.119837    4.548568    5.430311
      5          1           0        1.758653    2.915846    5.735937
      6          1           0        2.739168    4.101718    4.840525
      7          7           0       -0.177031    2.942461    3.655187
      8          6           0       -0.933323    2.671992    2.443838
      9          6           0       -0.923607    3.846716    1.476094
     10          8           0       -1.435121    4.909311    1.833509
     11          6           0       -2.319906    2.189075    2.853691
     12          6           0       -3.180632    1.536261    1.777641
     13          8           0       -4.294899    1.109281    2.142603
     14          8           0       -2.711988    1.356799    0.632230
     15          1           0       -0.739900    3.228838    4.437981
     16          1           0       -0.443404    1.824493    1.978407
     17          1           0       -2.871820    3.074987    3.180265
     18          1           0       -2.339902    1.508448    3.702011
     19          7           0       -0.396760    3.726550    0.251965
     20          6           0       -0.128695    4.829593   -0.643545
     21          6           0       -1.236448    5.154421   -1.643480
     22          8           0       -1.357577    6.343573   -1.932348
     23          6           0        1.267828    4.790300   -1.236150
     24          6           0        2.428233    4.734933   -0.247113
     25          6           0        2.405871    5.906701    0.740946
     26          6           0        3.664782    5.998654    1.600008
     27          7           0        3.479168    6.971096    2.679269
     28          1           0        0.129270    2.892060    0.044074
     29          1           0       -0.237014    5.724597   -0.022791
     30          1           0        1.330693    5.702165   -1.821427
     31          1           0        1.249917    3.961963   -1.947021
     32          1           0        3.414386    4.820923   -0.724825
     33          1           0        2.412120    3.815146    0.322302
     34          1           0        1.570753    5.794340    1.424797
     35          1           0        2.341479    6.892238    0.279676
     36          1           0        4.503286    6.327993    0.975391
     37          1           0        3.812912    5.007256    2.027311
     38          1           0        3.105528    7.813921    2.260416
     39          1           0        2.933042    6.562487    3.417162
     40          1           0        4.400557    7.033839    3.094006
     41          7           0       -2.001703    4.125792   -1.998316
     42          6           0       -3.108991    4.204363   -2.936953
     43          6           0       -4.419640    4.173678   -2.182395
     44          8           0       -5.417659    4.822572   -2.484878
     45          6           0       -3.014282    3.181095   -4.069627
     46          6           0       -2.586993    1.772417   -3.682910
     47          8           0       -2.783939    1.379463   -2.522609
     48          8           0       -2.127477    1.011976   -4.565110
     49          1           0       -1.713816    3.246100   -1.593145
     50          1           0       -3.043820    5.104257   -3.540976
     51          1           0       -2.302423    3.585499   -4.789776
     52          1           0       -3.961329    3.137207   -4.600923
     53          7           0       -4.461948    3.311807   -1.151721
     54          6           0       -5.633412    3.090993   -0.333301
     55          6           0       -6.462682    1.904906   -0.798179
     56          8           0       -7.319989    2.053673   -1.665527
     57          1           0       -3.797009    2.557614   -1.116390
     58          1           0       -6.272991    3.971590   -0.451571
     59          1           0       -5.480808    2.928776    0.733328
     60          7           0       -6.118315    0.743379   -0.243413
     61          6           0       -6.599163   -0.599912   -0.517007
     62          6           0       -6.388772   -1.565101    0.648088
     63          8           0       -6.763318   -2.730970    0.567680
     64          6           0       -6.079943   -1.094884   -1.860143
     65          6           0       -4.577682   -1.349152   -1.907674
     66          7           0       -4.236820   -1.750929   -3.129553
     67          8           0       -3.868043   -1.302773   -0.911049
     68          1           0       -5.462686    0.805479    0.523135
     69          1           0       -7.685198   -0.520063   -0.605616
     70          1           0       -6.268785   -0.350639   -2.630751
     71          1           0       -6.602787   -2.039023   -2.047055
     72          1           0       -4.888253   -1.981719   -3.862541
     73          1           0       -3.238911   -1.833543   -3.204730
     74          7           0       -5.898782   -1.089470    1.791672
     75          6           0       -5.830382   -1.870235    3.013568
     76          6           0       -4.631110   -2.784181    3.222008
     77          8           0       -4.507197   -3.374494    4.291763
     78          1           0       -5.564044   -0.147095    1.897881
     79          1           0       -6.725353   -2.496493    3.052651
     80          1           0       -5.963528   -1.216877    3.870945
     81          7           0       -3.736295   -2.712642    2.230147
     82          6           0       -2.475945   -3.430575    2.331593
     83          6           0       -1.287063   -2.566624    1.936815
     84          8           0       -1.333510   -1.603970    1.161612
     85          6           0       -2.483050   -4.777690    1.627937
     86          6           0       -3.464602   -4.950986    0.492189
     87          6           0       -3.081162   -4.669977   -0.819073
     88          6           0       -4.777153   -5.361351    0.768792
     89          6           0       -3.946220   -4.942316   -1.877235
     90          6           0       -5.651147   -5.640504   -0.280783
     91          6           0       -5.242738   -5.420195   -1.614224
     92          8           0       -6.127587   -5.660230   -2.620765
     93          1           0       -3.938287   -2.175394    1.398063
     94          1           0       -2.288633   -3.621116    3.388574
     95          1           0       -2.576756   -5.474779    2.456361
     96          1           0       -1.521913   -4.957515    1.146191
     97          1           0       -2.048055   -4.352010   -0.959025
     98          1           0       -5.012062   -5.590368    1.798389
     99          1           0       -3.689144   -4.626560   -2.884811
    100          1           0       -6.670554   -5.971657   -0.125389
    101          1           0       -7.018523   -5.727222   -2.250164
    102          7           0       -0.103409   -2.947640    2.400483
    103          6           0        1.205389   -2.419341    2.085444
    104          6           0        2.048915   -3.466820    1.375128
    105          8           0        1.976411   -4.643073    1.717288
    106          6           0        1.997939   -1.888213    3.273496
    107          6           0        1.231459   -1.483805    4.532012
    108          6           0        2.886171   -0.714459    2.846594
    109          6           0        0.274988   -0.298264    4.430735
    110          1           0       -0.151343   -3.639798    3.140699
    111          1           0        1.096472   -1.631451    1.339477
    112          1           0        2.630222   -2.704273    3.621726
    113          1           0        1.954527   -1.347710    5.334290
    114          1           0        0.595258   -2.280704    4.914635
    115          1           0        3.653568   -1.032626    2.146613
    116          1           0        2.248200    0.049738    2.381411
    117          1           0        3.203969   -0.201262    3.747611
    118          1           0       -0.422282   -0.511855    3.617105
    119          1           0       -0.250388   -0.082713    5.359400
    120          1           0        0.850184    0.586780    4.171030
    121          7           0        2.881378   -2.959371    0.454639
    122          6           0        3.775777   -3.750100   -0.360038
    123          6           0        5.204260   -3.357361    0.029053
    124          8           0        5.509398   -2.225402    0.394650
    125          6           0        3.548298   -3.462518   -1.836030
    126          8           0        3.855926   -2.151618   -2.245916
    127          1           0        2.894170   -1.958025    0.307523
    128          1           0        3.731203   -4.824260   -0.175667
    129          1           0        2.555502   -3.706839   -2.212944
    130          1           0        4.212239   -4.175882   -2.328365
    131          1           0        3.252768   -2.058989   -2.998126
    132          7           0        6.163386   -4.144288   -0.470670
    133          6           0        7.572856   -3.818850   -0.387699
    134          6           0        7.931094   -2.559528   -1.158526
    135          8           0        8.926036   -1.919891   -0.815082
    136          6           0        8.395437   -5.026466   -0.827612
    137          1           0        5.809468   -5.052966   -0.744798
    138          1           0        7.845997   -3.535221    0.622424
    139          1           0        8.001896   -5.966944   -0.446134
    140          1           0        8.351773   -5.053939   -1.919738
    141          1           0        9.431338   -4.841559   -0.546154
    142          7           0        7.127019   -2.250696   -2.169559
    143          6           0        7.350860   -1.016746   -2.914046
    144          6           0        6.914293    0.204642   -2.131346
    145          8           0        7.707201    1.131975   -1.991160
    146          6           0        6.713252   -1.138240   -4.291288
    147          1           0        6.381849   -2.892512   -2.406189
    148          1           0        8.415095   -0.800729   -2.974391
    149          1           0        7.079866   -2.020211   -4.819229
    150          1           0        5.631218   -1.083725   -4.197848
    151          1           0        7.021001   -0.254854   -4.865588
    152          7           0        5.671600    0.160687   -1.642695
    153          6           0        5.159841    1.207644   -0.773855
    154          6           0        6.012506    1.445846    0.453957
    155          8           0        6.290244    2.604176    0.788671
    156          6           0        3.718790    0.896145   -0.389484
    157          6           0        2.861533    1.203903   -1.619767
    158          6           0        1.347953    1.026024   -1.484365
    159          8           0        0.697860    0.538030   -2.431698
    160          8           0        0.791330    1.053519   -0.364760
    161          1           0        5.144916   -0.691591   -1.760710
    162          1           0        5.143968    2.135387   -1.346953
    163          1           0        3.412453    1.551717    0.429163
    164          1           0        3.518522   -0.133550   -0.087291
    165          1           0        3.349350    0.684455   -2.444333
    166          1           0        3.050295    2.251096   -1.838526
    167          7           0        6.509003    0.381958    1.093123
    168          6           0        7.494863    0.370282    2.144809
    169          1           0        7.085019    0.854561    3.030770
    170          1           0        7.759554   -0.659693    2.383297
    171          1           0        8.384336    0.907939    1.815406
    172          1           0        6.270480   -0.506066    0.675965
    173         20           0       -1.490454   -0.177015   -0.990659
    174          8           0       -1.410072   -1.405000   -3.418743
    175          1           0       -1.427605   -0.596812   -3.937033
    176          1           0       -0.982258   -2.044657   -3.981871
 ---------------------------------------------------------------------

 SCF Done:  E(RB3LYP) =  -5333.63771780     A.U. after   18 cycles

 The electronic state is 1-A.
 Alpha  occ. eigenvalues -- -145.37258 -19.21098 -19.15636 -19.15584 -19.15170
 Alpha  occ. eigenvalues --  -19.13666 -19.13005 -19.12222 -19.11340 -19.11176
 Alpha  occ. eigenvalues --  -19.09295 -19.08493 -19.08333 -19.08199 -19.07657
 Alpha  occ. eigenvalues --  -19.07123 -19.06799 -19.06325 -19.06238 -19.05560
 Alpha  occ. eigenvalues --  -19.05504 -19.04021 -19.03728 -19.03703 -15.42986
 Alpha  occ. eigenvalues --  -14.56495 -14.40983 -14.39638 -14.38534 -14.37547
 Alpha  occ. eigenvalues --  -14.37157 -14.35073 -14.34185 -14.33683 -14.33387
 Alpha  occ. eigenvalues --  -14.33234 -14.32358 -14.31840 -14.30254 -14.28746
 Alpha  occ. eigenvalues --  -12.56606 -12.56568 -12.56546 -10.33576 -10.31769
 Alpha  occ. eigenvalues --  -10.31570 -10.31448 -10.30943 -10.30283 -10.29837
 Alpha  occ. eigenvalues --  -10.29302 -10.28464 -10.27537 -10.27124 -10.27061
 Alpha  occ. eigenvalues --  -10.26776 -10.26448 -10.26393 -10.25761 -10.25679
 Alpha  occ. eigenvalues --  -10.25494 -10.25050 -10.24348 -10.24210 -10.24192
 Alpha  occ. eigenvalues --  -10.23749 -10.23569 -10.23244 -10.22691 -10.22642
 Alpha  occ. eigenvalues --  -10.22635 -10.22479 -10.22477 -10.21389 -10.21274
 Alpha  occ. eigenvalues --  -10.21219 -10.20888 -10.20760 -10.20603 -10.20061
 Alpha  occ. eigenvalues --  -10.19801 -10.19623 -10.19548 -10.19521 -10.19141
 Alpha  occ. eigenvalues --  -10.18869 -10.18805 -10.18613 -10.18520 -10.18238
 Alpha  occ. eigenvalues --  -10.18220 -10.18076 -10.17926 -10.17538 -10.17194
 Alpha  occ. eigenvalues --  -10.16355 -10.15175  -1.79879  -1.12061  -1.09756
 Alpha  occ. eigenvalues --   -1.08609  -1.07599  -1.07463  -1.07286  -1.06359
 Alpha  occ. eigenvalues --   -1.05509  -1.05474  -1.04212  -1.04167  -1.03357
 Alpha  occ. eigenvalues --   -1.03049  -1.02150  -1.01545  -1.01368  -1.01003
 Alpha  occ. eigenvalues --   -1.00365  -0.99997  -0.99931  -0.99670  -0.98989
 Alpha  occ. eigenvalues --   -0.97594  -0.97149  -0.96645  -0.96285  -0.95184
 Alpha  occ. eigenvalues --   -0.94258  -0.93955  -0.92292  -0.91966  -0.91667
 Alpha  occ. eigenvalues --   -0.90965  -0.90818  -0.90169  -0.89608  -0.89532
 Alpha  occ. eigenvalues --   -0.89164  -0.88843  -0.87344  -0.85794  -0.85187
 Alpha  occ. eigenvalues --   -0.84782  -0.84196  -0.83137  -0.80801  -0.79937
 Alpha  occ. eigenvalues --   -0.79615  -0.79197  -0.78670  -0.77892  -0.76289
 Alpha  occ. eigenvalues --   -0.75800  -0.75269  -0.74765  -0.73639  -0.73622
 Alpha  occ. eigenvalues --   -0.73438  -0.72624  -0.72607  -0.72133  -0.70995
 Alpha  occ. eigenvalues --   -0.70338  -0.70281  -0.69120  -0.68682  -0.68037
 Alpha  occ. eigenvalues --   -0.66986  -0.66573  -0.65829  -0.65530  -0.65374
 Alpha  occ. eigenvalues --   -0.64879  -0.64184  -0.63341  -0.62372  -0.62062
 Alpha  occ. eigenvalues --   -0.61829  -0.61578  -0.61416  -0.61360  -0.59874
 Alpha  occ. eigenvalues --   -0.59831  -0.59655  -0.59329  -0.58947  -0.58409
 Alpha  occ. eigenvalues --   -0.58189  -0.58049  -0.57982  -0.57144  -0.57016
 Alpha  occ. eigenvalues --   -0.56745  -0.56138  -0.55710  -0.55612  -0.55384
 Alpha  occ. eigenvalues --   -0.54784  -0.54308  -0.54217  -0.54058  -0.53932
 Alpha  occ. eigenvalues --   -0.53689  -0.53262  -0.52916  -0.52755  -0.52354
 Alpha  occ. eigenvalues --   -0.52285  -0.51955  -0.51500  -0.51288  -0.50968
 Alpha  occ. eigenvalues --   -0.50464  -0.50080  -0.49626  -0.49474  -0.49044
 Alpha  occ. eigenvalues --   -0.48859  -0.48453  -0.48403  -0.48288  -0.48081
 Alpha  occ. eigenvalues --   -0.48036  -0.47925  -0.47878  -0.47750  -0.47547
 Alpha  occ. eigenvalues --   -0.47323  -0.47149  -0.46772  -0.46697  -0.46419
 Alpha  occ. eigenvalues --   -0.46038  -0.45677  -0.45312  -0.45207  -0.45160
 Alpha  occ. eigenvalues --   -0.44829  -0.44736  -0.44672  -0.44410  -0.44297
 Alpha  occ. eigenvalues --   -0.44259  -0.43795  -0.43742  -0.43644  -0.43451
 Alpha  occ. eigenvalues --   -0.43302  -0.43170  -0.43074  -0.43003  -0.42810
 Alpha  occ. eigenvalues --   -0.42710  -0.42495  -0.42438  -0.42356  -0.42270
 Alpha  occ. eigenvalues --   -0.42116  -0.42008  -0.41940  -0.41785  -0.41676
 Alpha  occ. eigenvalues --   -0.41477  -0.41389  -0.41199  -0.41096  -0.40936
 Alpha  occ. eigenvalues --   -0.40798  -0.40711  -0.40575  -0.40325  -0.40202
 Alpha  occ. eigenvalues --   -0.40154  -0.40059  -0.39929  -0.39897  -0.39776
 Alpha  occ. eigenvalues --   -0.39504  -0.39379  -0.39282  -0.39159  -0.39075
 Alpha  occ. eigenvalues --   -0.38843  -0.38806  -0.38538  -0.38320  -0.38052
 Alpha  occ. eigenvalues --   -0.37713  -0.37500  -0.37348  -0.37247  -0.37164
 Alpha  occ. eigenvalues --   -0.36920  -0.36762  -0.36508  -0.36454  -0.35995
 Alpha  occ. eigenvalues --   -0.35861  -0.35786  -0.35726  -0.35353  -0.35316
 Alpha  occ. eigenvalues --   -0.35120  -0.35029  -0.34958  -0.34813  -0.34679
 Alpha  occ. eigenvalues --   -0.34626  -0.34439  -0.34316  -0.33645  -0.33439
 Alpha  occ. eigenvalues --   -0.33417  -0.33358  -0.33056  -0.32647  -0.32434
 Alpha  occ. eigenvalues --   -0.32328  -0.32121  -0.31938  -0.31557  -0.31362
 Alpha  occ. eigenvalues --   -0.30958  -0.30642  -0.29561  -0.29242  -0.29040
 Alpha  occ. eigenvalues --   -0.28892  -0.27969  -0.27855  -0.27733  -0.27063
 Alpha  occ. eigenvalues --   -0.26807  -0.26579  -0.26520  -0.26119  -0.25865
 Alpha  occ. eigenvalues --   -0.25450  -0.25243  -0.24650  -0.24402  -0.24242
 Alpha  occ. eigenvalues --   -0.24137  -0.23986  -0.23771  -0.23426  -0.23346
 Alpha  occ. eigenvalues --   -0.23210  -0.22981  -0.22673  -0.22470  -0.22321
 Alpha  occ. eigenvalues --   -0.22028  -0.21737  -0.21514  -0.21448  -0.21046
 Alpha  occ. eigenvalues --   -0.20030  -0.19337  -0.17460
 Alpha virt. eigenvalues --   -0.08966  -0.05307  -0.03326  -0.03026  -0.02408
 Alpha virt. eigenvalues --   -0.01972  -0.00997  -0.00834  -0.00724  -0.00368
 Alpha virt. eigenvalues --   -0.00019   0.00652   0.01218   0.01553   0.01803

 Mulliken charges:
               1
     1  C    0.048526
     2  C    0.021433
     3  O   -0.292814
     4  H    0.025520
     5  H    0.046462
     6  H   -0.003701
     7  N   -0.116900
     8  C    0.151503
     9  C    0.078759
    10  O   -0.300570
    11  C    0.028169
    12  C    0.196037
    13  O   -0.401765
    14  O   -0.458166
    15  H    0.115131
    16  H    0.000473
    17  H    0.018803
    18  H    0.014571
    19  N   -0.132846
    20  C    0.038887
    21  C    0.064012
    22  O   -0.289544
    23  C    0.069355
    24  C    0.049212
    25  C   -0.075550
    26  C   -0.019662
    27  N    0.091542
    28  H    0.140806
    29  H    0.004305
    30  H    0.003674
    31  H    0.016613
    32  H    0.013203
    33  H    0.052710
    34  H    0.031912
    35  H    0.008241
    36  H    0.075399
    37  H    0.093022
    38  H    0.201332
    39  H    0.188769
    40  H    0.191813
    41  N   -0.116527
    42  C    0.131736
    43  C    0.089424
    44  O   -0.267089
    45  C    0.076917
    46  C    0.136857
    47  O   -0.465819
    48  O   -0.386079
    49  H    0.126926
    50  H    0.002930
    51  H    0.004383
    52  H    0.030336
    53  N   -0.172978
    54  C    0.240766
    55  C   -0.012928
    56  O   -0.281734
    57  H    0.137530
    58  H    0.008418
    59  H    0.001214
    60  N   -0.165111
    61  C    0.153644
    62  C    0.048318
    63  O   -0.289805
    64  C    0.023923
    65  C    0.113337
    66  N   -0.024322
    67  O   -0.359752
    68  H    0.135580
    69  H    0.018392
    70  H    0.050311
    71  H    0.032339
    72  H    0.134098
    73  H    0.081281
    74  N   -0.167812
    75  C    0.209093
    76  C    0.050432
    77  O   -0.293318
    78  H    0.131896
    79  H    0.020356
    80  H    0.027311
    81  N   -0.142433
    82  C    0.121466
    83  C    0.104273
    84  O   -0.375826
    85  C    0.160814
    86  C   -0.083543
    87  C    0.003472
    88  C    0.037027
    89  C   -0.012215
    90  C    0.011020
    91  C    0.147402
    92  O   -0.207355
    93  H    0.175806
    94  H    0.000080
    95  H    0.004567
    96  H   -0.007416
    97  H   -0.053813
    98  H   -0.018727
    99  H   -0.043454
   100  H   -0.039890
   101  H    0.182403
   102  N   -0.090587
   103  C    0.118303
   104  C    0.062744
   105  O   -0.270689
   106  C   -0.050399
   107  C    0.021357
   108  C    0.018585
   109  C   -0.014897
   110  H    0.130915
   111  H   -0.006509
   112  H   -0.009146
   113  H   -0.005309
   114  H   -0.023359
   115  H    0.017900
   116  H    0.047155
   117  H    0.000253
   118  H    0.040544
   119  H    0.011213
   120  H    0.007735
   121  N   -0.135113
   122  C    0.099041
   123  C    0.088447
   124  O   -0.275461
   125  C    0.216414
   126  O   -0.292761
   127  H    0.163848
   128  H    0.031643
   129  H    0.028492
   130  H   -0.022819
   131  H    0.206857
   132  N   -0.147651
   133  C    0.088188
   134  C    0.044702
   135  O   -0.259545
   136  C    0.061663
   137  H    0.123344
   138  H    0.026652
   139  H    0.026279
   140  H    0.005416
   141  H    0.050170
   142  N   -0.139566
   143  C    0.097114
   144  C    0.040143
   145  O   -0.247260
   146  C    0.062404
   147  H    0.112699
   148  H    0.020742
   149  H    0.022212
   150  H   -0.008320
   151  H    0.031856
   152  N   -0.169477
   153  C    0.132193
   154  C    0.057761
   155  O   -0.307178
   156  C    0.013204
   157  C    0.070821
   158  C    0.131092
   159  O   -0.388057
   160  O   -0.438692
   161  H    0.137807
   162  H   -0.006600
   163  H    0.042729
   164  H   -0.040246
   165  H   -0.024526
   166  H   -0.009119
   167  N   -0.164476
   168  C    0.152852
   169  H    0.004350
   170  H    0.011853
   171  H    0.033655
   172  H    0.137137
   173  Ca   1.266551
   174  O   -0.288190
   175  H    0.178951
   176  H    0.173158
 Sum of Mulliken charges =  -0.00000

 Dipole moment (field-independent basis, Debye):
    X=             24.6372    Y=             -1.9689    Z=             10.6584  Tot=             26.9160
 Quadrupole moment (field-independent basis, Debye-Ang):
   XX=           -671.6846   YY=           -450.5939   ZZ=           -524.8673
   XY=             74.6123   XZ=             13.0606   YZ=            132.8082

 ESP charges:
               1
     1  C   -0.509193
     2  C    0.956500
     3  O   -0.643146
     4  H    0.110171
     5  H    0.138702
     6  H    0.128105
     7  N   -0.945089
     8  C    0.270757
     9  C    0.583022
    10  O   -0.540381
    11  C   -0.217073
    12  C    0.834641
    13  O   -0.700316
    14  O   -0.847182
    15  H    0.406002
    16  H    0.097643
    17  H    0.055164
    18  H    0.066653
    19  N   -0.591802
    20  C   -0.053381
    21  C    0.771218
    22  O   -0.603066
    23  C   -0.261660
    24  C    0.090998
    25  C   -0.069912
    26  C    0.096960
    27  N   -0.469623
    28  H    0.340385
    29  H    0.069957
    30  H    0.086816
    31  H    0.067924
    32  H    0.010791
    33  H    0.090933
    34  H    0.050839
    35  H    0.044859
    36  H    0.077040
    37  H    0.040477
    38  H    0.362037
    39  H    0.343529
    40  H    0.353990
    41  N   -0.536537
    42  C    0.034312
    43  C    0.504609
    44  O   -0.545641
    45  C   -0.181621
    46  C    0.707535
    47  O   -0.634579
    48  O   -0.715826
    49  H    0.285230
    50  H    0.082759
    51  H    0.065905
    52  H    0.091137
    53  N   -0.182289
    54  C   -0.224618
    55  C    0.622574
    56  O   -0.541956
    57  H    0.188906
    58  H    0.114332
    59  H    0.080722
    60  N   -0.523904
    61  C    0.011716
    62  C    0.467736
    63  O   -0.507608
    64  C   -0.251598
    65  C    0.836538
    66  N   -0.812026
    67  O   -0.651148
    68  H    0.272643
    69  H    0.108356
    70  H    0.115201
    71  H    0.059663
    72  H    0.377797
    73  H    0.353010
    74  N   -0.300038
    75  C   -0.188912
    76  C    0.632750
    77  O   -0.572930
    78  H    0.288941
    79  H    0.101746
    80  H    0.116693
    81  N   -0.624756
    82  C    0.373306
    83  C    0.600989
    84  O   -0.606652
    85  C   -0.326098
    86  C    0.058374
    87  C   -0.152099
    88  C   -0.034456
    89  C   -0.297010
    90  C   -0.420237
    91  C    0.476699
    92  O   -0.575701
    93  H    0.384136
    94  H    0.026969
    95  H    0.096351
    96  H    0.082111
    97  H    0.115401
    98  H    0.141768
    99  H    0.148892
   100  H    0.173208
   101  H    0.415689
   102  N   -0.641096
   103  C    0.076702
   104  C    0.703901
   105  O   -0.571574
   106  C    0.335894
   107  C   -0.281917
   108  C   -0.288122
   109  C    0.018648
   110  H    0.304407
   111  H    0.070436
   112  H   -0.036071
   113  H    0.064928
   114  H    0.057725
   115  H   -0.029399
   116  H    0.085348
   117  H    0.080904
   118  H   -0.004110
   119  H    0.035361
   120  H    0.032521
   121  N   -0.716142
   122  C    0.286568
   123  C    0.450721
   124  O   -0.395601
   125  C   -0.125369
   126  O   -0.362105
   127  H    0.385073
   128  H    0.044471
   129  H    0.108945
   130  H    0.031277
   131  H    0.391324
   132  N   -0.523031
   133  C    0.214687
   134  C    0.544349
   135  O   -0.533071
   136  C   -0.311549
   137  H    0.305373
   138  H    0.046203
   139  H    0.099212
   140  H    0.072027
   141  H    0.110694
   142  N   -0.506777
   143  C    0.265369
   144  C    0.328545
   145  O   -0.488148
   146  C   -0.358022
   147  H    0.281474
   148  H    0.049136
   149  H    0.102737
   150  H    0.062241
   151  H    0.111895
   152  N    0.015222
   153  C   -0.225530
   154  C    0.563568
   155  O   -0.595577
   156  C   -0.276324
   157  C   -0.401391
   158  C    0.993066
   159  O   -0.808666
   160  O   -0.816330
   161  H    0.049148
   162  H    0.140166
   163  H    0.149639
   164  H    0.064911
   165  H    0.087453
   166  H    0.125841
   167  N   -0.113943
   168  C   -0.262514
   169  H    0.079841
   170  H    0.100887
   171  H    0.127071
   172  H    0.162684
   173  Ca   1.518198
   174  O   -0.821263
   175  H    0.452616
   176  H    0.403481
 Sum of ESP charges =   0.00000

 Normal termination of Gaussian 16 at Sat Sep 14 23:28:20 2019.
