 Gaussian 16, Revision A.03,
 Gaussian 16:  ES64L-G16RevA.03 25-Dec-2016

 ----------------------------------------------------------------------
 #b3lyp/svp scf=(tight,noincore) Test #IOP(5/87=12) Density=Current Pop
 =(MK,readradii) iop(6/33=2) iop(6/42=6)
 ----------------------------------------------------------------------

 ------------------
 holoCaM_loop3_63.0
 ------------------
 Symbolic Z-matrix:
 Charge =  0 Multiplicity = 1

                         Standard orientation:
 ---------------------------------------------------------------------
 Center     Atomic      Atomic             Coordinates (Angstroms)
 Number     Number       Type             X           Y           Z
 ---------------------------------------------------------------------
      1          6           0       -1.439934   -3.924723    5.195106
      2          6           0       -1.172684   -3.309984    3.821180
      3          8           0       -2.072682   -3.310315    2.982250
      4          1           0       -0.533700   -4.409351    5.558059
      5          1           0       -1.737013   -3.141585    5.893128
      6          1           0       -2.238233   -4.662140    5.114982
      7          7           0        0.078978   -2.911404    3.611000
      8          6           0        0.740752   -2.524272    2.382145
      9          6           0        0.959622   -3.715032    1.453119
     10          8           0        1.603662   -4.708000    1.777812
     11          6           0        2.025449   -1.771373    2.696625
     12          6           0        2.949644   -1.442004    1.534093
     13          8           0        4.110960   -1.078351    1.807771
     14          8           0        2.502615   -1.501919    0.369329
     15          1           0        0.617335   -2.870358    4.468839
     16          1           0        0.124726   -1.812049    1.822725
     17          1           0        2.551919   -2.406372    3.407755
     18          1           0        1.741726   -0.873535    3.248700
     19          7           0        0.242891   -3.784655    0.333812
     20          6           0        0.049251   -5.053050   -0.342412
     21          6           0        1.233658   -5.497711   -1.186721
     22          8           0        1.370149   -6.691929   -1.441505
     23          6           0       -1.260985   -5.009963   -1.124604
     24          6           0       -2.537903   -4.778916   -0.320428
     25          6           0       -2.734597   -5.699773    0.883164
     26          6           0       -3.996596   -5.329438    1.651611
     27          7           0       -4.627148   -6.292487    2.559929
     28          1           0       -0.279163   -2.961861    0.043173
     29          1           0       -0.105021   -5.837779    0.385187
     30          1           0       -1.418099   -5.896722   -1.733598
     31          1           0       -1.312597   -4.183403   -1.839471
     32          1           0       -3.393178   -4.858311   -1.001090
     33          1           0       -2.559918   -3.741748    0.008049
     34          1           0       -1.899778   -5.607689    1.568363
     35          1           0       -2.674574   -6.757976    0.586512
     36          1           0       -4.749249   -5.127641    0.889712
     37          1           0       -3.814977   -4.343208    2.070856
     38          1           0       -4.006342   -6.566124    3.302978
     39          1           0       -5.435827   -5.910140    3.024309
     40          1           0       -4.919363   -7.112555    2.036959
     41          7           0        2.188164   -4.635346   -1.521003
     42          6           0        3.389772   -4.954165   -2.264974
     43          6           0        4.696493   -4.549786   -1.603870
     44          8           0        5.749791   -5.012896   -2.017864
     45          6           0        3.304843   -4.284934   -3.637897
     46          6           0        3.012555   -2.796245   -3.696822
     47          8           0        3.494489   -2.030981   -4.567804
     48          8           0        2.196048   -2.289135   -2.889261
     49          1           0        1.985747   -3.649211   -1.444420
     50          1           0        3.458861   -6.021042   -2.496491
     51          1           0        2.507689   -4.742685   -4.232715
     52          1           0        4.172276   -4.445765   -4.280542
     53          7           0        4.629865   -3.841496   -0.468578
     54          6           0        5.813406   -3.540082    0.321852
     55          6           0        6.575614   -2.308612   -0.148383
     56          8           0        7.799345   -2.318344   -0.246307
     57          1           0        3.742617   -3.546928   -0.090926
     58          1           0        6.363373   -4.478082    0.421314
     59          1           0        5.512284   -3.435308    1.360287
     60          7           0        5.921033   -1.177334   -0.422485
     61          6           0        6.467066    0.059839   -0.935565
     62          6           0        6.481271    1.249996    0.010069
     63          8           0        7.004227    2.307207   -0.324178
     64          6           0        5.861188    0.307634   -2.310524
     65          6           0        4.568715    1.111515   -2.296867
     66          7           0        4.529118    2.287489   -2.920819
     67          8           0        3.556598    0.761493   -1.671404
     68          1           0        4.917331   -1.208889   -0.385247
     69          1           0        7.519917   -0.170791   -1.075968
     70          1           0        5.680217   -0.624795   -2.833234
     71          1           0        6.473676    0.831351   -3.041468
     72          1           0        5.305736    2.387421   -3.556019
     73          1           0        3.658529    2.802252   -2.973675
     74          7           0        6.041552    1.049819    1.254407
     75          6           0        5.908768    2.042195    2.310843
     76          6           0        4.537079    2.704497    2.341237
     77          8           0        4.231861    3.471522    3.250421
     78          1           0        5.568613    0.182449    1.459586
     79          1           0        6.584836    2.863177    2.071215
     80          1           0        6.134692    1.678125    3.311749
     81          7           0        3.666523    2.548716    1.342406
     82          6           0        2.420815    3.269396    1.160384
     83          6           0        1.170831    2.410101    1.167735
     84          8           0        1.197967    1.400253    0.455295
     85          6           0        2.517333    4.065911   -0.147151
     86          6           0        3.543407    5.163168    0.021959
     87          6           0        4.869734    4.978360   -0.402189
     88          6           0        3.225831    6.372986    0.650995
     89          6           0        5.847340    5.957477   -0.165301
     90          6           0        4.196728    7.342883    0.927506
     91          6           0        5.524106    7.167077    0.482917
     92          8           0        6.545431    8.008983    0.793706
     93          1           0        3.981856    1.987806    0.563660
     94          1           0        2.276508    4.042305    1.918992
     95          1           0        1.544014    4.532270   -0.241283
     96          1           0        2.614188    3.412204   -1.012244
     97          1           0        5.262652    4.039547   -0.766122
     98          1           0        2.218907    6.457408    1.032673
     99          1           0        6.892756    5.735524   -0.297373
    100          1           0        3.866658    8.252533    1.413912
    101          1           0        6.140578    8.732469    1.287224
    102          7           0        0.102943    2.899362    1.817533
    103          6           0       -1.211196    2.301913    1.662955
    104          6           0       -2.040277    3.275187    0.845544
    105          8           0       -2.136403    4.430475    1.236913
    106          6           0       -1.750081    1.968294    3.053783
    107          6           0       -1.027062    0.745271    3.628549
    108          6           0       -3.261820    1.744080    2.970267
    109          6           0       -1.210840    0.603302    5.136717
    110          1           0        0.201561    3.842397    2.159674
    111          1           0       -1.147453    1.396217    1.066758
    112          1           0       -1.627743    2.831399    3.704385
    113          1           0        0.037577    0.738864    3.421177
    114          1           0       -1.369524   -0.184043    3.162507
    115          1           0       -3.761842    2.670583    2.687301
    116          1           0       -3.588264    0.913911    2.343247
    117          1           0       -3.691656    1.486290    3.935350
    118          1           0       -2.198707    0.182864    5.341046
    119          1           0       -0.457888   -0.027864    5.601898
    120          1           0       -1.305309    1.597503    5.589309
    121          7           0       -2.517898    2.909899   -0.352555
    122          6           0       -3.505236    3.635812   -1.125609
    123          6           0       -4.937364    3.467723   -0.632400
    124          8           0       -5.263115    2.564937    0.137121
    125          6           0       -3.405725    3.260108   -2.601937
    126          8           0       -3.712219    1.902323   -2.853693
    127          1           0       -2.273127    1.997091   -0.707759
    128          1           0       -3.292033    4.708488   -1.092278
    129          1           0       -2.363198    3.427476   -2.865996
    130          1           0       -4.115690    3.839208   -3.190573
    131          1           0       -3.739615    1.955755   -3.809985
    132          7           0       -5.897431    4.163168   -1.241356
    133          6           0       -7.325866    3.897104   -1.206936
    134          6           0       -7.683261    2.443522   -1.464363
    135          8           0       -8.413646    1.906551   -0.632800
    136          6           0       -7.862592    4.787114   -2.324838
    137          1           0       -5.610357    4.921244   -1.846672
    138          1           0       -7.784329    4.157399   -0.254854
    139          1           0       -8.940680    4.591846   -2.363529
    140          1           0       -7.599305    5.798739   -2.027189
    141          1           0       -7.481197    4.559887   -3.320130
    142          7           0       -7.134131    1.725576   -2.447018
    143          6           0       -7.423901    0.337093   -2.735894
    144          6           0       -6.997313   -0.547948   -1.577436
    145          8           0       -7.660435   -1.574278   -1.388448
    146          6           0       -6.693888   -0.065374   -4.005698
    147          1           0       -6.585186    2.273799   -3.092162
    148          1           0       -8.516989    0.280023   -2.787870
    149          1           0       -5.670318   -0.283951   -3.716686
    150          1           0       -7.090605   -0.992202   -4.414730
    151          1           0       -6.773567    0.746752   -4.718581
    152          7           0       -5.870410   -0.270850   -0.908253
    153          6           0       -5.228981   -0.973607    0.180095
    154          6           0       -5.837660   -0.522079    1.507096
    155          8           0       -5.843604   -1.364264    2.402914
    156          6           0       -3.753255   -0.683349   -0.017354
    157          6           0       -3.130451   -1.246279   -1.299745
    158          6           0       -1.634568   -0.950914   -1.376498
    159          8           0       -1.164527   -0.382871   -2.388768
    160          8           0       -0.859499   -1.205743   -0.431336
    161          1           0       -5.408490    0.578290   -1.200302
    162          1           0       -5.412769   -2.040642   -0.000895
    163          1           0       -3.219950   -1.224184    0.769845
    164          1           0       -3.498164    0.377403    0.017770
    165          1           0       -3.592051   -0.756525   -2.149785
    166          1           0       -3.345433   -2.310060   -1.343926
    167          7           0       -6.458028    0.645891    1.681416
    168          6           0       -7.153191    1.067564    2.878305
    169          1           0       -7.931371    1.783596    2.613090
    170          1           0       -7.606682    0.201132    3.360321
    171          1           0       -6.446530    1.536321    3.563333
    172          1           0       -6.341435    1.411308    1.036324
    173         20           0        1.256067   -0.180244   -1.651635
    174          8           0        0.403545    2.224381   -2.720411
    175          1           0        0.310580    2.074078   -3.667072
    176          1           0        0.332376    3.179411   -2.626320
 ---------------------------------------------------------------------

 SCF Done:  E(RB3LYP) =  -5333.59479413     A.U. after   18 cycles

 The electronic state is 1-A.
 Alpha  occ. eigenvalues -- -145.36912 -19.20866 -19.19769 -19.16286 -19.15302
 Alpha  occ. eigenvalues --  -19.12947 -19.12687 -19.12227 -19.11954 -19.11278
 Alpha  occ. eigenvalues --  -19.08975 -19.08754 -19.08393 -19.07791 -19.07482
 Alpha  occ. eigenvalues --  -19.06721 -19.06661 -19.04839 -19.04260 -19.04047
 Alpha  occ. eigenvalues --  -19.03585 -19.03527 -19.02020 -18.99359 -15.42707
 Alpha  occ. eigenvalues --  -14.56138 -14.41160 -14.39547 -14.38668 -14.38476
 Alpha  occ. eigenvalues --  -14.37509 -14.36584 -14.35026 -14.33805 -14.33173
 Alpha  occ. eigenvalues --  -14.32402 -14.31843 -14.30181 -14.29797 -14.29499
 Alpha  occ. eigenvalues --  -12.56322 -12.56290 -12.56247 -10.33837 -10.31323
 Alpha  occ. eigenvalues --  -10.30931 -10.30906 -10.30808 -10.30292 -10.30026
 Alpha  occ. eigenvalues --  -10.29981 -10.29205 -10.28167 -10.27932 -10.27743
 Alpha  occ. eigenvalues --  -10.26887 -10.26232 -10.26141 -10.25328 -10.25281
 Alpha  occ. eigenvalues --  -10.24921 -10.24595 -10.24063 -10.24039 -10.23898
 Alpha  occ. eigenvalues --  -10.23634 -10.23596 -10.23461 -10.23445 -10.22375
 Alpha  occ. eigenvalues --  -10.21714 -10.21569 -10.21391 -10.21383 -10.21045
 Alpha  occ. eigenvalues --  -10.21012 -10.21007 -10.21000 -10.20750 -10.20525
 Alpha  occ. eigenvalues --  -10.20370 -10.19449 -10.19231 -10.19182 -10.19036
 Alpha  occ. eigenvalues --  -10.19012 -10.18977 -10.18685 -10.18406 -10.18185
 Alpha  occ. eigenvalues --  -10.18083 -10.17846 -10.17794 -10.17644 -10.17552
 Alpha  occ. eigenvalues --  -10.16599 -10.12922  -1.79567  -1.10999  -1.09149
 Alpha  occ. eigenvalues --   -1.08182  -1.07500  -1.07258  -1.07043  -1.06293
 Alpha  occ. eigenvalues --   -1.06227  -1.05408  -1.05053  -1.04919  -1.04679
 Alpha  occ. eigenvalues --   -1.03700  -1.03500  -1.01921  -1.00919  -1.00850
 Alpha  occ. eigenvalues --   -1.00409  -1.00204  -0.98783  -0.97901  -0.97863
 Alpha  occ. eigenvalues --   -0.97589  -0.96683  -0.96058  -0.95544  -0.95226
 Alpha  occ. eigenvalues --   -0.95215  -0.93271  -0.92855  -0.92450  -0.92234
 Alpha  occ. eigenvalues --   -0.90727  -0.89537  -0.89509  -0.89184  -0.88911
 Alpha  occ. eigenvalues --   -0.87564  -0.87053  -0.85570  -0.85027  -0.84439
 Alpha  occ. eigenvalues --   -0.84359  -0.84168  -0.82717  -0.81095  -0.80095
 Alpha  occ. eigenvalues --   -0.79139  -0.79092  -0.78792  -0.77882  -0.76715
 Alpha  occ. eigenvalues --   -0.75666  -0.73810  -0.73583  -0.73225  -0.73096
 Alpha  occ. eigenvalues --   -0.73038  -0.71877  -0.71728  -0.71074  -0.70747
 Alpha  occ. eigenvalues --   -0.70432  -0.69798  -0.69566  -0.68968  -0.68520
 Alpha  occ. eigenvalues --   -0.67432  -0.67081  -0.66136  -0.65835  -0.65098
 Alpha  occ. eigenvalues --   -0.64505  -0.63971  -0.63201  -0.62524  -0.61893
 Alpha  occ. eigenvalues --   -0.61697  -0.61402  -0.61223  -0.60579  -0.59904
 Alpha  occ. eigenvalues --   -0.59709  -0.59447  -0.59229  -0.59032  -0.58616
 Alpha  occ. eigenvalues --   -0.58292  -0.58049  -0.57800  -0.57405  -0.57333
 Alpha  occ. eigenvalues --   -0.56961  -0.56392  -0.56181  -0.56021  -0.55694
 Alpha  occ. eigenvalues --   -0.55191  -0.54701  -0.54374  -0.54194  -0.53934
 Alpha  occ. eigenvalues --   -0.53346  -0.53029  -0.52848  -0.52669  -0.52469
 Alpha  occ. eigenvalues --   -0.52130  -0.51865  -0.51348  -0.51065  -0.50675
 Alpha  occ. eigenvalues --   -0.50152  -0.49922  -0.49872  -0.49769  -0.49334
 Alpha  occ. eigenvalues --   -0.49064  -0.48947  -0.48767  -0.48453  -0.48188
 Alpha  occ. eigenvalues --   -0.47838  -0.47553  -0.47313  -0.47220  -0.47038
 Alpha  occ. eigenvalues --   -0.46814  -0.46694  -0.46570  -0.46283  -0.45948
 Alpha  occ. eigenvalues --   -0.45863  -0.45717  -0.45597  -0.45409  -0.45189
 Alpha  occ. eigenvalues --   -0.45134  -0.45002  -0.44989  -0.44727  -0.44355
 Alpha  occ. eigenvalues --   -0.43883  -0.43700  -0.43666  -0.43623  -0.43537
 Alpha  occ. eigenvalues --   -0.43456  -0.43339  -0.43182  -0.43016  -0.43014
 Alpha  occ. eigenvalues --   -0.42928  -0.42676  -0.42570  -0.42524  -0.42481
 Alpha  occ. eigenvalues --   -0.42364  -0.42153  -0.41755  -0.41357  -0.41238
 Alpha  occ. eigenvalues --   -0.41139  -0.40949  -0.40883  -0.40727  -0.40681
 Alpha  occ. eigenvalues --   -0.40636  -0.40516  -0.40410  -0.40306  -0.40032
 Alpha  occ. eigenvalues --   -0.39923  -0.39780  -0.39638  -0.39354  -0.39269
 Alpha  occ. eigenvalues --   -0.39120  -0.39002  -0.38830  -0.38414  -0.38351
 Alpha  occ. eigenvalues --   -0.38321  -0.38180  -0.38157  -0.38053  -0.37873
 Alpha  occ. eigenvalues --   -0.37522  -0.37361  -0.37310  -0.37052  -0.36831
 Alpha  occ. eigenvalues --   -0.36716  -0.36578  -0.36435  -0.36003  -0.35933
 Alpha  occ. eigenvalues --   -0.35631  -0.35519  -0.35430  -0.35270  -0.35166
 Alpha  occ. eigenvalues --   -0.34929  -0.34706  -0.34503  -0.34385  -0.34201
 Alpha  occ. eigenvalues --   -0.34152  -0.34116  -0.33808  -0.33509  -0.33497
 Alpha  occ. eigenvalues --   -0.33220  -0.32938  -0.32875  -0.32581  -0.32379
 Alpha  occ. eigenvalues --   -0.32247  -0.31706  -0.31421  -0.31261  -0.30469
 Alpha  occ. eigenvalues --   -0.30126  -0.29965  -0.29792  -0.29474  -0.28943
 Alpha  occ. eigenvalues --   -0.28720  -0.27959  -0.27796  -0.27681  -0.27544
 Alpha  occ. eigenvalues --   -0.27415  -0.26989  -0.26859  -0.26276  -0.25614
 Alpha  occ. eigenvalues --   -0.25268  -0.24647  -0.24546  -0.24426  -0.24245
 Alpha  occ. eigenvalues --   -0.24069  -0.24024  -0.22825  -0.22692  -0.22410
 Alpha  occ. eigenvalues --   -0.22204  -0.22194  -0.21943  -0.21880  -0.21545
 Alpha  occ. eigenvalues --   -0.20792  -0.20212  -0.19439  -0.19404  -0.19010
 Alpha  occ. eigenvalues --   -0.18522  -0.18188  -0.15079
 Alpha virt. eigenvalues --   -0.08347  -0.04758  -0.04109  -0.02759  -0.02396
 Alpha virt. eigenvalues --   -0.02364  -0.01577  -0.01499  -0.01153  -0.00647
 Alpha virt. eigenvalues --   -0.00178   0.00335   0.00455   0.00989   0.01463

 Mulliken charges:
               1
     1  C    0.038834
     2  C    0.047231
     3  O   -0.307763
     4  H    0.031610
     5  H    0.049630
     6  H   -0.017627
     7  N   -0.104362
     8  C    0.126410
     9  C    0.054149
    10  O   -0.291504
    11  C    0.035238
    12  C    0.168656
    13  O   -0.384154
    14  O   -0.446590
    15  H    0.121720
    16  H    0.017951
    17  H   -0.000864
    18  H    0.010128
    19  N   -0.146902
    20  C    0.152264
    21  C    0.062378
    22  O   -0.305077
    23  C    0.045679
    24  C   -0.047243
    25  C    0.002817
    26  C   -0.012584
    27  N    0.092522
    28  H    0.146117
    29  H   -0.011216
    30  H    0.007093
    31  H    0.008605
    32  H    0.007009
    33  H    0.037655
    34  H    0.043931
    35  H    0.001036
    36  H    0.039597
    37  H    0.108460
    38  H    0.184835
    39  H    0.194273
    40  H    0.190771
    41  N   -0.119576
    42  C    0.140052
    43  C    0.074617
    44  O   -0.269471
    45  C    0.055167
    46  C    0.086013
    47  O   -0.374005
    48  O   -0.483146
    49  H    0.132097
    50  H    0.019566
    51  H    0.000830
    52  H    0.005828
    53  N   -0.181028
    54  C    0.233118
    55  C    0.057366
    56  O   -0.285078
    57  H    0.140405
    58  H    0.006814
    59  H    0.018725
    60  N   -0.161745
    61  C    0.154395
    62  C    0.031942
    63  O   -0.287393
    64  C    0.135289
    65  C    0.035135
    66  N   -0.008361
    67  O   -0.392859
    68  H    0.130766
    69  H    0.037705
    70  H    0.071962
    71  H   -0.019221
    72  H    0.138329
    73  H    0.123053
    74  N   -0.156655
    75  C    0.252403
    76  C    0.004117
    77  O   -0.299156
    78  H    0.143079
    79  H    0.041275
    80  H    0.038770
    81  N   -0.122971
    82  C    0.110782
    83  C    0.160006
    84  O   -0.355046
    85  C    0.132395
    86  C   -0.002066
    87  C   -0.029178
    88  C    0.003225
    89  C   -0.029675
    90  C   -0.042502
    91  C    0.161205
    92  O   -0.180848
    93  H    0.137710
    94  H   -0.009706
    95  H   -0.040890
    96  H   -0.034432
    97  H   -0.019475
    98  H   -0.044577
    99  H   -0.006407
   100  H   -0.042674
   101  H    0.171650
   102  N   -0.120154
   103  C    0.155247
   104  C    0.051612
   105  O   -0.282683
   106  C   -0.060890
   107  C   -0.009406
   108  C    0.038162
   109  C    0.033496
   110  H    0.138818
   111  H    0.006944
   112  H   -0.012264
   113  H    0.013107
   114  H    0.032105
   115  H    0.019318
   116  H    0.025645
   117  H   -0.001685
   118  H    0.003553
   119  H    0.005433
   120  H    0.001303
   121  N   -0.126460
   122  C    0.094132
   123  C    0.120423
   124  O   -0.278214
   125  C    0.200216
   126  O   -0.273766
   127  H    0.155631
   128  H    0.027599
   129  H   -0.007424
   130  H   -0.015445
   131  H    0.171422
   132  N   -0.123247
   133  C    0.114149
   134  C    0.028059
   135  O   -0.255303
   136  C    0.002655
   137  H    0.115087
   138  H    0.028871
   139  H    0.047552
   140  H    0.034589
   141  H    0.013025
   142  N   -0.128727
   143  C    0.088831
   144  C    0.055884
   145  O   -0.287496
   146  C    0.070420
   147  H    0.087876
   148  H    0.022950
   149  H    0.019757
   150  H    0.041279
   151  H    0.004466
   152  N   -0.164303
   153  C    0.157003
   154  C    0.106007
   155  O   -0.320868
   156  C   -0.072519
   157  C    0.131999
   158  C    0.111025
   159  O   -0.433196
   160  O   -0.415127
   161  H    0.127423
   162  H   -0.012950
   163  H    0.049363
   164  H   -0.018787
   165  H   -0.011300
   166  H   -0.015436
   167  N   -0.147566
   168  C    0.130960
   169  H    0.020156
   170  H    0.024475
   171  H    0.010266
   172  H    0.132688
   173  Ca   1.292420
   174  O   -0.277491
   175  H    0.188593
   176  H    0.182353
 Sum of Mulliken charges =  -0.00000

 Dipole moment (field-independent basis, Debye):
    X=            -32.7296    Y=              8.7086    Z=              3.2568  Tot=             34.0246
 Quadrupole moment (field-independent basis, Debye-Ang):
   XX=           -655.8635   YY=           -458.6190   ZZ=           -515.4023
   XY=            101.2275   XZ=             19.7870   YZ=           -133.1091

 ESP charges:
               1
     1  C   -0.469595
     2  C    0.806049
     3  O   -0.613886
     4  H    0.113069
     5  H    0.126341
     6  H    0.113430
     7  N   -0.725337
     8  C    0.423968
     9  C    0.386168
    10  O   -0.566936
    11  C   -0.294509
    12  C    0.835179
    13  O   -0.724757
    14  O   -0.722720
    15  H    0.353243
    16  H   -0.078435
    17  H    0.053931
    18  H    0.054609
    19  N    0.042757
    20  C   -0.232811
    21  C    0.584135
    22  O   -0.585130
    23  C    0.003044
    24  C    0.030978
    25  C   -0.233502
    26  C    0.251437
    27  N   -0.521612
    28  H    0.105788
    29  H    0.113485
    30  H    0.039538
    31  H    0.016883
    32  H    0.014223
    33  H    0.021962
    34  H    0.087664
    35  H    0.062955
    36  H    0.028837
    37  H    0.036741
    38  H    0.353149
    39  H    0.370926
    40  H    0.356076
    41  N   -0.314256
    42  C   -0.061435
    43  C    0.454324
    44  O   -0.522213
    45  C   -0.164249
    46  C    0.770732
    47  O   -0.706593
    48  O   -0.818102
    49  H    0.193413
    50  H    0.131193
    51  H    0.066541
    52  H    0.044132
    53  N   -0.113857
    54  C   -0.293499
    55  C    0.612050
    56  O   -0.574750
    57  H    0.143414
    58  H    0.131195
    59  H    0.138868
    60  N   -0.217805
    61  C   -0.271423
    62  C    0.527797
    63  O   -0.541875
    64  C    0.099319
    65  C    0.458477
    66  N   -0.683368
    67  O   -0.568621
    68  H    0.122226
    69  H    0.178586
    70  H    0.095446
    71  H   -0.000772
    72  H    0.364396
    73  H    0.345302
    74  N   -0.269208
    75  C   -0.185067
    76  C    0.712559
    77  O   -0.620517
    78  H    0.274475
    79  H    0.127968
    80  H    0.109283
    81  N   -0.653272
    82  C    0.609775
    83  C    0.367857
    84  O   -0.517206
    85  C   -0.007552
    86  C   -0.030049
    87  C   -0.108675
    88  C   -0.205709
    89  C   -0.230065
    90  C   -0.189129
    91  C    0.287125
    92  O   -0.501137
    93  H    0.273780
    94  H   -0.021569
    95  H   -0.020770
    96  H   -0.014360
    97  H    0.099572
    98  H    0.130561
    99  H    0.177587
   100  H    0.108833
   101  H    0.391433
   102  N   -0.761070
   103  C    0.336014
   104  C    0.591389
   105  O   -0.566965
   106  C   -0.079905
   107  C    0.158381
   108  C   -0.193693
   109  C   -0.424367
   110  H    0.359038
   111  H    0.030065
   112  H    0.065891
   113  H    0.068100
   114  H    0.022909
   115  H    0.052074
   116  H    0.039884
   117  H    0.079056
   118  H    0.095587
   119  H    0.100581
   120  H    0.096411
   121  N   -0.396822
   122  C    0.159230
   123  C    0.378520
   124  O   -0.307156
   125  C   -0.048912
   126  O   -0.399686
   127  H    0.279397
   128  H    0.055840
   129  H    0.048652
   130  H    0.046909
   131  H    0.383280
   132  N   -0.461191
   133  C    0.252228
   134  C    0.501717
   135  O   -0.533604
   136  C   -0.414026
   137  H    0.283399
   138  H    0.062499
   139  H    0.122028
   140  H    0.120877
   141  H    0.103209
   142  N   -0.435908
   143  C    0.241910
   144  C    0.318422
   145  O   -0.534949
   146  C   -0.418851
   147  H    0.277508
   148  H    0.065542
   149  H    0.135370
   150  H    0.142274
   151  H    0.099686
   152  N    0.362123
   153  C   -0.568951
   154  C    0.697696
   155  O   -0.603925
   156  C    0.655863
   157  C   -0.407327
   158  C    0.907368
   159  O   -0.773958
   160  O   -0.782606
   161  H   -0.378804
   162  H    0.143263
   163  H    0.012554
   164  H   -0.425937
   165  H    0.069796
   166  H    0.091159
   167  N   -0.253281
   168  C   -0.158843
   169  H    0.087503
   170  H    0.093945
   171  H    0.050978
   172  H    0.208506
   173  Ca   1.599439
   174  O   -0.758933
   175  H    0.409007
   176  H    0.388144
 Sum of ESP charges =  -0.00000

 Normal termination of Gaussian 16 at Sat Sep 14 22:38:44 2019.
