 Gaussian 16, Revision A.03,
 Gaussian 16:  ES64L-G16RevA.03 25-Dec-2016

 ----------------------------------------------------------------------
 #b3lyp/svp scf=(tight,noincore) Test #IOP(5/87=12) Density=Current Pop
 =(MK,readradii) iop(6/33=2) iop(6/42=6)
 ----------------------------------------------------------------------

 ------------------
 holoCaM_loop3_69.0
 ------------------
 Symbolic Z-matrix:
 Charge =  0 Multiplicity = 1

                         Standard orientation:
 ---------------------------------------------------------------------
 Center     Atomic      Atomic             Coordinates (Angstroms)
 Number     Number       Type             X           Y           Z
 ---------------------------------------------------------------------
      1          6           0        1.962595    1.539407    6.109727
      2          6           0        1.474472    1.525799    4.670647
      3          8           0        2.233924    1.202706    3.764367
      4          1           0        2.466274    2.484211    6.313242
      5          1           0        1.113182    1.428878    6.783583
      6          1           0        2.659914    0.716390    6.265265
      7          7           0        0.169395    1.682721    4.412289
      8          6           0       -0.386611    1.803588    3.080017
      9          6           0       -0.109534    3.177948    2.498499
     10          8           0       -0.772775    4.150179    2.855541
     11          6           0       -1.868357    1.450569    3.082713
     12          6           0       -2.481163    1.559554    1.691853
     13          8           0       -1.847862    1.569205    0.615081
     14          8           0       -3.735163    1.579379    1.650741
     15          1           0       -0.468743    1.545757    5.188448
     16          1           0        0.108134    1.044548    2.460756
     17          1           0       -2.428007    2.184210    3.650571
     18          1           0       -2.198765    0.482083    3.462928
     19          7           0        0.866981    3.286461    1.591227
     20          6           0        1.349470    4.561685    1.110595
     21          6           0        0.412932    5.324373    0.194570
     22          8           0        0.330176    6.550434    0.306037
     23          6           0        2.655930    4.334329    0.361214
     24          6           0        3.312309    5.647614   -0.046523
     25          6           0        4.575607    5.208912   -0.782879
     26          6           0        5.566288    6.314377   -1.120955
     27          7           0        6.581747    6.054561   -2.148301
     28          1           0        1.284458    2.428146    1.254763
     29          1           0        1.506131    5.087467    2.053680
     30          1           0        2.529551    3.698935   -0.517309
     31          1           0        3.332706    3.836872    1.065636
     32          1           0        3.513267    6.192068    0.870312
     33          1           0        2.645191    6.145305   -0.753529
     34          1           0        4.222140    4.775870   -1.717831
     35          1           0        5.178550    4.495949   -0.219191
     36          1           0        6.138115    6.502943   -0.204736
     37          1           0        4.981642    7.171598   -1.448308
     38          1           0        7.220544    5.279433   -2.036885
     39          1           0        6.230807    5.898967   -3.087360
     40          1           0        7.133581    6.887757   -2.254899
     41          7           0       -0.321363    4.635139   -0.677650
     42          6           0       -1.303641    5.258757   -1.545020
     43          6           0       -2.679960    5.369681   -0.912530
     44          8           0       -3.387998    6.355756   -1.108843
     45          6           0       -1.507048    4.548928   -2.873127
     46          6           0       -1.412932    3.027786   -2.775314
     47          8           0       -2.378554    2.423559   -2.259384
     48          8           0       -0.365056    2.413257   -3.055513
     49          1           0       -0.143689    3.643179   -0.645287
     50          1           0       -1.144151    6.315473   -1.743293
     51          1           0       -0.700704    4.822793   -3.549964
     52          1           0       -2.474604    4.733959   -3.338099
     53          7           0       -3.123657    4.379126   -0.144915
     54          6           0       -4.335771    4.462254    0.634423
     55          6           0       -5.445985    3.658810   -0.027698
     56          8           0       -6.623814    3.809629    0.305274
     57          1           0       -2.517635    3.586581    0.035945
     58          1           0       -4.711978    5.477877    0.520054
     59          1           0       -4.166304    4.131015    1.663822
     60          7           0       -5.133579    2.683471   -0.883745
     61          6           0       -6.111906    1.878460   -1.594894
     62          6           0       -6.702440    0.718280   -0.810961
     63          8           0       -7.716254    0.120984   -1.171403
     64          6           0       -5.449042    1.383433   -2.877882
     65          6           0       -4.414967    0.275859   -2.751123
     66          7           0       -4.149758   -0.446203   -3.838087
     67          8           0       -3.819405    0.029244   -1.708200
     68          1           0       -4.142998    2.545334   -0.986550
     69          1           0       -6.939873    2.546608   -1.842582
     70          1           0       -4.985629    2.274253   -3.309842
     71          1           0       -6.226204    0.997298   -3.534478
     72          1           0       -4.513511   -0.225744   -4.752243
     73          1           0       -3.468049   -1.191814   -3.873256
     74          7           0       -6.153331    0.405892    0.362024
     75          6           0       -6.634490   -0.627857    1.256646
     76          6           0       -5.651838   -1.775661    1.458487
     77          8           0       -5.964986   -2.723092    2.176132
     78          1           0       -5.307506    0.897696    0.626804
     79          1           0       -7.649813   -0.879254    0.960640
     80          1           0       -6.709383   -0.192860    2.254879
     81          7           0       -4.493290   -1.763924    0.797180
     82          6           0       -3.572502   -2.880962    0.847937
     83          6           0       -2.135427   -2.393392    0.922704
     84          8           0       -1.792461   -1.300447    0.484588
     85          6           0       -3.739416   -3.753530   -0.397200
     86          6           0       -5.123498   -4.330727   -0.552954
     87          6           0       -6.104485   -3.700849   -1.337503
     88          6           0       -5.477993   -5.522328    0.104101
     89          6           0       -7.441487   -4.098871   -1.339700
     90          6           0       -6.805148   -5.954329    0.174350
     91          6           0       -7.738297   -5.269525   -0.619927
     92          8           0       -9.042023   -5.670041   -0.575364
     93          1           0       -4.382705   -1.023151    0.116425
     94          1           0       -3.840590   -3.465606    1.728233
     95          1           0       -3.008872   -4.568832   -0.410958
     96          1           0       -3.554135   -3.139978   -1.274767
     97          1           0       -5.883112   -2.778868   -1.858603
     98          1           0       -4.687734   -5.947133    0.697422
     99          1           0       -8.139783   -3.682829   -2.054537
    100          1           0       -7.076363   -6.864199    0.703764
    101          1           0       -9.101268   -6.554848   -0.218984
    102          7           0       -1.267266   -3.287860    1.416285
    103          6           0        0.155570   -3.044777    1.376936
    104          6           0        0.886744   -4.105036    0.569076
    105          8           0        0.686296   -5.292152    0.795957
    106          6           0        0.743700   -2.858890    2.779700
    107          6           0        0.024744   -1.754099    3.559854
    108          6           0        2.247433   -2.594786    2.773724
    109          6           0       -0.132650   -2.153033    5.025692
    110          1           0       -1.709782   -4.125869    1.776312
    111          1           0        0.319214   -2.092792    0.874994
    112          1           0        0.546207   -3.803142    3.271925
    113          1           0       -1.023375   -1.607567    3.293446
    114          1           0        0.660537   -0.875493    3.577712
    115          1           0        2.411962   -1.633737    2.275913
    116          1           0        2.565041   -2.567942    3.808762
    117          1           0        2.710043   -3.459210    2.295747
    118          1           0        0.885428   -2.190323    5.421959
    119          1           0       -0.761195   -1.427292    5.528813
    120          1           0       -0.667279   -3.083814    5.149056
    121          7           0        1.784534   -3.703450   -0.334972
    122          6           0        2.800988   -4.484056   -1.018694
    123          6           0        4.199982   -3.983488   -0.697999
    124          8           0        4.485378   -2.985584   -0.043754
    125          6           0        2.405668   -4.446413   -2.493281
    126          8           0        2.550214   -3.079919   -2.835480
    127          1           0        1.846439   -2.706656   -0.477690
    128          1           0        2.771451   -5.473235   -0.560708
    129          1           0        1.396146   -4.845535   -2.587436
    130          1           0        3.028509   -5.041536   -3.160738
    131          1           0        1.990048   -2.951720   -3.601953
    132          7           0        5.181367   -4.760553   -1.164104
    133          6           0        6.542019   -4.611013   -0.670177
    134          6           0        7.155514   -3.261623   -1.002699
    135          8           0        7.861303   -2.743421   -0.136426
    136          6           0        7.373082   -5.858885   -0.966741
    137          1           0        4.987828   -5.548743   -1.765601
    138          1           0        6.457135   -4.554948    0.411188
    139          1           0        7.434426   -5.812754   -2.049427
    140          1           0        8.360076   -5.994931   -0.540791
    141          1           0        6.801380   -6.719089   -0.627172
    142          7           0        6.796159   -2.665296   -2.137317
    143          6           0        7.380247   -1.379428   -2.469408
    144          6           0        6.907850   -0.277586   -1.541945
    145          8           0        7.557136    0.768386   -1.458466
    146          6           0        6.916405   -1.119339   -3.909028
    147          1           0        6.248674   -3.143863   -2.833975
    148          1           0        8.472191   -1.421756   -2.416824
    149          1           0        5.839272   -1.221329   -4.035455
    150          1           0        7.228432   -0.108412   -4.160553
    151          1           0        7.418492   -1.825411   -4.573460
    152          7           0        5.881320   -0.456349   -0.711897
    153          6           0        5.343652    0.474545    0.265728
    154          6           0        5.916307    0.144756    1.641303
    155          8           0        6.375392    1.032737    2.354276
    156          6           0        3.818394    0.427796    0.210936
    157          6           0        3.301047    0.615224   -1.203038
    158          6           0        1.808692    0.335637   -1.310775
    159          8           0        1.369836   -0.081016   -2.408640
    160          8           0        1.000516    0.594739   -0.398899
    161          1           0        5.340936   -1.290356   -0.872261
    162          1           0        5.638134    1.503131    0.027630
    163          1           0        3.368041    1.188401    0.841462
    164          1           0        3.593119   -0.578587    0.554946
    165          1           0        3.858192   -0.031469   -1.888514
    166          1           0        3.592468    1.619423   -1.532218
    167          7           0        5.885077   -1.146651    1.988134
    168          6           0        6.583823   -1.629052    3.163184
    169          1           0        7.475826   -1.025647    3.328131
    170          1           0        5.930192   -1.554189    4.032243
    171          1           0        6.872308   -2.668981    3.013190
    172          1           0        5.604769   -1.822810    1.304660
    173         20           0       -1.141417    0.326819   -1.579255
    174          8           0       -0.663980   -2.357980   -1.818443
    175          1           0        0.015511   -2.275618   -2.483657
    176          1           0       -0.948893   -3.271824   -1.882575
 ---------------------------------------------------------------------

 SCF Done:  E(RB3LYP) =  -5333.58370491     A.U. after   19 cycles

 The electronic state is 1-A.
 Alpha  occ. eigenvalues -- -145.34977 -19.18759 -19.18689 -19.15564 -19.13930
 Alpha  occ. eigenvalues --  -19.11879 -19.11398 -19.10820 -19.10218 -19.08921
 Alpha  occ. eigenvalues --  -19.07016 -19.06931 -19.06880 -19.06535 -19.06251
 Alpha  occ. eigenvalues --  -19.06095 -19.05142 -19.05015 -19.04835 -19.04029
 Alpha  occ. eigenvalues --  -19.03341 -19.02281 -19.02062 -19.00192 -15.40745
 Alpha  occ. eigenvalues --  -14.58407 -14.40696 -14.38570 -14.37284 -14.37163
 Alpha  occ. eigenvalues --  -14.36033 -14.34631 -14.32997 -14.32917 -14.32593
 Alpha  occ. eigenvalues --  -14.32247 -14.31352 -14.28880 -14.28512 -14.28207
 Alpha  occ. eigenvalues --  -12.54369 -12.54317 -12.54290 -10.34232 -10.33782
 Alpha  occ. eigenvalues --  -10.30608 -10.30344 -10.29345 -10.28954 -10.28361
 Alpha  occ. eigenvalues --  -10.28192 -10.27777 -10.26593 -10.26097 -10.26043
 Alpha  occ. eigenvalues --  -10.25783 -10.25601 -10.25512 -10.25309 -10.24552
 Alpha  occ. eigenvalues --  -10.24064 -10.23926 -10.23077 -10.23072 -10.22757
 Alpha  occ. eigenvalues --  -10.22599 -10.22389 -10.22061 -10.22017 -10.21793
 Alpha  occ. eigenvalues --  -10.21788 -10.21616 -10.21250 -10.20890 -10.20457
 Alpha  occ. eigenvalues --  -10.19974 -10.19961 -10.19752 -10.19285 -10.19118
 Alpha  occ. eigenvalues --  -10.18611 -10.18053 -10.17779 -10.17697 -10.17544
 Alpha  occ. eigenvalues --  -10.17508 -10.17491 -10.17456 -10.17362 -10.17137
 Alpha  occ. eigenvalues --  -10.16755 -10.16665 -10.16103 -10.15956 -10.15760
 Alpha  occ. eigenvalues --  -10.15628 -10.14302  -1.77780  -1.13660  -1.08906
 Alpha  occ. eigenvalues --   -1.07001  -1.05855  -1.05757  -1.05198  -1.05050
 Alpha  occ. eigenvalues --   -1.04647  -1.04330  -1.04144  -1.03044  -1.02947
 Alpha  occ. eigenvalues --   -1.02193  -1.01438  -1.00489  -1.00335  -0.99822
 Alpha  occ. eigenvalues --   -0.99720  -0.98748  -0.98410  -0.97400  -0.97248
 Alpha  occ. eigenvalues --   -0.96771  -0.96206  -0.95355  -0.95223  -0.94241
 Alpha  occ. eigenvalues --   -0.92714  -0.91868  -0.91712  -0.90863  -0.90106
 Alpha  occ. eigenvalues --   -0.89804  -0.89188  -0.88981  -0.88927  -0.88748
 Alpha  occ. eigenvalues --   -0.88207  -0.86482  -0.85642  -0.85368  -0.84592
 Alpha  occ. eigenvalues --   -0.83120  -0.83043  -0.81638  -0.81142  -0.79889
 Alpha  occ. eigenvalues --   -0.78809  -0.78154  -0.77315  -0.76426  -0.75675
 Alpha  occ. eigenvalues --   -0.74899  -0.74404  -0.73956  -0.72682  -0.72169
 Alpha  occ. eigenvalues --   -0.71983  -0.71605  -0.71215  -0.70921  -0.70400
 Alpha  occ. eigenvalues --   -0.69912  -0.69153  -0.68556  -0.67819  -0.67294
 Alpha  occ. eigenvalues --   -0.67044  -0.66436  -0.65229  -0.65025  -0.63624
 Alpha  occ. eigenvalues --   -0.63260  -0.62801  -0.62629  -0.61858  -0.61788
 Alpha  occ. eigenvalues --   -0.61238  -0.60606  -0.60535  -0.60504  -0.60128
 Alpha  occ. eigenvalues --   -0.59308  -0.59010  -0.58427  -0.58175  -0.57551
 Alpha  occ. eigenvalues --   -0.57196  -0.56600  -0.56561  -0.56339  -0.56234
 Alpha  occ. eigenvalues --   -0.56096  -0.55959  -0.55207  -0.55004  -0.54758
 Alpha  occ. eigenvalues --   -0.54195  -0.53657  -0.53578  -0.53039  -0.52840
 Alpha  occ. eigenvalues --   -0.52588  -0.52462  -0.52067  -0.51715  -0.50971
 Alpha  occ. eigenvalues --   -0.50791  -0.50671  -0.50299  -0.50166  -0.49844
 Alpha  occ. eigenvalues --   -0.49198  -0.48834  -0.48605  -0.48361  -0.48223
 Alpha  occ. eigenvalues --   -0.48141  -0.47968  -0.47716  -0.47558  -0.47410
 Alpha  occ. eigenvalues --   -0.47356  -0.46780  -0.46592  -0.46329  -0.46124
 Alpha  occ. eigenvalues --   -0.45889  -0.45778  -0.45656  -0.45487  -0.45184
 Alpha  occ. eigenvalues --   -0.44997  -0.44738  -0.44654  -0.44238  -0.44028
 Alpha  occ. eigenvalues --   -0.43844  -0.43689  -0.43479  -0.43364  -0.43256
 Alpha  occ. eigenvalues --   -0.43155  -0.43043  -0.42932  -0.42909  -0.42522
 Alpha  occ. eigenvalues --   -0.42298  -0.42140  -0.42116  -0.41951  -0.41834
 Alpha  occ. eigenvalues --   -0.41651  -0.41615  -0.41541  -0.41473  -0.41295
 Alpha  occ. eigenvalues --   -0.41252  -0.40813  -0.40779  -0.40521  -0.40189
 Alpha  occ. eigenvalues --   -0.40054  -0.40009  -0.39996  -0.39914  -0.39757
 Alpha  occ. eigenvalues --   -0.39703  -0.39406  -0.39367  -0.39322  -0.39035
 Alpha  occ. eigenvalues --   -0.39002  -0.38830  -0.38683  -0.38530  -0.38267
 Alpha  occ. eigenvalues --   -0.38141  -0.37891  -0.37690  -0.37584  -0.37536
 Alpha  occ. eigenvalues --   -0.37420  -0.37380  -0.37281  -0.37153  -0.36746
 Alpha  occ. eigenvalues --   -0.36585  -0.36471  -0.36345  -0.36182  -0.36054
 Alpha  occ. eigenvalues --   -0.35944  -0.35818  -0.35785  -0.35522  -0.34981
 Alpha  occ. eigenvalues --   -0.34688  -0.34571  -0.34475  -0.34323  -0.34285
 Alpha  occ. eigenvalues --   -0.34054  -0.34021  -0.33648  -0.33396  -0.33229
 Alpha  occ. eigenvalues --   -0.33070  -0.33040  -0.32753  -0.32457  -0.32319
 Alpha  occ. eigenvalues --   -0.32235  -0.32171  -0.31969  -0.31635  -0.31257
 Alpha  occ. eigenvalues --   -0.31239  -0.30901  -0.30858  -0.30562  -0.29950
 Alpha  occ. eigenvalues --   -0.29853  -0.29687  -0.29383  -0.28138  -0.27618
 Alpha  occ. eigenvalues --   -0.27398  -0.27256  -0.26662  -0.26266  -0.25669
 Alpha  occ. eigenvalues --   -0.25410  -0.25254  -0.24922  -0.24482  -0.24238
 Alpha  occ. eigenvalues --   -0.24133  -0.23961  -0.23330  -0.23266  -0.23075
 Alpha  occ. eigenvalues --   -0.22815  -0.22698  -0.22506  -0.22216  -0.21817
 Alpha  occ. eigenvalues --   -0.21789  -0.21676  -0.21420  -0.21014  -0.20402
 Alpha  occ. eigenvalues --   -0.20209  -0.19592  -0.19160  -0.19074  -0.18955
 Alpha  occ. eigenvalues --   -0.18396  -0.17003  -0.16072
 Alpha virt. eigenvalues --   -0.10272  -0.04246  -0.04032  -0.03630  -0.03090
 Alpha virt. eigenvalues --   -0.01406  -0.00749  -0.00641  -0.00011   0.00394
 Alpha virt. eigenvalues --    0.00628   0.00901   0.01196   0.01436   0.01795

 Mulliken charges:
               1
     1  C    0.083085
     2  C    0.026625
     3  O   -0.301375
     4  H    0.038801
     5  H   -0.004365
     6  H    0.031083
     7  N   -0.136793
     8  C    0.116059
     9  C    0.060744
    10  O   -0.274917
    11  C    0.066645
    12  C    0.137999
    13  O   -0.454658
    14  O   -0.391317
    15  H    0.119655
    16  H    0.020739
    17  H    0.007727
    18  H    0.010482
    19  N   -0.145118
    20  C    0.183385
    21  C    0.049757
    22  O   -0.288587
    23  C   -0.089481
    24  C    0.057938
    25  C   -0.055631
    26  C    0.052229
    27  N    0.081658
    28  H    0.155001
    29  H    0.007994
    30  H    0.022418
    31  H    0.038372
    32  H    0.022180
    33  H    0.040949
    34  H    0.019483
    35  H    0.043498
    36  H    0.074694
    37  H    0.067188
    38  H    0.195691
    39  H    0.180856
    40  H    0.184823
    41  N   -0.112483
    42  C    0.134625
    43  C    0.019583
    44  O   -0.291351
    45  C    0.180043
    46  C    0.014228
    47  O   -0.429965
    48  O   -0.392458
    49  H    0.142127
    50  H    0.007182
    51  H   -0.025178
    52  H    0.014894
    53  N   -0.186533
    54  C    0.269666
    55  C   -0.005232
    56  O   -0.311459
    57  H    0.147098
    58  H    0.020042
    59  H    0.057485
    60  N   -0.163999
    61  C    0.171472
    62  C    0.037267
    63  O   -0.301535
    64  C    0.053467
    65  C    0.078334
    66  N   -0.041980
    67  O   -0.322383
    68  H    0.149871
    69  H    0.021609
    70  H    0.054013
    71  H    0.015939
    72  H    0.122470
    73  H    0.110929
    74  N   -0.179634
    75  C    0.247237
    76  C    0.028008
    77  O   -0.308653
    78  H    0.154820
    79  H    0.045691
    80  H    0.024021
    81  N   -0.144844
    82  C    0.111666
    83  C    0.128003
    84  O   -0.304965
    85  C    0.130026
    86  C   -0.032265
    87  C   -0.014679
    88  C    0.020201
    89  C    0.012705
    90  C   -0.002868
    91  C    0.130425
    92  O   -0.201132
    93  H    0.152574
    94  H    0.005975
    95  H   -0.024128
    96  H   -0.042133
    97  H   -0.032870
    98  H   -0.047673
    99  H   -0.008909
   100  H   -0.038497
   101  H    0.164595
   102  N   -0.138908
   103  C    0.173005
   104  C    0.024278
   105  O   -0.283887
   106  C   -0.110211
   107  C    0.002975
   108  C    0.069920
   109  C    0.007090
   110  H    0.127717
   111  H    0.016024
   112  H   -0.029904
   113  H    0.017346
   114  H    0.043277
   115  H    0.064388
   116  H   -0.000327
   117  H   -0.002499
   118  H    0.001776
   119  H   -0.006372
   120  H   -0.002137
   121  N   -0.148450
   122  C    0.103879
   123  C    0.118457
   124  O   -0.267037
   125  C    0.210142
   126  O   -0.285403
   127  H    0.153080
   128  H    0.036967
   129  H    0.010254
   130  H   -0.011678
   131  H    0.171756
   132  N   -0.146499
   133  C    0.089107
   134  C    0.053966
   135  O   -0.261203
   136  C    0.053445
   137  H    0.114313
   138  H    0.020619
   139  H    0.001040
   140  H    0.050238
   141  H    0.026877
   142  N   -0.141267
   143  C    0.100026
   144  C    0.057437
   145  O   -0.315575
   146  C    0.022760
   147  H    0.113154
   148  H    0.030185
   149  H    0.027599
   150  H    0.022284
   151  H    0.017995
   152  N   -0.139553
   153  C    0.118914
   154  C    0.105123
   155  O   -0.276143
   156  C   -0.007160
   157  C    0.081556
   158  C    0.150942
   159  O   -0.431915
   160  O   -0.427382
   161  H    0.141069
   162  H   -0.035193
   163  H    0.029754
   164  H    0.004277
   165  H   -0.032886
   166  H   -0.018167
   167  N   -0.174695
   168  C    0.144415
   169  H    0.026609
   170  H    0.020564
   171  H    0.004655
   172  H    0.128411
   173  Ca   1.262318
   174  O   -0.270398
   175  H    0.150062
   176  H    0.176809
 Sum of Mulliken charges =  -0.00000

 Dipole moment (field-independent basis, Debye):
    X=             36.6076    Y=             -6.7102    Z=            -19.5929  Tot=             42.0598
 Quadrupole moment (field-independent basis, Debye-Ang):
   XX=           -570.0823   YY=           -456.9299   ZZ=           -491.9728
   XY=            156.7125   XZ=            -62.9675   YZ=            -22.0028

 ESP charges:
               1
     1  C   -0.425354
     2  C    0.758901
     3  O   -0.612497
     4  H    0.127267
     5  H    0.080427
     6  H    0.129152
     7  N   -0.714917
     8  C    0.252785
     9  C    0.584438
    10  O   -0.536766
    11  C   -0.428789
    12  C    0.903341
    13  O   -0.885856
    14  O   -0.699594
    15  H    0.361729
    16  H   -0.056832
    17  H    0.108821
    18  H    0.116084
    19  N   -0.211368
    20  C   -0.364358
    21  C    0.574303
    22  O   -0.552100
    23  C    0.323456
    24  C   -0.325946
    25  C    0.128346
    26  C   -0.037219
    27  N   -0.270468
    28  H    0.124701
    29  H    0.169352
    30  H   -0.010400
    31  H    0.010006
    32  H    0.087299
    33  H    0.113663
    34  H    0.012025
    35  H    0.025813
    36  H    0.096682
    37  H    0.083564
    38  H    0.314476
    39  H    0.305376
    40  H    0.295762
    41  N   -0.444055
    42  C    0.291763
    43  C    0.443372
    44  O   -0.571924
    45  C   -0.426258
    46  C    0.791699
    47  O   -0.742373
    48  O   -0.735956
    49  H    0.258694
    50  H    0.027837
    51  H    0.082769
    52  H    0.125485
    53  N   -0.029011
    54  C   -0.348000
    55  C    0.652993
    56  O   -0.603729
    57  H    0.140158
    58  H    0.141642
    59  H    0.163913
    60  N   -0.376313
    61  C    0.156301
    62  C    0.381773
    63  O   -0.559765
    64  C   -0.452069
    65  C    0.837186
    66  N   -0.876401
    67  O   -0.652899
    68  H    0.133651
    69  H    0.097697
    70  H    0.172376
    71  H    0.117120
    72  H    0.381991
    73  H    0.378388
    74  N   -0.052940
    75  C   -0.287086
    76  C    0.671092
    77  O   -0.584777
    78  H    0.195614
    79  H    0.159419
    80  H    0.103237
    81  N   -0.670096
    82  C    0.755661
    83  C   -0.024519
    84  O   -0.286104
    85  C   -0.300215
    86  C    0.327668
    87  C   -0.534456
    88  C   -0.432196
    89  C    0.113618
    90  C    0.034736
    91  C    0.075381
    92  O   -0.489731
    93  H    0.345797
    94  H   -0.050710
    95  H    0.052523
    96  H    0.055169
    97  H    0.226392
    98  H    0.168001
    99  H    0.094707
   100  H    0.083075
   101  H    0.383523
   102  N   -0.437037
   103  C    0.067156
   104  C    0.491793
   105  O   -0.571686
   106  C    0.376283
   107  C   -0.115585
   108  C   -0.457112
   109  C   -0.383010
   110  H    0.287698
   111  H   -0.064468
   112  H   -0.049860
   113  H    0.141280
   114  H    0.210921
   115  H    0.045791
   116  H    0.133095
   117  H    0.073796
   118  H    0.063956
   119  H    0.088069
   120  H    0.092047
   121  N   -0.041439
   122  C   -0.243508
   123  C    0.627810
   124  O   -0.504817
   125  C    0.150500
   126  O   -0.589897
   127  H    0.225336
   128  H    0.113170
   129  H    0.027442
   130  H    0.026031
   131  H    0.406862
   132  N   -0.491942
   133  C    0.151305
   134  C    0.533382
   135  O   -0.558303
   136  C   -0.366172
   137  H    0.295162
   138  H    0.083944
   139  H    0.071193
   140  H    0.147494
   141  H    0.113359
   142  N   -0.453881
   143  C    0.152013
   144  C    0.347505
   145  O   -0.561808
   146  C   -0.319789
   147  H    0.288274
   148  H    0.093092
   149  H    0.095389
   150  H    0.094710
   151  H    0.085641
   152  N   -0.003889
   153  C    0.011752
   154  C    0.484621
   155  O   -0.539271
   156  C   -0.384474
   157  C   -0.122155
   158  C    0.784885
   159  O   -0.763949
   160  O   -0.605522
   161  H    0.144375
   162  H    0.018124
   163  H    0.183840
   164  H    0.114109
   165  H    0.024673
   166  H    0.019011
   167  N   -0.179045
   168  C   -0.185389
   169  H    0.100871
   170  H    0.076406
   171  H    0.069862
   172  H    0.207149
   173  Ca   1.548384
   174  O   -0.854155
   175  H    0.388005
   176  H    0.424454
 Sum of ESP charges =  -0.00000

 Normal termination of Gaussian 16 at Sat Sep 14 22:40:57 2019.
