 Gaussian 09, Revision D.01,
 Gaussian 09:  ES64L-G09RevD.01 24-Apr-2013

 ----------------------------------------------------------------------
 #maxdisk=50GB #B3LYP/SVP Density=Current scf=(tight) #IOP(5/87=12)Pop=
 (MK,readradii) iop(6/33=2) iop(6/42=6)
 ----------------------------------------------------------------------

 ------------
 SOL molecule
 ------------
 Symbolic Z-matrix:
 Charge =  0 Multiplicity = 1

                         Standard orientation:
 ---------------------------------------------------------------------
 Center     Atomic      Atomic             Coordinates (Angstroms)
 Number     Number       Type             X           Y           Z
 ---------------------------------------------------------------------
      1          6           0        1.705509    2.076584    5.781822
      2          6           0        1.302155    2.095661    4.313544
      3          8           0        2.128429    1.791078    3.469091
      4          1           0        1.685446    1.051064    6.150674
      5          1           0        2.712028    2.480095    5.887664
      6          1           0        1.006976    2.683267    6.359090
      7          7           0        0.057999    2.505684    4.052665
      8          6           0       -0.531891    2.597869    2.725664
      9          6           0       -0.399509    3.994176    2.131187
     10          8           0       -0.815487    4.940247    2.787625
     11          6           0       -1.957823    2.056309    2.720026
     12          6           0       -2.537663    2.222833    1.323941
     13          8           0       -2.459481    1.305425    0.481296
     14          8           0       -3.002409    3.326932    0.962171
     15          1           0       -0.507459    2.833025    4.820587
     16          1           0        0.009693    1.940282    2.044734
     17          1           0       -2.568500    2.596998    3.441711
     18          1           0       -1.883904    1.013062    3.035417
     19          7           0       -0.007984    4.111987    0.855832
     20          6           0        0.202514    5.409303    0.247259
     21          6           0       -0.747451    5.807830   -0.877749
     22          8           0       -0.444796    6.787494   -1.554179
     23          6           0        1.638255    5.390075   -0.259374
     24          6           0        2.709975    5.395004    0.828234
     25          6           0        3.989223    5.808673    0.110389
     26          6           0        5.280558    5.675507    0.901856
     27          7           0        6.492830    5.922344    0.104756
     28          1           0        0.118613    3.247154    0.366305
     29          1           0        0.190154    6.220259    0.982035
     30          1           0        1.813843    6.245229   -0.914570
     31          1           0        1.771994    4.512478   -0.903453
     32          1           0        2.830827    4.448479    1.355856
     33          1           0        2.414552    6.178655    1.512716
     34          1           0        3.981918    6.882506   -0.107395
     35          1           0        4.031481    5.241625   -0.823673
     36          1           0        5.351843    4.644092    1.261440
     37          1           0        5.207437    6.334861    1.768635
     38          1           0        6.690790    5.280297   -0.652864
     39          1           0        6.373495    6.783464   -0.424801
     40          1           0        7.302269    6.081486    0.691937
     41          7           0       -1.826140    5.035507   -1.020393
     42          6           0       -2.628251    5.232131   -2.213773
     43          6           0       -4.111010    4.916299   -2.097684
     44          8           0       -4.800779    4.928321   -3.117280
     45          6           0       -1.960979    4.365463   -3.283789
     46          6           0       -1.676968    2.933860   -2.872265
     47          8           0       -0.525130    2.645725   -2.482077
     48          8           0       -2.616197    2.116795   -2.843011
     49          1           0       -2.093193    4.316820   -0.361931
     50          1           0       -2.544246    6.267641   -2.528992
     51          1           0       -1.063792    4.846011   -3.687061
     52          1           0       -2.654234    4.374737   -4.133148
     53          7           0       -4.673061    4.741087   -0.903114
     54          6           0       -6.089144    4.574352   -0.648733
     55          6           0       -6.606164    3.147298   -0.600707
     56          8           0       -7.813107    3.008306   -0.425009
     57          1           0       -4.064653    4.523506   -0.125233
     58          1           0       -6.694303    4.895456   -1.497129
     59          1           0       -6.394462    5.185520    0.199002
     60          7           0       -5.815523    2.115062   -0.881376
     61          6           0       -6.303567    0.758884   -0.993152
     62          6           0       -5.940555   -0.115425    0.206142
     63          8           0       -6.469980   -1.212144    0.341486
     64          6           0       -5.934336    0.084621   -2.313470
     65          6           0       -4.691454   -0.795765   -2.275205
     66          7           0       -4.716001   -2.055837   -2.699606
     67          8           0       -3.600532   -0.388457   -1.877976
     68          1           0       -4.842545    2.312163   -1.066214
     69          1           0       -7.390978    0.715119   -1.050787
     70          1           0       -5.745924    0.824253   -3.079527
     71          1           0       -6.803887   -0.405993   -2.736294
     72          1           0       -5.621354   -2.506943   -2.775360
     73          1           0       -3.861429   -2.589347   -2.616701
     74          7           0       -5.001167    0.336531    1.046253
     75          6           0       -4.685177   -0.176877    2.352034
     76          6           0       -3.855486   -1.452003    2.383100
     77          8           0       -2.948981   -1.529455    3.204593
     78          1           0       -4.468730    1.142613    0.769410
     79          1           0       -5.471090   -0.382039    3.090985
     80          1           0       -4.065302    0.520090    2.928741
     81          7           0       -4.122808   -2.404713    1.484054
     82          6           0       -3.147698   -3.421496    1.131047
     83          6           0       -1.740024   -2.923517    0.823687
     84          8           0       -1.542813   -1.965147    0.074264
     85          6           0       -3.654082   -4.257752   -0.030655
     86          6           0       -4.906573   -5.109800    0.005129
     87          6           0       -5.305073   -5.837133   -1.124996
     88          6           0       -5.599291   -5.315442    1.200057
     89          6           0       -6.419586   -6.689775   -1.058199
     90          6           0       -6.643550   -6.232894    1.288394
     91          6           0       -7.140883   -6.871304    0.135358
     92          8           0       -8.250623   -7.665886    0.175581
     93          1           0       -4.885638   -2.350728    0.829015
     94          1           0       -3.100244   -4.048570    2.023586
     95          1           0       -2.884274   -5.002200   -0.213118
     96          1           0       -3.652508   -3.703715   -0.968600
     97          1           0       -4.762848   -5.711664   -2.051738
     98          1           0       -5.395450   -4.740841    2.096987
     99          1           0       -6.735608   -7.137976   -1.988869
    100          1           0       -7.134657   -6.400135    2.238418
    101          1           0       -8.629458   -7.922215    1.011331
    102          7           0       -0.756173   -3.612104    1.392532
    103          6           0        0.596304   -3.070629    1.396077
    104          6           0        1.367853   -3.774236    0.290884
    105          8           0        1.311969   -4.994417    0.200140
    106          6           0        1.275333   -3.229773    2.750843
    107          6           0        0.550946   -2.570161    3.922670
    108          6           0        2.737439   -2.805498    2.638432
    109          6           0        0.238534   -1.092764    3.741572
    110          1           0       -1.027944   -4.310282    2.072376
    111          1           0        0.540466   -2.005483    1.161886
    112          1           0        1.289446   -4.292848    3.015934
    113          1           0        1.202107   -2.753552    4.775406
    114          1           0       -0.290679   -3.211925    4.198182
    115          1           0        3.283687   -2.892197    3.585742
    116          1           0        3.187949   -3.525537    1.955216
    117          1           0        2.857926   -1.829596    2.192004
    118          1           0        1.189950   -0.626402    3.490149
    119          1           0       -0.393434   -0.853844    2.881902
    120          1           0       -0.246703   -0.753263    4.655840
    121          7           0        2.092519   -3.051135   -0.565494
    122          6           0        2.929975   -3.622856   -1.600242
    123          6           0        4.371796   -3.715790   -1.122837
    124          8           0        4.780731   -3.152980   -0.113225
    125          6           0        2.688111   -2.915439   -2.935443
    126          8           0        2.968426   -1.535638   -2.892156
    127          1           0        2.302205   -2.076621   -0.415649
    128          1           0        2.509619   -4.619594   -1.761222
    129          1           0        1.637530   -2.962449   -3.234393
    130          1           0        3.222740   -3.445697   -3.711972
    131          1           0        2.391289   -1.100403   -2.244327
    132          7           0        5.190229   -4.361301   -1.964730
    133          6           0        6.634613   -4.370554   -1.819576
    134          6           0        7.350291   -3.043826   -1.573206
    135          8           0        7.988753   -2.874674   -0.528240
    136          6           0        7.195532   -5.097699   -3.032848
    137          1           0        4.717465   -4.863648   -2.695649
    138          1           0        6.952837   -4.977784   -0.970514
    139          1           0        6.679399   -6.056497   -3.082980
    140          1           0        6.925582   -4.500834   -3.903410
    141          1           0        8.266526   -5.299325   -3.010056
    142          7           0        7.068802   -2.022160   -2.390741
    143          6           0        7.642629   -0.699693   -2.325920
    144          6           0        7.247966   -0.014990   -1.021228
    145          8           0        8.178301    0.493087   -0.391280
    146          6           0        7.282770    0.200886   -3.493593
    147          1           0        6.497422   -2.161251   -3.211216
    148          1           0        8.722862   -0.842874   -2.343116
    149          1           0        7.520573   -0.240108   -4.463322
    150          1           0        6.223057    0.453595   -3.436614
    151          1           0        7.832968    1.132274   -3.395625
    152          7           0        5.981911   -0.114025   -0.588219
    153          6           0        5.410368    0.422111    0.623515
    154          6           0        5.886232   -0.384674    1.825035
    155          8           0        6.031561    0.265354    2.861202
    156          6           0        3.902063    0.213548    0.532865
    157          6           0        3.148366    1.211648   -0.338190
    158          6           0        1.707561    0.753027   -0.398598
    159          8           0        0.790810    1.538561   -0.077500
    160          8           0        1.425131   -0.269933   -1.051197
    161          1           0        5.288497   -0.554481   -1.174628
    162          1           0        5.664727    1.480342    0.730982
    163          1           0        3.487990    0.327421    1.538935
    164          1           0        3.684842   -0.790251    0.170922
    165          1           0        3.611027    1.185030   -1.333045
    166          1           0        3.278734    2.214211    0.061899
    167          7           0        6.144058   -1.690223    1.717016
    168          6           0        6.814692   -2.428107    2.769146
    169          1           0        6.369938   -3.419684    2.857403
    170          1           0        7.873489   -2.525255    2.527684
    171          1           0        6.704354   -1.895896    3.714586
    172          1           0        5.791191   -2.215063    0.935909
    173         20           0       -1.169889    0.339364   -1.450484
    174          8           0       -0.703932   -1.524841   -3.249741
    175          1           0        0.019276   -1.640633   -3.877087
    176          1           0       -1.149441   -2.372261   -3.250810
 ---------------------------------------------------------------------

 SCF Done:  E(RB3LYP) =  -5333.62750517     A.U. after   17 cycles

 The electronic state is 1-A.
 Alpha  occ. eigenvalues -- -145.34246 -19.19099 -19.16165 -19.13801 -19.13269
 Alpha  occ. eigenvalues --  -19.11536 -19.11013 -19.10481 -19.09711 -19.09413
 Alpha  occ. eigenvalues --  -19.09100 -19.08641 -19.08563 -19.07749 -19.06998
 Alpha  occ. eigenvalues --  -19.05740 -19.05670 -19.05228 -19.05167 -19.04980
 Alpha  occ. eigenvalues --  -19.04263 -19.04092 -19.02680 -19.02376 -15.40045
 Alpha  occ. eigenvalues --  -14.57727 -14.39389 -14.37527 -14.36368 -14.36368
 Alpha  occ. eigenvalues --  -14.35329 -14.35158 -14.33662 -14.33282 -14.33265
 Alpha  occ. eigenvalues --  -14.32334 -14.31014 -14.30700 -14.30333 -14.30156
 Alpha  occ. eigenvalues --  -12.53642 -12.53621 -12.53608 -10.33115 -10.31875
 Alpha  occ. eigenvalues --  -10.30069 -10.29681 -10.29567 -10.28061 -10.28018
 Alpha  occ. eigenvalues --  -10.27594 -10.26916 -10.26767 -10.26286 -10.26056
 Alpha  occ. eigenvalues --  -10.25962 -10.25695 -10.25569 -10.24912 -10.24666
 Alpha  occ. eigenvalues --  -10.24559 -10.24372 -10.24324 -10.24048 -10.23808
 Alpha  occ. eigenvalues --  -10.23719 -10.23362 -10.22570 -10.22298 -10.22184
 Alpha  occ. eigenvalues --  -10.22083 -10.21459 -10.21370 -10.21162 -10.20921
 Alpha  occ. eigenvalues --  -10.20613 -10.19943 -10.19842 -10.19770 -10.19629
 Alpha  occ. eigenvalues --  -10.19559 -10.19306 -10.19153 -10.19051 -10.18948
 Alpha  occ. eigenvalues --  -10.18667 -10.18460 -10.18347 -10.18339 -10.18271
 Alpha  occ. eigenvalues --  -10.17602 -10.17263 -10.16317 -10.16078 -10.15729
 Alpha  occ. eigenvalues --  -10.14733 -10.12338  -1.76986  -1.12639  -1.06900
 Alpha  occ. eigenvalues --   -1.05423  -1.05206  -1.04653  -1.04547  -1.04098
 Alpha  occ. eigenvalues --   -1.04000  -1.03907  -1.03820  -1.03203  -1.02779
 Alpha  occ. eigenvalues --   -1.01979  -1.01695  -1.01657  -1.01115  -1.00270
 Alpha  occ. eigenvalues --   -0.99911  -0.99071  -0.98813  -0.98661  -0.98177
 Alpha  occ. eigenvalues --   -0.97469  -0.97196  -0.96226  -0.94073  -0.93274
 Alpha  occ. eigenvalues --   -0.93149  -0.92246  -0.92199  -0.91398  -0.90764
 Alpha  occ. eigenvalues --   -0.90557  -0.89733  -0.89383  -0.88787  -0.88641
 Alpha  occ. eigenvalues --   -0.87729  -0.87670  -0.87250  -0.87048  -0.86443
 Alpha  occ. eigenvalues --   -0.85395  -0.82142  -0.81072  -0.79745  -0.79637
 Alpha  occ. eigenvalues --   -0.79127  -0.78363  -0.77632  -0.77005  -0.76029
 Alpha  occ. eigenvalues --   -0.74650  -0.74404  -0.73957  -0.72788  -0.72486
 Alpha  occ. eigenvalues --   -0.72216  -0.71501  -0.71223  -0.70439  -0.70110
 Alpha  occ. eigenvalues --   -0.69480  -0.69417  -0.69225  -0.67765  -0.66911
 Alpha  occ. eigenvalues --   -0.66526  -0.65935  -0.65787  -0.65130  -0.63644
 Alpha  occ. eigenvalues --   -0.62852  -0.62374  -0.62245  -0.61988  -0.61632
 Alpha  occ. eigenvalues --   -0.60979  -0.60966  -0.60530  -0.59871  -0.59665
 Alpha  occ. eigenvalues --   -0.59507  -0.59250  -0.58787  -0.58634  -0.57986
 Alpha  occ. eigenvalues --   -0.57363  -0.57109  -0.57039  -0.56493  -0.56261
 Alpha  occ. eigenvalues --   -0.55916  -0.55742  -0.55532  -0.55133  -0.55053
 Alpha  occ. eigenvalues --   -0.54565  -0.54372  -0.54346  -0.54113  -0.53715
 Alpha  occ. eigenvalues --   -0.53358  -0.52881  -0.52405  -0.52252  -0.51921
 Alpha  occ. eigenvalues --   -0.50540  -0.50475  -0.50306  -0.49901  -0.49851
 Alpha  occ. eigenvalues --   -0.49295  -0.49012  -0.48746  -0.48599  -0.48449
 Alpha  occ. eigenvalues --   -0.48216  -0.47713  -0.47557  -0.47468  -0.47114
 Alpha  occ. eigenvalues --   -0.46900  -0.46671  -0.46315  -0.46149  -0.45919
 Alpha  occ. eigenvalues --   -0.45831  -0.45702  -0.45457  -0.45294  -0.45157
 Alpha  occ. eigenvalues --   -0.45099  -0.44994  -0.44851  -0.44764  -0.44489
 Alpha  occ. eigenvalues --   -0.44457  -0.44354  -0.44089  -0.43883  -0.43642
 Alpha  occ. eigenvalues --   -0.43450  -0.43160  -0.43103  -0.42961  -0.42675
 Alpha  occ. eigenvalues --   -0.42642  -0.42530  -0.42426  -0.42402  -0.42242
 Alpha  occ. eigenvalues --   -0.41870  -0.41759  -0.41679  -0.41273  -0.41219
 Alpha  occ. eigenvalues --   -0.41129  -0.40996  -0.40799  -0.40727  -0.40647
 Alpha  occ. eigenvalues --   -0.40570  -0.40440  -0.40373  -0.40168  -0.40015
 Alpha  occ. eigenvalues --   -0.39820  -0.39697  -0.39651  -0.39154  -0.38994
 Alpha  occ. eigenvalues --   -0.38925  -0.38687  -0.38542  -0.38354  -0.38307
 Alpha  occ. eigenvalues --   -0.38195  -0.38151  -0.37939  -0.37919  -0.37745
 Alpha  occ. eigenvalues --   -0.37594  -0.37504  -0.37314  -0.37207  -0.37130
 Alpha  occ. eigenvalues --   -0.37040  -0.36824  -0.36767  -0.36581  -0.36430
 Alpha  occ. eigenvalues --   -0.36304  -0.36131  -0.36005  -0.35909  -0.35595
 Alpha  occ. eigenvalues --   -0.35353  -0.35303  -0.35041  -0.34750  -0.34725
 Alpha  occ. eigenvalues --   -0.34368  -0.34174  -0.34162  -0.33907  -0.33722
 Alpha  occ. eigenvalues --   -0.33664  -0.33150  -0.33051  -0.32884  -0.32551
 Alpha  occ. eigenvalues --   -0.32258  -0.32188  -0.32029  -0.31930  -0.31038
 Alpha  occ. eigenvalues --   -0.30830  -0.30438  -0.30026  -0.29858  -0.29807
 Alpha  occ. eigenvalues --   -0.28840  -0.28618  -0.28325  -0.27994  -0.27897
 Alpha  occ. eigenvalues --   -0.27325  -0.26776  -0.26702  -0.26562  -0.26426
 Alpha  occ. eigenvalues --   -0.26419  -0.26090  -0.25908  -0.25720  -0.25141
 Alpha  occ. eigenvalues --   -0.24982  -0.24789  -0.24455  -0.24270  -0.23817
 Alpha  occ. eigenvalues --   -0.23546  -0.23066  -0.22989  -0.22522  -0.22456
 Alpha  occ. eigenvalues --   -0.22301  -0.22183  -0.22029  -0.21840  -0.21231
 Alpha  occ. eigenvalues --   -0.20728  -0.20650  -0.20284  -0.20142  -0.20071
 Alpha  occ. eigenvalues --   -0.19658  -0.19526  -0.18434
 Alpha virt. eigenvalues --   -0.09629  -0.03784  -0.03407  -0.02764  -0.02053
 Alpha virt. eigenvalues --   -0.01775  -0.00747  -0.00431  -0.00131   0.00449
 Alpha virt. eigenvalues --    0.00751   0.01049   0.01779   0.02022   0.02365

 Mulliken charges:
               1
     1  C    0.063753
     2  C    0.027910
     3  O   -0.289443
     4  H    0.036663
     5  H    0.028722
     6  H   -0.009298
     7  N   -0.114547
     8  C    0.081503
     9  C    0.051581
    10  O   -0.293753
    11  C    0.136471
    12  C    0.093184
    13  O   -0.463874
    14  O   -0.390744
    15  H    0.117181
    16  H    0.010817
    17  H   -0.005859
    18  H    0.024619
    19  N   -0.153601
    20  C    0.171842
    21  C    0.094778
    22  O   -0.303600
    23  C   -0.032608
    24  C    0.072278
    25  C   -0.095433
    26  C    0.043555
    27  N    0.080440
    28  H    0.151960
    29  H    0.012990
    30  H   -0.000237
    31  H    0.020101
    32  H    0.048760
    33  H    0.001024
    34  H    0.017352
    35  H    0.024862
    36  H    0.088410
    37  H    0.076943
    38  H    0.195117
    39  H    0.174014
    40  H    0.197794
    41  N   -0.158179
    42  C    0.081705
    43  C    0.064381
    44  O   -0.291661
    45  C    0.147218
    46  C    0.066076
    47  O   -0.438038
    48  O   -0.404221
    49  H    0.172657
    50  H    0.024797
    51  H   -0.022561
    52  H    0.000075
    53  N   -0.160901
    54  C    0.226779
    55  C    0.012491
    56  O   -0.306138
    57  H    0.128224
    58  H    0.038977
    59  H    0.030089
    60  N   -0.133459
    61  C    0.152189
    62  C    0.051838
    63  O   -0.314493
    64  C    0.126455
    65  C    0.033297
    66  N   -0.038610
    67  O   -0.328154
    68  H    0.153800
    69  H    0.031647
    70  H    0.058156
    71  H   -0.011115
    72  H    0.132601
    73  H    0.128699
    74  N   -0.106545
    75  C    0.240804
    76  C    0.027471
    77  O   -0.288920
    78  H    0.150303
    79  H    0.026488
    80  H    0.001098
    81  N   -0.116999
    82  C    0.131445
    83  C    0.125523
    84  O   -0.343640
    85  C    0.103025
    86  C    0.020376
    87  C   -0.032115
    88  C   -0.013895
    89  C   -0.028341
    90  C   -0.042799
    91  C    0.205667
    92  O   -0.209826
    93  H    0.136305
    94  H   -0.021283
    95  H    0.014896
    96  H   -0.058865
    97  H   -0.048691
    98  H   -0.011806
    99  H   -0.025919
   100  H   -0.041948
   101  H    0.177998
   102  N   -0.091086
   103  C    0.144828
   104  C    0.053320
   105  O   -0.289016
   106  C   -0.135973
   107  C    0.077055
   108  C    0.064629
   109  C   -0.019211
   110  H    0.132267
   111  H    0.016052
   112  H   -0.021221
   113  H   -0.022612
   114  H   -0.029474
   115  H    0.011457
   116  H    0.019803
   117  H   -0.000688
   118  H    0.028624
   119  H    0.055911
   120  H    0.012102
   121  N   -0.132622
   122  C    0.023977
   123  C    0.134524
   124  O   -0.267348
   125  C    0.302592
   126  O   -0.361149
   127  H    0.144665
   128  H    0.019244
   129  H   -0.063950
   130  H   -0.028620
   131  H    0.176823
   132  N   -0.116065
   133  C    0.114500
   134  C    0.067400
   135  O   -0.244620
   136  C    0.013022
   137  H    0.119838
   138  H    0.021337
   139  H    0.022832
   140  H    0.001073
   141  H    0.041346
   142  N   -0.128063
   143  C    0.083557
   144  C    0.055569
   145  O   -0.277172
   146  C    0.046811
   147  H    0.107580
   148  H    0.009904
   149  H    0.020785
   150  H    0.016088
   151  H    0.018222
   152  N   -0.123458
   153  C    0.164171
   154  C    0.067851
   155  O   -0.296226
   156  C   -0.149785
   157  C    0.155138
   158  C    0.196262
   159  O   -0.370730
   160  O   -0.460029
   161  H    0.110920
   162  H   -0.045030
   163  H    0.084115
   164  H   -0.006478
   165  H   -0.011210
   166  H   -0.029471
   167  N   -0.155535
   168  C    0.138576
   169  H    0.003665
   170  H    0.026346
   171  H    0.026837
   172  H    0.134712
   173  Ca   1.273704
   174  O   -0.277804
   175  H    0.201099
   176  H    0.177463
 Sum of Mulliken charges =   0.00000

 Dipole moment (field-independent basis, Debye):
    X=             23.4533    Y=             -3.3495    Z=             -5.8197  Tot=             24.3956
 Quadrupole moment (field-independent basis, Debye-Ang):
   XX=           -520.5974   YY=           -468.7475   ZZ=           -539.3223
   XY=            189.4619   XZ=            -70.6781   YZ=             50.8237

 ESP charges:
               1
     1  C   -0.425871
     2  C    0.743882
     3  O   -0.594291
     4  H    0.115890
     5  H    0.126774
     6  H    0.079843
     7  N   -0.653719
     8  C    0.175738
     9  C    0.546324
    10  O   -0.580073
    11  C   -0.183965
    12  C    0.895536
    13  O   -0.776835
    14  O   -0.769834
    15  H    0.351333
    16  H   -0.051043
    17  H    0.061002
    18  H    0.030298
    19  N   -0.309754
    20  C   -0.108321
    21  C    0.666459
    22  O   -0.573987
    23  C    0.191635
    24  C   -0.207653
    25  C   -0.010302
    26  C    0.164235
    27  N   -0.389779
    28  H    0.196397
    29  H    0.089706
    30  H   -0.037722
    31  H    0.020253
    32  H    0.070304
    33  H    0.080619
    34  H    0.032445
    35  H   -0.001865
    36  H    0.034418
    37  H    0.055771
    38  H    0.348175
    39  H    0.296136
    40  H    0.336958
    41  N   -0.697322
    42  C    0.095183
    43  C    0.463693
    44  O   -0.536583
    45  C   -0.180093
    46  C    0.720793
    47  O   -0.750083
    48  O   -0.731719
    49  H    0.453076
    50  H    0.105197
    51  H    0.062280
    52  H    0.041829
    53  N   -0.355785
    54  C   -0.132614
    55  C    0.512722
    56  O   -0.580553
    57  H    0.294921
    58  H    0.130319
    59  H    0.099904
    60  N   -0.239272
    61  C   -0.028121
    62  C    0.508374
    63  O   -0.576998
    64  C   -0.163318
    65  C    0.614878
    66  N   -0.796587
    67  O   -0.500149
    68  H    0.255422
    69  H    0.132762
    70  H    0.115651
    71  H    0.069907
    72  H    0.352432
    73  H    0.378677
    74  N   -0.319572
    75  C    0.016877
    76  C    0.637937
    77  O   -0.566890
    78  H    0.155557
    79  H    0.070622
    80  H    0.035825
    81  N   -0.683536
    82  C    0.357049
    83  C    0.729387
    84  O   -0.662268
    85  C   -0.409050
    86  C    0.149044
    87  C   -0.155138
    88  C   -0.134851
    89  C   -0.313473
    90  C   -0.354351
    91  C    0.467593
    92  O   -0.592037
    93  H    0.362317
    94  H   -0.012247
    95  H    0.105218
    96  H    0.102320
    97  H    0.126393
    98  H    0.162952
    99  H    0.168351
   100  H    0.150138
   101  H    0.429489
   102  N   -0.742503
   103  C    0.019600
   104  C    0.719716
   105  O   -0.589181
   106  C    0.297388
   107  C    0.037037
   108  C   -0.376906
   109  C   -0.250877
   110  H    0.356320
   111  H    0.061877
   112  H   -0.039290
   113  H   -0.006633
   114  H   -0.018488
   115  H    0.103406
   116  H    0.074027
   117  H   -0.013457
   118  H    0.099725
   119  H    0.146635
   120  H    0.073630
   121  N   -0.232776
   122  C   -0.232315
   123  C    0.518027
   124  O   -0.387475
   125  C    0.415248
   126  O   -0.676562
   127  H   -0.042077
   128  H    0.094654
   129  H   -0.077111
   130  H   -0.011757
   131  H    0.438628
   132  N   -0.493103
   133  C    0.256208
   134  C    0.442696
   135  O   -0.506441
   136  C   -0.326791
   137  H    0.301831
   138  H    0.038718
   139  H    0.097723
   140  H    0.050674
   141  H    0.116894
   142  N   -0.416220
   143  C    0.141507
   144  C    0.408063
   145  O   -0.531433
   146  C   -0.356889
   147  H    0.285526
   148  H    0.086398
   149  H    0.103805
   150  H    0.088903
   151  H    0.109986
   152  N   -0.181257
   153  C   -0.282487
   154  C    0.501223
   155  O   -0.581157
   156  C    0.174283
   157  C   -0.430407
   158  C    0.848642
   159  O   -0.650064
   160  O   -0.708856
   161  H    0.149237
   162  H    0.143285
   163  H    0.044792
   164  H    0.172676
   165  H    0.074146
   166  H    0.141726
   167  N    0.050729
   168  C   -0.280455
   169  H    0.083335
   170  H    0.104375
   171  H    0.100251
   172  H    0.070391
   173  Ca   1.583683
   174  O   -0.853491
   175  H    0.456444
   176  H    0.414791
 Sum of ESP charges =   0.00000

 Normal termination of Gaussian 09 at Mon Sep 16 22:38:56 2019.
