 Gaussian 16, Revision A.03,
 Gaussian 16:  ES64L-G16RevA.03 25-Dec-2016

 ----------------------------------------------------------------------
 #b3lyp/svp scf=(tight,noincore) Test #IOP(5/87=12) Density=Current Pop
 =(MK,readradii) iop(6/33=2) iop(6/42=6)
 ----------------------------------------------------------------------

 ------------------
 holoCaM_loop3_36.0
 ------------------
 Symbolic Z-matrix:
 Charge =  0 Multiplicity = 1

                         Standard orientation:
 ---------------------------------------------------------------------
 Center     Atomic      Atomic             Coordinates (Angstroms)
 Number     Number       Type             X           Y           Z
 ---------------------------------------------------------------------
      1          6           0        2.679070    3.857144    4.936389
      2          6           0        1.955729    3.362278    3.687356
      3          8           0        2.683408    2.944071    2.793942
      4          1           0        2.844626    4.931629    4.857977
      5          1           0        2.070880    3.647734    5.816765
      6          1           0        3.638151    3.347712    5.027579
      7          7           0        0.632984    3.384442    3.509160
      8          6           0       -0.096621    3.025629    2.316251
      9          6           0       -0.088894    4.255806    1.421430
     10          8           0       -0.439447    5.338003    1.887651
     11          6           0       -1.497336    2.625047    2.767504
     12          6           0       -2.226120    2.011493    1.572169
     13          8           0       -3.415913    1.690761    1.789252
     14          8           0       -1.653305    1.917798    0.475262
     15          1           0        0.030152    3.603023    4.301760
     16          1           0        0.463685    2.180434    1.890456
     17          1           0       -1.842273    3.560793    3.197386
     18          1           0       -1.418341    1.981448    3.639822
     19          7           0        0.388417    4.069686    0.186912
     20          6           0        0.746042    5.097382   -0.762427
     21          6           0       -0.260895    5.360974   -1.864787
     22          8           0       -0.303844    6.492758   -2.337885
     23          6           0        2.064592    4.605657   -1.361788
     24          6           0        3.131341    4.282469   -0.329221
     25          6           0        3.431457    5.569158    0.442636
     26          6           0        4.666442    5.551312    1.332857
     27          7           0        4.862561    6.896732    1.879467
     28          1           0        0.562157    3.085158   -0.001284
     29          1           0        0.928355    6.059805   -0.276008
     30          1           0        2.465663    5.323170   -2.083534
     31          1           0        1.888670    3.702354   -1.953393
     32          1           0        3.982126    3.839009   -0.837657
     33          1           0        2.684024    3.593527    0.385809
     34          1           0        2.605399    5.899644    1.074464
     35          1           0        3.643100    6.373026   -0.260146
     36          1           0        5.546717    5.225877    0.766105
     37          1           0        4.483108    4.766816    2.072015
     38          1           0        4.031745    7.327385    2.255476
     39          1           0        5.493443    6.790758    2.668238
     40          1           0        5.377130    7.471445    1.227912
     41          7           0       -1.215598    4.448164   -2.092647
     42          6           0       -2.449417    4.588333   -2.842742
     43          6           0       -3.688629    4.592183   -1.976578
     44          8           0       -4.775179    4.942512   -2.444636
     45          6           0       -2.569970    3.631966   -4.026477
     46          6           0       -2.353479    2.159301   -3.726825
     47          8           0       -2.469740    1.805189   -2.526830
     48          8           0       -2.251813    1.337878   -4.660542
     49          1           0       -1.192699    3.598272   -1.547891
     50          1           0       -2.448317    5.583939   -3.305090
     51          1           0       -1.835812    3.870235   -4.807207
     52          1           0       -3.525401    3.902418   -4.471569
     53          7           0       -3.742999    4.050003   -0.752084
     54          6           0       -4.939825    3.898326    0.053957
     55          6           0       -5.937916    2.794483   -0.285814
     56          8           0       -7.081618    2.925219    0.149795
     57          1           0       -2.910712    3.596346   -0.402236
     58          1           0       -5.447699    4.865212    0.085491
     59          1           0       -4.659040    3.713908    1.088244
     60          7           0       -5.539452    1.720296   -0.958530
     61          6           0       -6.418142    0.594844   -1.214776
     62          6           0       -6.801840   -0.211524    0.021851
     63          8           0       -7.666690   -1.076686   -0.026409
     64          6           0       -5.761352   -0.247608   -2.308166
     65          6           0       -4.649169   -1.217507   -1.942457
     66          7           0       -4.560331   -2.307497   -2.709418
     67          8           0       -3.740520   -0.954234   -1.167896
     68          1           0       -4.590784    1.781464   -1.289571
     69          1           0       -7.372962    0.981169   -1.543365
     70          1           0       -5.365444    0.363058   -3.106443
     71          1           0       -6.602232   -0.827117   -2.705895
     72          1           0       -5.305588   -2.541275   -3.351944
     73          1           0       -3.756582   -2.921515   -2.636824
     74          7           0       -6.076440   -0.060029    1.136007
     75          6           0       -6.243266   -0.828964    2.348859
     76          6           0       -5.131348   -1.834375    2.609980
     77          8           0       -5.200818   -2.466411    3.660411
     78          1           0       -5.715290    0.880766    1.192370
     79          1           0       -7.099819   -1.498338    2.272344
     80          1           0       -6.313327   -0.123464    3.182263
     81          7           0       -4.146169   -2.097269    1.735846
     82          6           0       -3.111867   -3.096671    1.916720
     83          6           0       -1.738400   -2.556182    1.563364
     84          8           0       -1.539474   -2.023375    0.465027
     85          6           0       -3.409639   -4.476319    1.343744
     86          6           0       -4.768293   -4.788066    0.766532
     87          6           0       -4.877533   -4.771208   -0.628166
     88          6           0       -5.855388   -5.205553    1.532515
     89          6           0       -6.119859   -5.066851   -1.208272
     90          6           0       -7.072152   -5.595878    0.969196
     91          6           0       -7.222934   -5.446105   -0.422721
     92          8           0       -8.427821   -5.822231   -0.947866
     93          1           0       -4.059820   -1.433885    0.985469
     94          1           0       -3.086885   -3.225824    2.996950
     95          1           0       -3.283808   -5.247516    2.110113
     96          1           0       -2.745551   -4.620332    0.491249
     97          1           0       -4.080839   -4.413905   -1.273544
     98          1           0       -5.775518   -5.087128    2.603121
     99          1           0       -6.221095   -4.842374   -2.266176
    100          1           0       -7.935497   -5.978882    1.487699
    101          1           0       -9.021210   -6.111077   -0.249757
    102          7           0       -0.693038   -2.751367    2.379465
    103          6           0        0.696941   -2.474790    2.085079
    104          6           0        1.364589   -3.643161    1.376732
    105          8           0        1.284268   -4.839390    1.650202
    106          6           0        1.339232   -1.992890    3.390351
    107          6           0        0.923310   -0.577993    3.771500
    108          6           0        2.859034   -2.130919    3.311947
    109          6           0        1.051683   -0.329243    5.271015
    110          1           0       -0.856740   -3.373229    3.154184
    111          1           0        0.767908   -1.616399    1.421508
    112          1           0        1.045578   -2.709255    4.151593
    113          1           0       -0.112398   -0.428870    3.467244
    114          1           0        1.525755    0.135885    3.211109
    115          1           0        3.299314   -3.046708    2.920942
    116          1           0        3.247507   -1.227049    2.844391
    117          1           0        3.241703   -2.122890    4.329395
    118          1           0        0.787325   -1.191280    5.880857
    119          1           0        2.080596   -0.116632    5.552858
    120          1           0        0.531845    0.561365    5.641131
    121          7           0        2.096289   -3.234075    0.342003
    122          6           0        2.741476   -4.096115   -0.635708
    123          6           0        4.256179   -3.975767   -0.517860
    124          8           0        4.840098   -3.224743    0.249671
    125          6           0        2.225959   -3.798204   -2.042581
    126          8           0        2.555636   -2.511851   -2.503131
    127          1           0        1.854146   -2.281313    0.091780
    128          1           0        2.438933   -5.130583   -0.481617
    129          1           0        1.138422   -3.910701   -2.015976
    130          1           0        2.728212   -4.543276   -2.655206
    131          1           0        1.774279   -1.975979   -2.317866
    132          7           0        4.962712   -4.776523   -1.314793
    133          6           0        6.399694   -4.927143   -1.129602
    134          6           0        7.221075   -3.669994   -1.407465
    135          8           0        8.124294   -3.252376   -0.683385
    136          6           0        6.836906   -6.084692   -2.021749
    137          1           0        4.488117   -5.389731   -1.965896
    138          1           0        6.541814   -5.254031   -0.103958
    139          1           0        6.701199   -5.780489   -3.054049
    140          1           0        7.867807   -6.301204   -1.732844
    141          1           0        6.242138   -6.974457   -1.786018
    142          7           0        6.823868   -2.894988   -2.418253
    143          6           0        7.458075   -1.631158   -2.718945
    144          6           0        7.104245   -0.512700   -1.733422
    145          8           0        7.973831    0.334099   -1.527871
    146          6           0        7.026265   -1.210173   -4.119056
    147          1           0        6.196846   -3.272698   -3.117380
    148          1           0        8.541579   -1.694414   -2.676304
    149          1           0        5.942716   -1.297243   -4.205312
    150          1           0        7.511848   -0.303951   -4.471009
    151          1           0        7.395955   -2.009531   -4.764544
    152          7           0        5.889385   -0.562248   -1.187658
    153          6           0        5.579500    0.456989   -0.197240
    154          6           0        6.329363    0.146064    1.089163
    155          8           0        6.517416    1.139980    1.774267
    156          6           0        4.074868    0.456691    0.066732
    157          6           0        3.170312    0.809758   -1.121722
    158          6           0        1.729490    0.420453   -0.837695
    159          8           0        0.897786    1.351262   -0.754848
    160          8           0        1.210101   -0.716022   -0.845382
    161          1           0        5.320136   -1.365856   -1.416283
    162          1           0        5.890885    1.437893   -0.535865
    163          1           0        3.853756    1.149397    0.873309
    164          1           0        3.756687   -0.476414    0.536387
    165          1           0        3.551722    0.266065   -1.981213
    166          1           0        3.290037    1.874889   -1.301061
    167          7           0        6.788008   -1.081756    1.358611
    168          6           0        7.497276   -1.319333    2.596309
    169          1           0        7.422451   -0.437320    3.232205
    170          1           0        7.057751   -2.174731    3.109397
    171          1           0        8.546127   -1.524431    2.381335
    172          1           0        6.483196   -1.920282    0.887801
    173         20           0       -1.265411   -0.005447   -1.235284
    174          8           0       -0.171814    0.264555   -3.700917
    175          1           0        0.444433   -0.115651   -4.335411
    176          1           0       -0.859240    0.656106   -4.240392
 ---------------------------------------------------------------------

 SCF Done:  E(RB3LYP) =  -5333.61335756     A.U. after   15 cycles

 The electronic state is 1-A.
 Alpha  occ. eigenvalues -- -145.37615 -19.15426 -19.14727 -19.12964 -19.12902
 Alpha  occ. eigenvalues --  -19.12587 -19.11980 -19.10931 -19.10527 -19.10501
 Alpha  occ. eigenvalues --  -19.09758 -19.08636 -19.08514 -19.08296 -19.07229
 Alpha  occ. eigenvalues --  -19.07057 -19.07022 -19.06931 -19.06723 -19.06237
 Alpha  occ. eigenvalues --  -19.05511 -19.05349 -19.04894 -19.03559 -15.43380
 Alpha  occ. eigenvalues --  -14.57213 -14.38611 -14.37821 -14.37571 -14.37112
 Alpha  occ. eigenvalues --  -14.36101 -14.34757 -14.34662 -14.33361 -14.33161
 Alpha  occ. eigenvalues --  -14.33070 -14.32634 -14.32130 -14.32012 -14.31007
 Alpha  occ. eigenvalues --  -12.56994 -12.56958 -12.56937 -10.31804 -10.31600
 Alpha  occ. eigenvalues --  -10.31059 -10.30985 -10.29811 -10.29678 -10.28779
 Alpha  occ. eigenvalues --  -10.28258 -10.26998 -10.26516 -10.26413 -10.26040
 Alpha  occ. eigenvalues --  -10.26027 -10.25920 -10.25882 -10.25577 -10.25301
 Alpha  occ. eigenvalues --  -10.24831 -10.24719 -10.24599 -10.24534 -10.24268
 Alpha  occ. eigenvalues --  -10.24157 -10.23611 -10.23454 -10.23184 -10.22510
 Alpha  occ. eigenvalues --  -10.22301 -10.22170 -10.22120 -10.21754 -10.21514
 Alpha  occ. eigenvalues --  -10.20774 -10.20629 -10.20619 -10.20423 -10.20182
 Alpha  occ. eigenvalues --  -10.19934 -10.19766 -10.19346 -10.19227 -10.19005
 Alpha  occ. eigenvalues --  -10.18997 -10.18690 -10.18567 -10.18485 -10.18485
 Alpha  occ. eigenvalues --  -10.18453 -10.18369 -10.18350 -10.18259 -10.17281
 Alpha  occ. eigenvalues --  -10.17043 -10.15858  -1.80242  -1.12420  -1.08079
 Alpha  occ. eigenvalues --   -1.07797  -1.07648  -1.06505  -1.05874  -1.05226
 Alpha  occ. eigenvalues --   -1.05000  -1.04181  -1.04132  -1.04028  -1.03339
 Alpha  occ. eigenvalues --   -1.02517  -1.01663  -1.01240  -1.01129  -1.00754
 Alpha  occ. eigenvalues --   -1.00340  -1.00164  -1.00045  -0.99790  -0.98906
 Alpha  occ. eigenvalues --   -0.98233  -0.98095  -0.95539  -0.94054  -0.93533
 Alpha  occ. eigenvalues --   -0.93502  -0.92565  -0.92556  -0.92092  -0.91739
 Alpha  occ. eigenvalues --   -0.91461  -0.90957  -0.90353  -0.89860  -0.89755
 Alpha  occ. eigenvalues --   -0.89336  -0.89206  -0.88396  -0.86481  -0.86236
 Alpha  occ. eigenvalues --   -0.84500  -0.82663  -0.81692  -0.80092  -0.79433
 Alpha  occ. eigenvalues --   -0.78545  -0.78168  -0.77943  -0.77769  -0.77272
 Alpha  occ. eigenvalues --   -0.75620  -0.74861  -0.74083  -0.73899  -0.73535
 Alpha  occ. eigenvalues --   -0.73202  -0.72412  -0.72355  -0.71583  -0.70847
 Alpha  occ. eigenvalues --   -0.70272  -0.69408  -0.68655  -0.67887  -0.67051
 Alpha  occ. eigenvalues --   -0.66935  -0.66708  -0.65635  -0.65166  -0.64773
 Alpha  occ. eigenvalues --   -0.64231  -0.63506  -0.62725  -0.61852  -0.61531
 Alpha  occ. eigenvalues --   -0.61204  -0.60985  -0.60881  -0.60671  -0.60238
 Alpha  occ. eigenvalues --   -0.58924  -0.58714  -0.58515  -0.58422  -0.57818
 Alpha  occ. eigenvalues --   -0.57267  -0.57208  -0.57090  -0.56855  -0.56624
 Alpha  occ. eigenvalues --   -0.56169  -0.56014  -0.55533  -0.55024  -0.54944
 Alpha  occ. eigenvalues --   -0.54400  -0.54163  -0.53965  -0.53906  -0.53714
 Alpha  occ. eigenvalues --   -0.53131  -0.52667  -0.52480  -0.52131  -0.51879
 Alpha  occ. eigenvalues --   -0.51623  -0.51230  -0.50846  -0.50136  -0.49916
 Alpha  occ. eigenvalues --   -0.49771  -0.49727  -0.49456  -0.49349  -0.49195
 Alpha  occ. eigenvalues --   -0.49037  -0.48907  -0.48861  -0.48524  -0.48374
 Alpha  occ. eigenvalues --   -0.47593  -0.47288  -0.47243  -0.46716  -0.46635
 Alpha  occ. eigenvalues --   -0.46409  -0.46402  -0.46278  -0.46057  -0.46029
 Alpha  occ. eigenvalues --   -0.45732  -0.45421  -0.45332  -0.45273  -0.44758
 Alpha  occ. eigenvalues --   -0.44705  -0.44614  -0.44235  -0.44122  -0.44048
 Alpha  occ. eigenvalues --   -0.44003  -0.43729  -0.43489  -0.43289  -0.43090
 Alpha  occ. eigenvalues --   -0.42988  -0.42899  -0.42775  -0.42666  -0.42633
 Alpha  occ. eigenvalues --   -0.42556  -0.42397  -0.42245  -0.41937  -0.41909
 Alpha  occ. eigenvalues --   -0.41681  -0.41648  -0.41410  -0.41285  -0.41185
 Alpha  occ. eigenvalues --   -0.41064  -0.41059  -0.40982  -0.40739  -0.40692
 Alpha  occ. eigenvalues --   -0.40495  -0.40392  -0.40194  -0.39995  -0.39893
 Alpha  occ. eigenvalues --   -0.39797  -0.39541  -0.39350  -0.39240  -0.39136
 Alpha  occ. eigenvalues --   -0.39049  -0.38880  -0.38795  -0.38518  -0.38465
 Alpha  occ. eigenvalues --   -0.38430  -0.38233  -0.37888  -0.37870  -0.37549
 Alpha  occ. eigenvalues --   -0.37446  -0.37424  -0.37317  -0.37163  -0.36930
 Alpha  occ. eigenvalues --   -0.36728  -0.36703  -0.36529  -0.36277  -0.36216
 Alpha  occ. eigenvalues --   -0.36139  -0.36094  -0.35910  -0.35624  -0.35299
 Alpha  occ. eigenvalues --   -0.35212  -0.34871  -0.34677  -0.34499  -0.34411
 Alpha  occ. eigenvalues --   -0.34171  -0.33714  -0.33543  -0.33520  -0.33346
 Alpha  occ. eigenvalues --   -0.33205  -0.33011  -0.32978  -0.32752  -0.32421
 Alpha  occ. eigenvalues --   -0.31978  -0.31728  -0.30596  -0.30505  -0.30462
 Alpha  occ. eigenvalues --   -0.30351  -0.29536  -0.28823  -0.28647  -0.28625
 Alpha  occ. eigenvalues --   -0.28507  -0.27791  -0.27670  -0.27202  -0.26772
 Alpha  occ. eigenvalues --   -0.26468  -0.26380  -0.26241  -0.26035  -0.25310
 Alpha  occ. eigenvalues --   -0.25227  -0.25101  -0.24903  -0.24741  -0.24491
 Alpha  occ. eigenvalues --   -0.24427  -0.24176  -0.23879  -0.23851  -0.23826
 Alpha  occ. eigenvalues --   -0.23610  -0.23511  -0.23308  -0.22554  -0.22449
 Alpha  occ. eigenvalues --   -0.22270  -0.22087  -0.21699  -0.21456  -0.21351
 Alpha  occ. eigenvalues --   -0.20512  -0.19959  -0.19580
 Alpha virt. eigenvalues --   -0.09357  -0.03659  -0.03005  -0.02289  -0.01431
 Alpha virt. eigenvalues --   -0.01236  -0.01089  -0.00514  -0.00406   0.00384
 Alpha virt. eigenvalues --    0.00596   0.01007   0.01203   0.01548   0.01727

 Mulliken charges:
               1
     1  C    0.067700
     2  C    0.022515
     3  O   -0.307669
     4  H    0.003070
     5  H    0.018444
     6  H    0.044296
     7  N   -0.104757
     8  C    0.061887
     9  C    0.069422
    10  O   -0.297683
    11  C    0.027102
    12  C    0.174189
    13  O   -0.369347
    14  O   -0.457338
    15  H    0.117001
    16  H    0.009384
    17  H    0.008360
    18  H    0.003983
    19  N   -0.164072
    20  C    0.117509
    21  C    0.085655
    22  O   -0.283281
    23  C   -0.012028
    24  C    0.055716
    25  C   -0.085750
    26  C    0.013447
    27  N    0.091601
    28  H    0.191640
    29  H    0.001927
    30  H   -0.001456
    31  H    0.016215
    32  H    0.023191
    33  H    0.051940
    34  H    0.041612
    35  H   -0.012496
    36  H    0.073674
    37  H    0.093707
    38  H    0.192889
    39  H    0.186111
    40  H    0.193768
    41  N   -0.155121
    42  C    0.146772
    43  C    0.058161
    44  O   -0.300123
    45  C    0.076099
    46  C    0.147174
    47  O   -0.471865
    48  O   -0.389732
    49  H    0.148937
    50  H    0.016051
    51  H    0.001630
    52  H    0.032129
    53  N   -0.165337
    54  C    0.236523
    55  C    0.010196
    56  O   -0.304826
    57  H    0.131276
    58  H    0.016430
    59  H    0.028976
    60  N   -0.157535
    61  C    0.198863
    62  C    0.014300
    63  O   -0.276492
    64  C    0.023682
    65  C    0.096842
    66  N   -0.042103
    67  O   -0.343178
    68  H    0.142660
    69  H    0.026843
    70  H    0.074511
    71  H    0.019412
    72  H    0.138866
    73  H    0.134245
    74  N   -0.170091
    75  C    0.253729
    76  C    0.022236
    77  O   -0.314574
    78  H    0.152189
    79  H    0.045344
    80  H    0.042594
    81  N   -0.147530
    82  C    0.170269
    83  C    0.114050
    84  O   -0.390420
    85  C    0.185966
    86  C   -0.056759
    87  C    0.000095
    88  C    0.021234
    89  C   -0.031345
    90  C   -0.023794
    91  C    0.176743
    92  O   -0.196285
    93  H    0.150961
    94  H   -0.015155
    95  H    0.009492
    96  H   -0.014665
    97  H   -0.077235
    98  H   -0.010554
    99  H   -0.049332
   100  H   -0.045992
   101  H    0.173466
   102  N   -0.098715
   103  C    0.137256
   104  C    0.045827
   105  O   -0.278283
   106  C   -0.123179
   107  C    0.027729
   108  C    0.068197
   109  C    0.026195
   110  H    0.127649
   111  H    0.006815
   112  H   -0.021282
   113  H    0.011017
   114  H    0.029987
   115  H    0.034378
   116  H    0.017176
   117  H   -0.012707
   118  H    0.006396
   119  H   -0.001818
   120  H   -0.001907
   121  N   -0.146357
   122  C    0.088800
   123  C    0.121691
   124  O   -0.264359
   125  C    0.221324
   126  O   -0.326747
   127  H    0.140658
   128  H    0.023125
   129  H    0.017980
   130  H   -0.028405
   131  H    0.171602
   132  N   -0.143986
   133  C    0.081589
   134  C    0.081484
   135  O   -0.258963
   136  C    0.027554
   137  H    0.116645
   138  H    0.016419
   139  H    0.010400
   140  H    0.044802
   141  H    0.029711
   142  N   -0.137793
   143  C    0.088251
   144  C    0.065289
   145  O   -0.279140
   146  C    0.046168
   147  H    0.104339
   148  H    0.016569
   149  H    0.011277
   150  H    0.039503
   151  H    0.002472
   152  N   -0.166879
   153  C    0.186913
   154  C    0.067766
   155  O   -0.302439
   156  C   -0.083636
   157  C    0.168870
   158  C    0.179910
   159  O   -0.408207
   160  O   -0.460909
   161  H    0.134448
   162  H   -0.011968
   163  H    0.026770
   164  H    0.009615
   165  H   -0.009709
   166  H   -0.027864
   167  N   -0.157107
   168  C    0.120581
   169  H    0.025536
   170  H    0.010272
   171  H    0.027339
   172  H    0.144783
   173  Ca   1.304145
   174  O   -0.333087
   175  H    0.166658
   176  H    0.154584
 Sum of Mulliken charges =  -0.00000

 Dipole moment (field-independent basis, Debye):
    X=             23.0586    Y=              1.2855    Z=              3.2491  Tot=             23.3219
 Quadrupole moment (field-independent basis, Debye-Ang):
   XX=           -630.7729   YY=           -437.6872   ZZ=           -530.1972
   XY=            143.8023   XZ=             12.5328   YZ=            104.6113

 ESP charges:
               1
     1  C   -0.456851
     2  C    0.869928
     3  O   -0.625639
     4  H    0.108788
     5  H    0.102308
     6  H    0.136424
     7  N   -0.858096
     8  C    0.453541
     9  C    0.493744
    10  O   -0.585092
    11  C   -0.197134
    12  C    0.712923
    13  O   -0.712860
    14  O   -0.725012
    15  H    0.368253
    16  H   -0.138314
    17  H    0.055681
    18  H    0.049608
    19  N   -0.141847
    20  C   -0.273250
    21  C    0.700958
    22  O   -0.574660
    23  C   -0.077610
    24  C   -0.014641
    25  C   -0.107697
    26  C    0.262028
    27  N   -0.565043
    28  H    0.365757
    29  H    0.116086
    30  H    0.047449
    31  H    0.039077
    32  H    0.053591
    33  H   -0.031205
    34  H    0.069225
    35  H    0.025165
    36  H    0.037813
    37  H    0.014691
    38  H    0.380943
    39  H    0.353733
    40  H    0.377741
    41  N   -0.582011
    42  C    0.246733
    43  C    0.390554
    44  O   -0.543789
    45  C   -0.207496
    46  C    0.793869
    47  O   -0.724209
    48  O   -0.711162
    49  H    0.258227
    50  H    0.054902
    51  H    0.043666
    52  H    0.071381
    53  N   -0.081305
    54  C   -0.366128
    55  C    0.736542
    56  O   -0.610742
    57  H    0.064104
    58  H    0.144866
    59  H    0.164031
    60  N   -0.516758
    61  C    0.258056
    62  C    0.301409
    63  O   -0.514558
    64  C   -0.512574
    65  C    0.944059
    66  N   -0.838301
    67  O   -0.775962
    68  H    0.281966
    69  H    0.082570
    70  H    0.194577
    71  H    0.114266
    72  H    0.372801
    73  H    0.382346
    74  N   -0.009450
    75  C   -0.326270
    76  C    0.671931
    77  O   -0.602943
    78  H    0.207967
    79  H    0.154439
    80  H    0.138449
    81  N   -0.543207
    82  C    0.455742
    83  C    0.581962
    84  O   -0.565707
    85  C   -0.222924
    86  C    0.171481
    87  C   -0.210252
    88  C   -0.143836
    89  C   -0.305778
    90  C   -0.342775
    91  C    0.461148
    92  O   -0.575432
    93  H    0.239556
    94  H   -0.028073
    95  H    0.040725
    96  H    0.037914
    97  H    0.130971
    98  H    0.158740
    99  H    0.160916
   100  H    0.151666
   101  H    0.414655
   102  N   -0.742103
   103  C    0.026619
   104  C    0.605153
   105  O   -0.573427
   106  C    0.158760
   107  C    0.087839
   108  C   -0.383612
   109  C   -0.338463
   110  H    0.351657
   111  H    0.058034
   112  H    0.032534
   113  H    0.027247
   114  H    0.081102
   115  H    0.116316
   116  H    0.058017
   117  H    0.090195
   118  H    0.077108
   119  H    0.074875
   120  H    0.084152
   121  N   -0.302203
   122  C    0.032890
   123  C    0.550271
   124  O   -0.513283
   125  C    0.071077
   126  O   -0.565819
   127  H    0.222255
   128  H    0.049354
   129  H    0.045816
   130  H    0.029642
   131  H    0.387839
   132  N   -0.491083
   133  C    0.192985
   134  C    0.473902
   135  O   -0.532951
   136  C   -0.330687
   137  H    0.296846
   138  H    0.068606
   139  H    0.071234
   140  H    0.113796
   141  H    0.101717
   142  N   -0.443561
   143  C    0.182235
   144  C    0.313924
   145  O   -0.505410
   146  C   -0.379984
   147  H    0.307804
   148  H    0.088100
   149  H    0.085122
   150  H    0.147879
   151  H    0.078015
   152  N   -0.006765
   153  C   -0.534309
   154  C    0.671198
   155  O   -0.594468
   156  C    0.275548
   157  C   -0.079143
   158  C    0.798243
   159  O   -0.762502
   160  O   -0.710108
   161  H    0.155865
   162  H    0.198342
   163  H    0.026890
   164  H   -0.130136
   165  H   -0.018119
   166  H    0.029452
   167  N   -0.185348
   168  C   -0.201939
   169  H    0.087594
   170  H    0.075534
   171  H    0.090141
   172  H    0.231932
   173  Ca   1.587643
   174  O   -0.921522
   175  H    0.420339
   176  H    0.429252
 Sum of ESP charges =   0.00000

 Normal termination of Gaussian 16 at Wed Sep 18 17:54:43 2019.
