 Gaussian 16, Revision A.03,
 Gaussian 16:  ES64L-G16RevA.03 25-Dec-2016

 ----------------------------------------------------------------------
 #b3lyp/svp scf=(tight,noincore) Test #IOP(5/87=12) Density=Current Pop
 =(MK,readradii) iop(6/33=2) iop(6/42=6)
 ----------------------------------------------------------------------

 ------------------
 holoCaM_loop3_44.0
 ------------------
 Symbolic Z-matrix:
 Charge =  0 Multiplicity = 1

                         Standard orientation:
 ---------------------------------------------------------------------
 Center     Atomic      Atomic             Coordinates (Angstroms)
 Number     Number       Type             X           Y           Z
 ---------------------------------------------------------------------
      1          6           0        1.770733    3.665874    4.930268
      2          6           0        1.146019    3.127141    3.640927
      3          8           0        1.934369    2.824952    2.741324
      4          1           0        2.339013    4.569598    4.708046
      5          1           0        0.982910    3.899049    5.646358
      6          1           0        2.436452    2.913363    5.354111
      7          7           0       -0.170823    2.930385    3.579150
      8          6           0       -0.838677    2.659599    2.323624
      9          6           0       -0.990138    3.946993    1.516668
     10          8           0       -1.909195    4.729437    1.720663
     11          6           0       -2.139210    1.924234    2.611466
     12          6           0       -2.929461    1.449698    1.400714
     13          8           0       -4.089154    1.006121    1.578903
     14          8           0       -2.415930    1.629550    0.281769
     15          1           0       -0.702120    2.895271    4.439377
     16          1           0       -0.181112    1.971035    1.787351
     17          1           0       -2.752455    2.558950    3.258355
     18          1           0       -2.044080    1.024446    3.214733
     19          7           0       -0.197706    4.181900    0.459232
     20          6           0       -0.003324    5.401704   -0.299514
     21          6           0       -1.027475    5.586650   -1.415538
     22          8           0       -1.250612    6.715224   -1.848009
     23          6           0        1.388854    5.406408   -0.914671
     24          6           0        2.519048    5.081534    0.055493
     25          6           0        2.691238    6.028323    1.236611
     26          6           0        3.913227    5.696757    2.098937
     27          7           0        3.901706    6.602538    3.252336
     28          1           0        0.477494    3.451708    0.275317
     29          1           0       -0.076680    6.189551    0.449696
     30          1           0        1.530391    6.324852   -1.476211
     31          1           0        1.413442    4.673131   -1.720836
     32          1           0        3.467049    5.149077   -0.465019
     33          1           0        2.476363    4.094071    0.532981
     34          1           0        1.837116    6.037118    1.916683
     35          1           0        2.927569    7.002339    0.805171
     36          1           0        4.800304    5.877631    1.489857
     37          1           0        3.867409    4.655612    2.424082
     38          1           0        4.253616    7.502448    2.958190
     39          1           0        2.939729    6.658949    3.559447
     40          1           0        4.534911    6.283407    3.968791
     41          7           0       -1.712128    4.556734   -1.905663
     42          6           0       -2.792386    4.584276   -2.875140
     43          6           0       -4.137768    4.212786   -2.251167
     44          8           0       -5.137370    4.018783   -2.929590
     45          6           0       -2.415392    3.842176   -4.149527
     46          6           0       -1.863801    2.449873   -3.887539
     47          8           0       -2.094260    1.884662   -2.790258
     48          8           0       -1.267021    1.787304   -4.766491
     49          1           0       -1.609280    3.709208   -1.369545
     50          1           0       -2.850648    5.620705   -3.206984
     51          1           0       -1.655267    4.411539   -4.686775
     52          1           0       -3.302286    3.668611   -4.757388
     53          7           0       -4.131426    4.012093   -0.924863
     54          6           0       -5.296629    3.834846   -0.072406
     55          6           0       -5.971101    2.512706   -0.410538
     56          8           0       -7.169618    2.439463   -0.158558
     57          1           0       -3.243739    4.197136   -0.501576
     58          1           0       -6.037975    4.620409   -0.228284
     59          1           0       -4.972532    3.823055    0.960900
     60          7           0       -5.354341    1.512041   -1.033576
     61          6           0       -6.047625    0.371876   -1.595609
     62          6           0       -6.407418   -0.721449   -0.595114
     63          8           0       -6.896203   -1.769117   -1.025905
     64          6           0       -5.246715   -0.101462   -2.808660
     65          6           0       -4.086443   -1.032180   -2.476343
     66          7           0       -3.559881   -1.806254   -3.424837
     67          8           0       -3.547912   -1.092568   -1.381749
     68          1           0       -4.336413    1.487656   -1.008506
     69          1           0       -6.992694    0.690427   -2.019248
     70          1           0       -4.788885    0.690765   -3.403780
     71          1           0       -5.917223   -0.665209   -3.443648
     72          1           0       -3.918892   -1.744963   -4.368529
     73          1           0       -2.892677   -2.500677   -3.121661
     74          7           0       -6.052987   -0.505630    0.672442
     75          6           0       -6.397085   -1.361978    1.784721
     76          6           0       -5.288073   -2.311180    2.209939
     77          8           0       -5.590187   -2.987888    3.200290
     78          1           0       -5.391476    0.225768    0.866509
     79          1           0       -7.235239   -1.999769    1.522576
     80          1           0       -6.777338   -0.822481    2.655324
     81          7           0       -4.101572   -2.258626    1.591998
     82          6           0       -2.950054   -3.094068    1.873856
     83          6           0       -1.616447   -2.382445    1.715792
     84          8           0       -1.558063   -1.323397    1.093290
     85          6           0       -2.967706   -4.226076    0.855256
     86          6           0       -4.265599   -4.959948    0.578659
     87          6           0       -5.005219   -4.585322   -0.553604
     88          6           0       -4.667095   -5.958614    1.473794
     89          6           0       -6.252247   -5.172546   -0.738510
     90          6           0       -5.937918   -6.502086    1.284463
     91          6           0       -6.734680   -6.137327    0.181139
     92          8           0       -7.923393   -6.776278    0.007353
     93          1           0       -4.052088   -1.647105    0.795886
     94          1           0       -3.169783   -3.607730    2.812936
     95          1           0       -2.261018   -5.002967    1.170268
     96          1           0       -2.736081   -3.824874   -0.129775
     97          1           0       -4.598251   -3.845217   -1.232368
     98          1           0       -4.096660   -6.327708    2.304982
     99          1           0       -6.942068   -4.921276   -1.527694
    100          1           0       -6.333642   -7.185659    2.032347
    101          1           0       -7.929070   -7.533271    0.598479
    102          7           0       -0.553319   -3.080153    2.094689
    103          6           0        0.782507   -2.554001    1.853585
    104          6           0        1.623394   -3.498703    1.007981
    105          8           0        1.652234   -4.704757    1.244632
    106          6           0        1.532084   -2.234756    3.148776
    107          6           0        0.882106   -1.130901    3.976382
    108          6           0        2.943488   -1.713113    2.886045
    109          6           0        1.353420   -1.067252    5.415935
    110          1           0       -0.592733   -3.927992    2.646972
    111          1           0        0.761515   -1.579961    1.359819
    112          1           0        1.538430   -3.128565    3.768829
    113          1           0       -0.194276   -1.235257    4.009695
    114          1           0        0.982320   -0.104230    3.622399
    115          1           0        3.576197   -2.525516    2.524547
    116          1           0        2.832931   -0.980829    2.088087
    117          1           0        3.383843   -1.385068    3.829375
    118          1           0        1.366306   -2.036257    5.912689
    119          1           0        2.344948   -0.623951    5.551786
    120          1           0        0.741097   -0.350889    5.961174
    121          7           0        2.404196   -2.908585    0.090153
    122          6           0        3.273735   -3.561180   -0.868817
    123          6           0        4.763546   -3.571905   -0.556974
    124          8           0        5.173327   -2.784731    0.299376
    125          6           0        2.981709   -3.008052   -2.258950
    126          8           0        3.815064   -1.886812   -2.456538
    127          1           0        2.345267   -1.907992    0.017760
    128          1           0        2.975312   -4.612302   -0.911085
    129          1           0        1.931100   -2.741530   -2.245264
    130          1           0        3.147119   -3.748894   -3.038433
    131          1           0        3.433047   -1.250454   -3.059540
    132          7           0        5.471189   -4.463970   -1.250344
    133          6           0        6.912235   -4.593404   -1.172018
    134          6           0        7.557318   -3.283266   -1.562921
    135          8           0        8.515611   -2.862849   -0.909604
    136          6           0        7.353004   -5.756093   -2.066488
    137          1           0        5.071867   -5.103676   -1.925190
    138          1           0        7.215661   -4.964621   -0.191492
    139          1           0        8.419562   -5.920993   -1.906915
    140          1           0        6.734618   -6.613707   -1.796862
    141          1           0        7.021198   -5.599625   -3.096790
    142          7           0        7.061435   -2.487564   -2.509207
    143          6           0        7.525944   -1.156865   -2.855722
    144          6           0        7.319082   -0.110161   -1.766999
    145          8           0        8.274003    0.596757   -1.471880
    146          6           0        6.991884   -0.695431   -4.212505
    147          1           0        6.151256   -2.706920   -2.902217
    148          1           0        8.599577   -1.258015   -2.985262
    149          1           0        5.911064   -0.602125   -4.189674
    150          1           0        7.436370    0.272242   -4.470074
    151          1           0        7.364541   -1.406075   -4.949127
    152          7           0        6.136510   -0.003028   -1.173243
    153          6           0        5.660944    0.901224   -0.138418
    154          6           0        6.389318    0.729984    1.189569
    155          8           0        6.638418    1.743936    1.830156
    156          6           0        4.175674    0.642608    0.116514
    157          6           0        3.266732    1.196740   -0.974431
    158          6           0        1.782377    0.917357   -0.748959
    159          8           0        0.892367    1.777106   -0.931202
    160          8           0        1.452946   -0.239707   -0.428991
    161          1           0        5.530437   -0.794023   -1.350731
    162          1           0        5.824180    1.929144   -0.457379
    163          1           0        3.867853    1.100253    1.053855
    164          1           0        4.076261   -0.443450    0.037171
    165          1           0        3.574168    0.890919   -1.967888
    166          1           0        3.438197    2.274018   -1.052984
    167          7           0        6.876453   -0.482393    1.475473
    168          6           0        7.659616   -0.709631    2.678310
    169          1           0        7.430283    0.062478    3.412381
    170          1           0        7.414748   -1.687272    3.092693
    171          1           0        8.720851   -0.673451    2.434271
    172          1           0        6.682799   -1.272362    0.875600
    173         20           0       -1.070189    0.132081   -1.241310
    174          8           0       -0.976648   -2.460475   -1.705533
    175          1           0       -1.435107   -3.296306   -1.741602
    176          1           0       -0.309770   -2.530322   -2.389123
 ---------------------------------------------------------------------

 SCF Done:  E(RB3LYP) =  -5333.58946113     A.U. after   19 cycles

 The electronic state is 1-A.
 Alpha  occ. eigenvalues -- -145.38622 -19.21797 -19.19682 -19.14503 -19.14360
 Alpha  occ. eigenvalues --  -19.13275 -19.12066 -19.11110 -19.10943 -19.10794
 Alpha  occ. eigenvalues --  -19.10370 -19.10210 -19.09238 -19.08559 -19.08131
 Alpha  occ. eigenvalues --  -19.06610 -19.06038 -19.05025 -19.04670 -19.04605
 Alpha  occ. eigenvalues --  -19.04049 -19.03419 -19.02745 -19.00809 -15.44345
 Alpha  occ. eigenvalues --  -14.57864 -14.40495 -14.38737 -14.37554 -14.37226
 Alpha  occ. eigenvalues --  -14.36294 -14.36167 -14.35241 -14.34518 -14.33704
 Alpha  occ. eigenvalues --  -14.32148 -14.31923 -14.30108 -14.28885 -14.28499
 Alpha  occ. eigenvalues --  -12.57971 -12.57925 -12.57901 -10.33165 -10.32826
 Alpha  occ. eigenvalues --  -10.32137 -10.30415 -10.29836 -10.29573 -10.29494
 Alpha  occ. eigenvalues --  -10.29315 -10.29172 -10.28141 -10.27605 -10.26698
 Alpha  occ. eigenvalues --  -10.26661 -10.26614 -10.26602 -10.25866 -10.24927
 Alpha  occ. eigenvalues --  -10.24413 -10.24107 -10.24068 -10.23736 -10.23713
 Alpha  occ. eigenvalues --  -10.23442 -10.23339 -10.23151 -10.23092 -10.23026
 Alpha  occ. eigenvalues --  -10.22954 -10.22903 -10.22823 -10.21914 -10.21544
 Alpha  occ. eigenvalues --  -10.20945 -10.20942 -10.20732 -10.19786 -10.19743
 Alpha  occ. eigenvalues --  -10.19683 -10.19327 -10.19156 -10.18860 -10.18603
 Alpha  occ. eigenvalues --  -10.18486 -10.18159 -10.18079 -10.17568 -10.17564
 Alpha  occ. eigenvalues --  -10.17558 -10.17530 -10.17500 -10.17464 -10.17104
 Alpha  occ. eigenvalues --  -10.16777 -10.14381  -1.81211  -1.13334  -1.09175
 Alpha  occ. eigenvalues --   -1.08934  -1.08552  -1.07941  -1.07533  -1.06546
 Alpha  occ. eigenvalues --   -1.05914  -1.05660  -1.04929  -1.04667  -1.04022
 Alpha  occ. eigenvalues --   -1.03451  -1.03377  -1.02760  -1.02089  -1.00907
 Alpha  occ. eigenvalues --   -1.00183  -0.99813  -0.97956  -0.97827  -0.97499
 Alpha  occ. eigenvalues --   -0.97107  -0.96937  -0.96088  -0.95233  -0.95187
 Alpha  occ. eigenvalues --   -0.94074  -0.93603  -0.93406  -0.92255  -0.91973
 Alpha  occ. eigenvalues --   -0.90884  -0.90155  -0.89713  -0.89493  -0.89358
 Alpha  occ. eigenvalues --   -0.87763  -0.87011  -0.86418  -0.85808  -0.85309
 Alpha  occ. eigenvalues --   -0.83314  -0.83130  -0.82265  -0.80993  -0.80552
 Alpha  occ. eigenvalues --   -0.79655  -0.79450  -0.78197  -0.77746  -0.76245
 Alpha  occ. eigenvalues --   -0.75396  -0.75203  -0.75114  -0.74118  -0.73355
 Alpha  occ. eigenvalues --   -0.73241  -0.72803  -0.72165  -0.72088  -0.70658
 Alpha  occ. eigenvalues --   -0.70052  -0.69236  -0.68801  -0.68586  -0.68438
 Alpha  occ. eigenvalues --   -0.67930  -0.66265  -0.66093  -0.65251  -0.64733
 Alpha  occ. eigenvalues --   -0.64040  -0.63251  -0.62991  -0.62565  -0.62497
 Alpha  occ. eigenvalues --   -0.61765  -0.61357  -0.61240  -0.61214  -0.60554
 Alpha  occ. eigenvalues --   -0.60473  -0.60019  -0.59848  -0.59363  -0.58663
 Alpha  occ. eigenvalues --   -0.58469  -0.57868  -0.57097  -0.57037  -0.56528
 Alpha  occ. eigenvalues --   -0.56138  -0.55986  -0.55882  -0.55793  -0.55581
 Alpha  occ. eigenvalues --   -0.54729  -0.54682  -0.54557  -0.53736  -0.53404
 Alpha  occ. eigenvalues --   -0.53259  -0.53183  -0.52960  -0.52794  -0.51958
 Alpha  occ. eigenvalues --   -0.51826  -0.51560  -0.51471  -0.51225  -0.50752
 Alpha  occ. eigenvalues --   -0.50558  -0.50019  -0.49671  -0.49307  -0.49172
 Alpha  occ. eigenvalues --   -0.48984  -0.48676  -0.48484  -0.48311  -0.48135
 Alpha  occ. eigenvalues --   -0.48063  -0.47832  -0.47658  -0.47490  -0.47361
 Alpha  occ. eigenvalues --   -0.47090  -0.47039  -0.46740  -0.46393  -0.46137
 Alpha  occ. eigenvalues --   -0.45765  -0.45643  -0.45565  -0.45260  -0.45159
 Alpha  occ. eigenvalues --   -0.45054  -0.44957  -0.44827  -0.44599  -0.44542
 Alpha  occ. eigenvalues --   -0.44359  -0.44201  -0.44089  -0.43904  -0.43849
 Alpha  occ. eigenvalues --   -0.43584  -0.43277  -0.43200  -0.42864  -0.42713
 Alpha  occ. eigenvalues --   -0.42589  -0.42447  -0.42304  -0.42024  -0.41870
 Alpha  occ. eigenvalues --   -0.41749  -0.41646  -0.41531  -0.41473  -0.41260
 Alpha  occ. eigenvalues --   -0.41164  -0.41053  -0.40858  -0.40838  -0.40600
 Alpha  occ. eigenvalues --   -0.40519  -0.40267  -0.40226  -0.40063  -0.39939
 Alpha  occ. eigenvalues --   -0.39690  -0.39570  -0.39431  -0.39298  -0.39277
 Alpha  occ. eigenvalues --   -0.39168  -0.38972  -0.38888  -0.38562  -0.38524
 Alpha  occ. eigenvalues --   -0.38393  -0.38239  -0.38181  -0.38053  -0.37880
 Alpha  occ. eigenvalues --   -0.37744  -0.37656  -0.37576  -0.37248  -0.37151
 Alpha  occ. eigenvalues --   -0.37019  -0.36781  -0.36735  -0.36357  -0.36224
 Alpha  occ. eigenvalues --   -0.36038  -0.35750  -0.35636  -0.35555  -0.35327
 Alpha  occ. eigenvalues --   -0.34893  -0.34825  -0.34770  -0.34475  -0.34208
 Alpha  occ. eigenvalues --   -0.34057  -0.33922  -0.33735  -0.33680  -0.33566
 Alpha  occ. eigenvalues --   -0.33206  -0.32710  -0.32074  -0.32049  -0.31760
 Alpha  occ. eigenvalues --   -0.31515  -0.31064  -0.30969  -0.30821  -0.30348
 Alpha  occ. eigenvalues --   -0.30171  -0.29748  -0.29382  -0.28951  -0.28847
 Alpha  occ. eigenvalues --   -0.28754  -0.28542  -0.28445  -0.27747  -0.27338
 Alpha  occ. eigenvalues --   -0.27080  -0.26737  -0.26605  -0.26367  -0.25971
 Alpha  occ. eigenvalues --   -0.25952  -0.24780  -0.24342  -0.24290  -0.24285
 Alpha  occ. eigenvalues --   -0.23794  -0.23778  -0.23535  -0.23322  -0.22899
 Alpha  occ. eigenvalues --   -0.22322  -0.22218  -0.21984  -0.21577  -0.21207
 Alpha  occ. eigenvalues --   -0.20668  -0.20232  -0.20069  -0.19612  -0.19304
 Alpha  occ. eigenvalues --   -0.18605  -0.18132  -0.16563
 Alpha virt. eigenvalues --   -0.10126  -0.05177  -0.04645  -0.03977  -0.02404
 Alpha virt. eigenvalues --   -0.02399  -0.01190  -0.00671  -0.00619  -0.00376
 Alpha virt. eigenvalues --   -0.00079   0.00413   0.00853   0.01023   0.01035

 Mulliken charges:
               1
     1  C    0.087014
     2  C    0.033941
     3  O   -0.307068
     4  H   -0.055658
     5  H    0.011480
     6  H    0.062330
     7  N   -0.125171
     8  C    0.135744
     9  C    0.053658
    10  O   -0.281077
    11  C    0.034806
    12  C    0.191364
    13  O   -0.377606
    14  O   -0.469780
    15  H    0.132106
    16  H    0.013773
    17  H    0.010220
    18  H    0.010611
    19  N   -0.160281
    20  C    0.124999
    21  C    0.055885
    22  O   -0.293520
    23  C    0.062322
    24  C    0.020619
    25  C   -0.076795
    26  C   -0.004153
    27  N    0.088799
    28  H    0.152818
    29  H   -0.005195
    30  H    0.014459
    31  H    0.023510
    32  H    0.001781
    33  H    0.050856
    34  H    0.028618
    35  H    0.012401
    36  H    0.073967
    37  H    0.100500
    38  H    0.188551
    39  H    0.193233
    40  H    0.195213
    41  N   -0.163216
    42  C    0.146911
    43  C    0.050108
    44  O   -0.275551
    45  C    0.102077
    46  C    0.081532
    47  O   -0.486895
    48  O   -0.376667
    49  H    0.147597
    50  H    0.019986
    51  H   -0.000320
    52  H    0.028943
    53  N   -0.164917
    54  C    0.263397
    55  C    0.018817
    56  O   -0.305821
    57  H    0.120628
    58  H    0.020788
    59  H    0.024640
    60  N   -0.158858
    61  C    0.174576
    62  C    0.056812
    63  O   -0.310482
    64  C    0.075227
    65  C    0.028019
    66  N   -0.028708
    67  O   -0.347589
    68  H    0.152712
    69  H    0.021063
    70  H    0.073160
    71  H    0.011124
    72  H    0.132076
    73  H    0.079618
    74  N   -0.160269
    75  C    0.231665
    76  C    0.039636
    77  O   -0.320385
    78  H    0.155241
    79  H    0.023650
    80  H    0.028522
    81  N   -0.137458
    82  C    0.128426
    83  C    0.172870
    84  O   -0.326770
    85  C    0.118296
    86  C   -0.037462
    87  C    0.044438
    88  C    0.023472
    89  C    0.005395
    90  C   -0.066973
    91  C    0.155733
    92  O   -0.187020
    93  H    0.155911
    94  H    0.001893
    95  H   -0.008964
    96  H   -0.073634
    97  H   -0.053353
    98  H   -0.044037
    99  H   -0.019061
   100  H   -0.044480
   101  H    0.169646
   102  N   -0.119153
   103  C    0.117310
   104  C    0.072187
   105  O   -0.285794
   106  C   -0.099785
   107  C    0.020737
   108  C    0.075245
   109  C    0.022195
   110  H    0.138350
   111  H    0.027848
   112  H   -0.024250
   113  H   -0.009813
   114  H   -0.004525
   115  H    0.022073
   116  H    0.011168
   117  H   -0.001902
   118  H    0.010255
   119  H   -0.000138
   120  H   -0.012237
   121  N   -0.148483
   122  C    0.075721
   123  C    0.139346
   124  O   -0.261500
   125  C    0.236275
   126  O   -0.313755
   127  H    0.150134
   128  H    0.012229
   129  H   -0.032463
   130  H   -0.002812
   131  H    0.193906
   132  N   -0.132587
   133  C    0.079168
   134  C    0.068577
   135  O   -0.268516
   136  C    0.033677
   137  H    0.120566
   138  H    0.027746
   139  H    0.062628
   140  H    0.019700
   141  H    0.002949
   142  N   -0.137480
   143  C    0.097525
   144  C    0.041305
   145  O   -0.258561
   146  C    0.047928
   147  H    0.101185
   148  H    0.012830
   149  H   -0.007350
   150  H    0.037420
   151  H    0.022610
   152  N   -0.157705
   153  C    0.153311
   154  C    0.071815
   155  O   -0.304993
   156  C   -0.034947
   157  C    0.083488
   158  C    0.144061
   159  O   -0.399287
   160  O   -0.421389
   161  H    0.129158
   162  H   -0.013785
   163  H    0.043140
   164  H    0.020686
   165  H   -0.025889
   166  H   -0.026035
   167  N   -0.162517
   168  C    0.136385
   169  H    0.019998
   170  H    0.012767
   171  H    0.032242
   172  H    0.137681
   173  Ca   1.274365
   174  O   -0.259370
   175  H    0.194197
   176  H    0.177948
 Sum of Mulliken charges =  -0.00000

 Dipole moment (field-independent basis, Debye):
    X=             27.3975    Y=              2.1367    Z=              9.1981  Tot=             28.9792
 Quadrupole moment (field-independent basis, Debye-Ang):
   XX=           -725.2078   YY=           -418.6191   ZZ=           -504.9458
   XY=             94.1006   XZ=             13.8889   YZ=            143.5585

 ESP charges:
               1
     1  C   -0.402357
     2  C    0.789592
     3  O   -0.595180
     4  H    0.079335
     5  H    0.083575
     6  H    0.135600
     7  N   -0.754207
     8  C    0.346832
     9  C    0.338306
    10  O   -0.515386
    11  C   -0.403996
    12  C    0.859288
    13  O   -0.721518
    14  O   -0.776813
    15  H    0.388811
    16  H   -0.014995
    17  H    0.104991
    18  H    0.107324
    19  N    0.047255
    20  C   -0.387823
    21  C    0.692142
    22  O   -0.597293
    23  C    0.064696
    24  C   -0.124359
    25  C   -0.107176
    26  C    0.156595
    27  N   -0.599674
    28  H    0.220006
    29  H    0.123220
    30  H    0.059146
    31  H    0.025757
    32  H    0.054169
    33  H    0.092248
    34  H    0.037443
    35  H    0.050080
    36  H    0.085059
    37  H    0.036290
    38  H    0.387662
    39  H    0.366701
    40  H    0.399677
    41  N   -0.377802
    42  C    0.101116
    43  C    0.321266
    44  O   -0.506649
    45  C   -0.300445
    46  C    0.825250
    47  O   -0.815145
    48  O   -0.730002
    49  H    0.180658
    50  H    0.102707
    51  H    0.079177
    52  H    0.100917
    53  N   -0.071751
    54  C   -0.251152
    55  C    0.637076
    56  O   -0.610909
    57  H    0.099607
    58  H    0.122295
    59  H    0.125267
    60  N   -0.391376
    61  C   -0.076519
    62  C    0.367332
    63  O   -0.521735
    64  C   -0.312345
    65  C    0.708307
    66  N   -0.861707
    67  O   -0.584383
    68  H    0.421266
    69  H    0.162611
    70  H    0.162554
    71  H    0.097308
    72  H    0.394227
    73  H    0.366795
    74  N   -0.044509
    75  C   -0.410718
    76  C    0.869795
    77  O   -0.612037
    78  H    0.204955
    79  H    0.163178
    80  H    0.131046
    81  N   -0.837653
    82  C    0.322214
    83  C    0.547060
    84  O   -0.560668
    85  C    0.197524
    86  C   -0.104838
    87  C   -0.149349
    88  C   -0.083324
    89  C   -0.311334
    90  C   -0.361047
    91  C    0.451314
    92  O   -0.531726
    93  H    0.484671
    94  H   -0.009703
    95  H   -0.045451
    96  H   -0.087722
    97  H    0.169673
    98  H    0.133417
    99  H    0.182735
   100  H    0.154894
   101  H    0.376429
   102  N   -0.717940
   103  C    0.046375
   104  C    0.592815
   105  O   -0.567143
   106  C    0.293452
   107  C    0.029751
   108  C   -0.516636
   109  C   -0.294946
   110  H    0.367926
   111  H    0.023031
   112  H   -0.009352
   113  H    0.011501
   114  H    0.074257
   115  H    0.133287
   116  H    0.083511
   117  H    0.129875
   118  H    0.069891
   119  H    0.068478
   120  H    0.060534
   121  N   -0.281388
   122  C    0.073453
   123  C    0.576277
   124  O   -0.487734
   125  C    0.068542
   126  O   -0.475306
   127  H    0.079964
   128  H    0.022193
   129  H    0.030640
   130  H    0.028764
   131  H    0.399200
   132  N   -0.505344
   133  C    0.104129
   134  C    0.549016
   135  O   -0.545099
   136  C   -0.350452
   137  H    0.331045
   138  H    0.103826
   139  H    0.141090
   140  H    0.104844
   141  H    0.080318
   142  N   -0.452682
   143  C    0.234435
   144  C    0.280997
   145  O   -0.505103
   146  C   -0.403925
   147  H    0.243054
   148  H    0.087918
   149  H    0.090032
   150  H    0.138274
   151  H    0.109577
   152  N    0.121215
   153  C   -0.239288
   154  C    0.515450
   155  O   -0.576752
   156  C   -0.096264
   157  C   -0.056234
   158  C    0.598114
   159  O   -0.724843
   160  O   -0.491032
   161  H   -0.081664
   162  H    0.119258
   163  H    0.126436
   164  H   -0.035392
   165  H    0.027706
   166  H    0.020487
   167  N   -0.089264
   168  C   -0.226365
   169  H    0.090727
   170  H    0.078706
   171  H    0.103021
   172  H    0.206114
   173  Ca   1.496031
   174  O   -0.743692
   175  H    0.406345
   176  H    0.368292
 Sum of ESP charges =   0.00000

 Normal termination of Gaussian 16 at Wed Sep 18 19:36:32 2019.
