 Gaussian 09, Revision D.01,
 Gaussian 09:  ES64L-G09RevD.01 24-Apr-2013

 ----------------------------------------------------------------------
 #maxdisk=50GB #B3LYP/SVP Density=Current scf=(tight) #IOP(5/87=12)Pop=
 (MK,readradii) iop(6/33=2) iop(6/42=6)
 ----------------------------------------------------------------------

 ------------
 SOL molecule
 ------------
 Symbolic Z-matrix:
 Charge =  0 Multiplicity = 1

                         Standard orientation:
 ---------------------------------------------------------------------
 Center     Atomic      Atomic             Coordinates (Angstroms)
 Number     Number       Type             X           Y           Z
 ---------------------------------------------------------------------
      1          6           0        2.051798    3.088433    4.667788
      2          6           0        1.464003    2.614156    3.348182
      3          8           0        2.137975    2.520349    2.324189
      4          1           0        3.090507    3.381581    4.517143
      5          1           0        1.482418    3.943036    5.033519
      6          1           0        2.005464    2.280888    5.398207
      7          7           0        0.150143    2.404023    3.391940
      8          6           0       -0.745307    2.189958    2.274914
      9          6           0       -1.090296    3.548006    1.678517
     10          8           0       -2.066487    4.196230    2.065498
     11          6           0       -2.020300    1.422314    2.611538
     12          6           0       -3.024870    1.249054    1.483212
     13          8           0       -2.549819    1.378409    0.327576
     14          8           0       -4.233808    1.015604    1.695039
     15          1           0       -0.318470    2.441257    4.281667
     16          1           0       -0.154292    1.659008    1.535391
     17          1           0       -2.478259    1.919964    3.468053
     18          1           0       -1.690362    0.455176    3.003819
     19          7           0       -0.224347    3.987747    0.753877
     20          6           0       -0.157401    5.353988    0.288792
     21          6           0       -1.398923    5.728281   -0.521039
     22          8           0       -1.952732    6.797365   -0.312580
     23          6           0        1.097364    5.663251   -0.525407
     24          6           0        2.359411    5.708856    0.337007
     25          6           0        3.248587    6.779466   -0.277207
     26          6           0        4.582070    7.001570    0.435390
     27          7           0        4.231964    7.672795    1.691329
     28          1           0        0.437806    3.258512    0.558250
     29          1           0       -0.196778    5.968140    1.196463
     30          1           0        0.970557    6.646002   -0.973314
     31          1           0        1.243771    4.885520   -1.269718
     32          1           0        2.712218    4.689183    0.478056
     33          1           0        2.127822    6.015599    1.353557
     34          1           0        2.766429    7.754709   -0.214556
     35          1           0        3.502842    6.533523   -1.310777
     36          1           0        5.218447    7.573064   -0.247925
     37          1           0        4.950817    6.009768    0.708988
     38          1           0        5.075040    7.711682    2.247935
     39          1           0        3.944661    8.605616    1.427128
     40          1           0        3.448177    7.326267    2.212285
     41          7           0       -1.865475    4.786482   -1.345747
     42          6           0       -3.056365    5.000060   -2.145226
     43          6           0       -4.345891    4.636672   -1.412034
     44          8           0       -5.420249    4.961222   -1.918416
     45          6           0       -2.852593    4.295749   -3.479214
     46          6           0       -2.622950    2.793761   -3.403755
     47          8           0       -2.722289    2.078935   -4.432762
     48          8           0       -2.244521    2.292121   -2.329814
     49          1           0       -1.276437    3.999626   -1.556679
     50          1           0       -3.091587    6.012688   -2.528949
     51          1           0       -2.014468    4.817099   -3.937844
     52          1           0       -3.736415    4.527289   -4.081748
     53          7           0       -4.288659    3.987421   -0.247303
     54          6           0       -5.508464    3.724979    0.504562
     55          6           0       -6.407853    2.574982    0.081234
     56          8           0       -7.601246    2.691248    0.352701
     57          1           0       -3.412102    3.771437    0.207227
     58          1           0       -6.043855    4.673840    0.437328
     59          1           0       -5.248077    3.603864    1.552670
     60          7           0       -5.848463    1.554168   -0.564305
     61          6           0       -6.496176    0.443532   -1.240438
     62          6           0       -6.720688   -0.775747   -0.360293
     63          8           0       -7.393679   -1.710158   -0.775455
     64          6           0       -5.800135    0.059291   -2.544004
     65          6           0       -4.699111   -1.001055   -2.491927
     66          7           0       -4.793423   -2.021542   -3.354662
     67          8           0       -3.785015   -0.921292   -1.677085
     68          1           0       -4.842822    1.560474   -0.642057
     69          1           0       -7.452714    0.869958   -1.543253
     70          1           0       -5.371379    0.978380   -2.949522
     71          1           0       -6.486450   -0.152397   -3.362270
     72          1           0       -5.578916   -2.096263   -3.986103
     73          1           0       -4.082538   -2.723479   -3.258604
     74          7           0       -6.153642   -0.813318    0.842349
     75          6           0       -6.240223   -1.913561    1.784989
     76          6           0       -5.117367   -2.932171    1.856596
     77          8           0       -5.294151   -3.996534    2.454742
     78          1           0       -5.539847   -0.055834    1.128311
     79          1           0       -7.092549   -2.555089    1.548596
     80          1           0       -6.322707   -1.387164    2.738929
     81          7           0       -3.998282   -2.608844    1.199855
     82          6           0       -2.749775   -3.344208    1.257903
     83          6           0       -1.457925   -2.549955    1.367830
     84          8           0       -1.395320   -1.439588    0.834852
     85          6           0       -2.715899   -4.349125    0.116196
     86          6           0       -3.977239   -5.164246   -0.080528
     87          6           0       -4.930143   -4.806078   -1.045406
     88          6           0       -4.276219   -6.100409    0.912754
     89          6           0       -6.212566   -5.356431   -1.047056
     90          6           0       -5.549558   -6.672919    0.938058
     91          6           0       -6.461019   -6.371154   -0.090861
     92          8           0       -7.681606   -6.988379   -0.090413
     93          1           0       -4.000282   -1.724203    0.714566
     94          1           0       -2.770273   -3.917033    2.192596
     95          1           0       -1.877529   -5.037455    0.224993
     96          1           0       -2.489790   -3.747697   -0.771532
     97          1           0       -4.591072   -4.104879   -1.796439
     98          1           0       -3.538070   -6.345441    1.660882
     99          1           0       -6.973078   -5.155627   -1.783194
    100          1           0       -5.814501   -7.348939    1.736746
    101          1           0       -7.699370   -7.730153    0.526398
    102          7           0       -0.395875   -3.116787    1.950025
    103          6           0        0.959893   -2.628923    1.849619
    104          6           0        1.858138   -3.504733    0.986476
    105          8           0        1.952821   -4.679379    1.317146
    106          6           0        1.582243   -2.561539    3.242328
    107          6           0        0.946070   -1.472334    4.088683
    108          6           0        3.089014   -2.349271    3.157571
    109          6           0        1.405368   -1.498520    5.541047
    110          1           0       -0.507623   -4.082838    2.239780
    111          1           0        0.946201   -1.591130    1.490456
    112          1           0        1.414257   -3.514399    3.751088
    113          1           0       -0.136967   -1.498448    3.957348
    114          1           0        1.220874   -0.518743    3.648404
    115          1           0        3.575241   -2.250518    4.128514
    116          1           0        3.565849   -3.247485    2.751935
    117          1           0        3.324351   -1.496639    2.521461
    118          1           0        1.391686   -2.537918    5.893277
    119          1           0        2.397509   -1.076199    5.679972
    120          1           0        0.599858   -0.981320    6.063308
    121          7           0        2.534887   -2.943650   -0.026932
    122          6           0        3.490452   -3.622380   -0.873526
    123          6           0        4.880459   -3.547126   -0.263594
    124          8           0        5.167154   -2.633027    0.498789
    125          6           0        3.417664   -3.165839   -2.336117
    126          8           0        4.291270   -4.051117   -3.013240
    127          1           0        2.310174   -1.983258   -0.256173
    128          1           0        3.190371   -4.666862   -0.773981
    129          1           0        3.770799   -2.149501   -2.465548
    130          1           0        2.423254   -3.352193   -2.751474
    131          1           0        4.044857   -4.062859   -3.941541
    132          7           0        5.781798   -4.427779   -0.705112
    133          6           0        7.195826   -4.219193   -0.509361
    134          6           0        7.695196   -2.886408   -1.058645
    135          8           0        8.445872   -2.171879   -0.408927
    136          6           0        7.952638   -5.395795   -1.119479
    137          1           0        5.456291   -5.211184   -1.257942
    138          1           0        7.380203   -4.133275    0.560182
    139          1           0        7.712748   -6.339991   -0.646143
    140          1           0        7.971844   -5.388228   -2.206758
    141          1           0        9.018018   -5.367075   -0.861331
    142          7           0        7.212889   -2.506697   -2.242325
    143          6           0        7.694983   -1.230114   -2.739237
    144          6           0        7.201846    0.010353   -2.002245
    145          8           0        7.878644    1.037061   -1.998504
    146          6           0        7.387350   -1.046664   -4.221029
    147          1           0        6.726827   -3.220452   -2.754279
    148          1           0        8.783079   -1.209199   -2.684370
    149          1           0        7.924311   -1.780066   -4.815667
    150          1           0        6.323573   -1.224913   -4.335516
    151          1           0        7.665873   -0.020572   -4.461985
    152          7           0        6.128875   -0.103706   -1.229830
    153          6           0        5.571692    0.906753   -0.359818
    154          6           0        6.412526    1.028680    0.907632
    155          8           0        6.432320    2.133771    1.468061
    156          6           0        4.071093    0.786751   -0.089996
    157          6           0        3.138567    1.397485   -1.136084
    158          6           0        1.682457    1.017727   -0.924123
    159          8           0        1.320250   -0.133460   -0.583426
    160          8           0        0.757604    1.814437   -1.178091
    161          1           0        5.786310   -1.052569   -1.215445
    162          1           0        5.609662    1.901621   -0.797648
    163          1           0        3.844682    1.262402    0.867027
    164          1           0        3.878919   -0.258791    0.131840
    165          1           0        3.392216    1.118398   -2.159594
    166          1           0        3.268687    2.473002   -1.004437
    167          7           0        7.103725   -0.019037    1.334521
    168          6           0        8.068325    0.043996    2.415388
    169          1           0        9.064203   -0.166218    2.025300
    170          1           0        8.055184    1.040581    2.856911
    171          1           0        7.812569   -0.694739    3.175008
    172          1           0        7.051208   -0.880844    0.818159
    173         20           0       -1.208242    0.067238   -1.406438
    174          8           0        0.167399   -1.817099   -2.680756
    175          1           0        0.129648   -2.775071   -2.598508
    176          1           0        1.051537   -1.629654   -2.984175
 ---------------------------------------------------------------------

 SCF Done:  E(RB3LYP) =  -5333.58820644     A.U. after   18 cycles

 The electronic state is 1-A.
 Alpha  occ. eigenvalues -- -145.37532 -19.20916 -19.19952 -19.14039 -19.13887
 Alpha  occ. eigenvalues --  -19.12894 -19.12369 -19.11344 -19.11065 -19.10623
 Alpha  occ. eigenvalues --  -19.09578 -19.08707 -19.07584 -19.07464 -19.07459
 Alpha  occ. eigenvalues --  -19.06557 -19.05496 -19.04317 -19.03368 -19.02910
 Alpha  occ. eigenvalues --  -19.02368 -19.02267 -19.01498 -18.99064 -15.43259
 Alpha  occ. eigenvalues --  -14.58091 -14.39222 -14.38997 -14.37854 -14.37183
 Alpha  occ. eigenvalues --  -14.36016 -14.35983 -14.35854 -14.33814 -14.32934
 Alpha  occ. eigenvalues --  -14.32924 -14.30046 -14.29447 -14.28486 -14.28044
 Alpha  occ. eigenvalues --  -12.56873 -12.56856 -12.56807 -10.34361 -10.31851
 Alpha  occ. eigenvalues --  -10.31078 -10.30828 -10.30305 -10.29818 -10.29386
 Alpha  occ. eigenvalues --  -10.29341 -10.28603 -10.27449 -10.27386 -10.27018
 Alpha  occ. eigenvalues --  -10.26626 -10.26465 -10.25577 -10.25269 -10.25188
 Alpha  occ. eigenvalues --  -10.23925 -10.23772 -10.23527 -10.23393 -10.23218
 Alpha  occ. eigenvalues --  -10.23103 -10.23038 -10.22756 -10.22755 -10.22086
 Alpha  occ. eigenvalues --  -10.21355 -10.21314 -10.21187 -10.21177 -10.21057
 Alpha  occ. eigenvalues --  -10.20864 -10.20557 -10.19801 -10.19474 -10.19430
 Alpha  occ. eigenvalues --  -10.19360 -10.19003 -10.18471 -10.18410 -10.18044
 Alpha  occ. eigenvalues --  -10.17741 -10.17550 -10.17505 -10.17343 -10.17146
 Alpha  occ. eigenvalues --  -10.17101 -10.17012 -10.16908 -10.16799 -10.15837
 Alpha  occ. eigenvalues --  -10.15119 -10.13102  -1.80009  -1.13866  -1.08444
 Alpha  occ. eigenvalues --   -1.07794  -1.07593  -1.07370  -1.07228  -1.06349
 Alpha  occ. eigenvalues --   -1.06197  -1.05205  -1.04262  -1.03606  -1.03386
 Alpha  occ. eigenvalues --   -1.03218  -1.02930  -1.02539  -1.00278  -1.00173
 Alpha  occ. eigenvalues --   -0.99303  -0.98494  -0.97781  -0.97559  -0.96769
 Alpha  occ. eigenvalues --   -0.95681  -0.95323  -0.95293  -0.94775  -0.94486
 Alpha  occ. eigenvalues --   -0.94219  -0.92715  -0.92683  -0.92099  -0.90731
 Alpha  occ. eigenvalues --   -0.90687  -0.90222  -0.89817  -0.88755  -0.88090
 Alpha  occ. eigenvalues --   -0.87435  -0.86937  -0.85694  -0.84350  -0.83969
 Alpha  occ. eigenvalues --   -0.83118  -0.82839  -0.82084  -0.82038  -0.80456
 Alpha  occ. eigenvalues --   -0.79326  -0.78595  -0.78038  -0.77848  -0.76078
 Alpha  occ. eigenvalues --   -0.74904  -0.74842  -0.73582  -0.73273  -0.72559
 Alpha  occ. eigenvalues --   -0.72536  -0.72244  -0.72112  -0.71147  -0.71137
 Alpha  occ. eigenvalues --   -0.70162  -0.69323  -0.69023  -0.68462  -0.68062
 Alpha  occ. eigenvalues --   -0.66629  -0.66546  -0.64914  -0.64797  -0.64462
 Alpha  occ. eigenvalues --   -0.63667  -0.62943  -0.62706  -0.62124  -0.61821
 Alpha  occ. eigenvalues --   -0.61675  -0.61565  -0.60428  -0.60280  -0.60222
 Alpha  occ. eigenvalues --   -0.60164  -0.59481  -0.59257  -0.58917  -0.58619
 Alpha  occ. eigenvalues --   -0.57542  -0.57270  -0.57094  -0.56757  -0.56475
 Alpha  occ. eigenvalues --   -0.56175  -0.56059  -0.55580  -0.55214  -0.55174
 Alpha  occ. eigenvalues --   -0.54851  -0.54284  -0.53971  -0.53718  -0.53346
 Alpha  occ. eigenvalues --   -0.52840  -0.52699  -0.52462  -0.52118  -0.51822
 Alpha  occ. eigenvalues --   -0.51620  -0.51350  -0.50678  -0.50572  -0.50267
 Alpha  occ. eigenvalues --   -0.50127  -0.49985  -0.49525  -0.49149  -0.48954
 Alpha  occ. eigenvalues --   -0.48418  -0.48370  -0.48295  -0.48002  -0.47893
 Alpha  occ. eigenvalues --   -0.47698  -0.47548  -0.47404  -0.47110  -0.46975
 Alpha  occ. eigenvalues --   -0.46659  -0.46572  -0.46466  -0.45987  -0.45710
 Alpha  occ. eigenvalues --   -0.45593  -0.45399  -0.45059  -0.44954  -0.44896
 Alpha  occ. eigenvalues --   -0.44789  -0.44433  -0.44289  -0.44197  -0.43690
 Alpha  occ. eigenvalues --   -0.43576  -0.43380  -0.43281  -0.42988  -0.42960
 Alpha  occ. eigenvalues --   -0.42869  -0.42738  -0.42700  -0.42447  -0.42380
 Alpha  occ. eigenvalues --   -0.42123  -0.41873  -0.41833  -0.41694  -0.41453
 Alpha  occ. eigenvalues --   -0.41377  -0.41199  -0.40933  -0.40850  -0.40612
 Alpha  occ. eigenvalues --   -0.40510  -0.40387  -0.40258  -0.40223  -0.40126
 Alpha  occ. eigenvalues --   -0.39930  -0.39706  -0.39630  -0.39489  -0.39382
 Alpha  occ. eigenvalues --   -0.39282  -0.39214  -0.38885  -0.38854  -0.38786
 Alpha  occ. eigenvalues --   -0.38767  -0.38527  -0.38447  -0.38115  -0.37955
 Alpha  occ. eigenvalues --   -0.37745  -0.37625  -0.37600  -0.37553  -0.37293
 Alpha  occ. eigenvalues --   -0.36973  -0.36702  -0.36604  -0.36507  -0.36419
 Alpha  occ. eigenvalues --   -0.36337  -0.36134  -0.35666  -0.35598  -0.35334
 Alpha  occ. eigenvalues --   -0.35085  -0.35018  -0.34749  -0.34509  -0.34410
 Alpha  occ. eigenvalues --   -0.34371  -0.34093  -0.34051  -0.33813  -0.33542
 Alpha  occ. eigenvalues --   -0.32982  -0.32936  -0.32698  -0.32616  -0.32478
 Alpha  occ. eigenvalues --   -0.32441  -0.32182  -0.31919  -0.31416  -0.31317
 Alpha  occ. eigenvalues --   -0.31050  -0.30766  -0.30559  -0.29804  -0.29639
 Alpha  occ. eigenvalues --   -0.29604  -0.29434  -0.28645  -0.28364  -0.28239
 Alpha  occ. eigenvalues --   -0.28124  -0.28009  -0.27772  -0.27576  -0.27371
 Alpha  occ. eigenvalues --   -0.26442  -0.26415  -0.26268  -0.25900  -0.25334
 Alpha  occ. eigenvalues --   -0.24901  -0.24817  -0.24059  -0.24031  -0.23438
 Alpha  occ. eigenvalues --   -0.22953  -0.22916  -0.22739  -0.22437  -0.22288
 Alpha  occ. eigenvalues --   -0.21378  -0.21033  -0.20735  -0.20311  -0.20008
 Alpha  occ. eigenvalues --   -0.19815  -0.19321  -0.19165  -0.18048  -0.17850
 Alpha  occ. eigenvalues --   -0.17769  -0.17199  -0.14975
 Alpha virt. eigenvalues --   -0.09934  -0.05053  -0.04656  -0.03928  -0.02922
 Alpha virt. eigenvalues --   -0.01431  -0.01280  -0.01051  -0.00469   0.00397
 Alpha virt. eigenvalues --    0.00638   0.00814   0.00878   0.01492   0.01754

 Mulliken charges:
               1
     1  C    0.027753
     2  C    0.041207
     3  O   -0.288319
     4  H    0.017689
     5  H    0.025229
     6  H    0.039695
     7  N   -0.118934
     8  C    0.069330
     9  C    0.053793
    10  O   -0.295538
    11  C    0.114828
    12  C    0.173441
    13  O   -0.463062
    14  O   -0.376428
    15  H    0.113274
    16  H    0.010573
    17  H   -0.006801
    18  H   -0.009240
    19  N   -0.121304
    20  C    0.121467
    21  C    0.037765
    22  O   -0.272348
    23  C    0.053606
    24  C    0.007293
    25  C   -0.086461
    26  C    0.063125
    27  N    0.077711
    28  H    0.136325
    29  H   -0.018938
    30  H    0.009487
    31  H    0.039212
    32  H    0.060305
    33  H   -0.045210
    34  H    0.007905
    35  H    0.059317
    36  H    0.090114
    37  H    0.094083
    38  H    0.197793
    39  H    0.181659
    40  H    0.182697
    41  N   -0.138740
    42  C    0.164141
    43  C    0.079753
    44  O   -0.298053
    45  C    0.014911
    46  C    0.108614
    47  O   -0.391606
    48  O   -0.439090
    49  H    0.132619
    50  H   -0.008058
    51  H   -0.009746
    52  H    0.017088
    53  N   -0.163167
    54  C    0.204817
    55  C    0.058697
    56  O   -0.297338
    57  H    0.167596
    58  H    0.012924
    59  H    0.022244
    60  N   -0.153712
    61  C    0.150059
    62  C    0.051626
    63  O   -0.297517
    64  C    0.071254
    65  C    0.075254
    66  N   -0.025654
    67  O   -0.341941
    68  H    0.147643
    69  H    0.022641
    70  H    0.066762
    71  H   -0.014966
    72  H    0.141158
    73  H    0.125932
    74  N   -0.172949
    75  C    0.222948
    76  C    0.042299
    77  O   -0.292394
    78  H    0.153605
    79  H    0.040903
    80  H    0.036208
    81  N   -0.142245
    82  C    0.116349
    83  C    0.116579
    84  O   -0.341398
    85  C    0.141144
    86  C   -0.015022
    87  C    0.039995
    88  C    0.030051
    89  C    0.028304
    90  C   -0.019240
    91  C    0.145828
    92  O   -0.207316
    93  H    0.145339
    94  H   -0.002689
    95  H   -0.020084
    96  H   -0.061109
    97  H   -0.104994
    98  H   -0.046602
    99  H   -0.023503
   100  H   -0.047335
   101  H    0.172412
   102  N   -0.110544
   103  C    0.164689
   104  C    0.033441
   105  O   -0.284690
   106  C   -0.137450
   107  C   -0.004733
   108  C    0.086827
   109  C    0.051464
   110  H    0.132032
   111  H    0.029891
   112  H   -0.017332
   113  H    0.003485
   114  H   -0.005774
   115  H   -0.006994
   116  H    0.016590
   117  H    0.021964
   118  H    0.001744
   119  H    0.023605
   120  H    0.005000
   121  N   -0.134829
   122  C    0.079977
   123  C    0.071403
   124  O   -0.266878
   125  C    0.242494
   126  O   -0.318649
   127  H    0.130641
   128  H    0.013801
   129  H    0.017037
   130  H   -0.020986
   131  H    0.175186
   132  N   -0.100349
   133  C    0.122601
   134  C    0.018945
   135  O   -0.256602
   136  C    0.035899
   137  H    0.127473
   138  H    0.018013
   139  H    0.034246
   140  H    0.015375
   141  H    0.027933
   142  N   -0.149275
   143  C    0.104018
   144  C    0.024082
   145  O   -0.278108
   146  C    0.054183
   147  H    0.111881
   148  H    0.027768
   149  H    0.018326
   150  H   -0.013750
   151  H    0.046467
   152  N   -0.134899
   153  C    0.172283
   154  C    0.044862
   155  O   -0.326868
   156  C   -0.026825
   157  C    0.103395
   158  C    0.106443
   159  O   -0.425359
   160  O   -0.398747
   161  H    0.126228
   162  H   -0.014302
   163  H    0.032763
   164  H   -0.007129
   165  H    0.000148
   166  H   -0.009094
   167  N   -0.139016
   168  C    0.129889
   169  H    0.027837
   170  H    0.027957
   171  H    0.014344
   172  H    0.132071
   173  Ca   1.303369
   174  O   -0.295436
   175  H    0.192763
   176  H    0.186461
 Sum of Mulliken charges =   0.00000

 Dipole moment (field-independent basis, Debye):
    X=             37.5584    Y=              1.5708    Z=              1.4930  Tot=             37.6208
 Quadrupole moment (field-independent basis, Debye-Ang):
   XX=           -681.4490   YY=           -374.1054   ZZ=           -520.4370
   XY=            137.4035   XZ=             -6.9844   YZ=             99.6476

 ESP charges:
               1
     1  C   -0.496592
     2  C    0.902881
     3  O   -0.691573
     4  H    0.128346
     5  H    0.116287
     6  H    0.130893
     7  N   -0.897210
     8  C    0.340574
     9  C    0.693919
    10  O   -0.563635
    11  C   -0.273520
    12  C    0.654528
    13  O   -0.975337
    14  O   -0.591875
    15  H    0.391058
    16  H    0.040152
    17  H    0.069375
    18  H    0.070516
    19  N   -0.588822
    20  C    0.011731
    21  C    0.555277
    22  O   -0.575424
    23  C   -0.271931
    24  C    0.228314
    25  C   -0.152706
    26  C    0.008437
    27  N   -0.379221
    28  H    0.411683
    29  H    0.067571
    30  H    0.081110
    31  H    0.079111
    32  H    0.005356
    33  H   -0.034887
    34  H    0.058709
    35  H    0.089632
    36  H    0.103534
    37  H    0.090615
    38  H    0.337972
    39  H    0.326686
    40  H    0.337163
    41  N   -0.423425
    42  C    0.091044
    43  C    0.377505
    44  O   -0.535585
    45  C   -0.208223
    46  C    0.756529
    47  O   -0.729354
    48  O   -0.805614
    49  H    0.334585
    50  H    0.077410
    51  H    0.050607
    52  H    0.067725
    53  N   -0.044758
    54  C   -0.359823
    55  C    0.641470
    56  O   -0.583376
    57  H    0.206807
    58  H    0.132966
    59  H    0.149959
    60  N   -0.274157
    61  C   -0.383335
    62  C    0.455358
    63  O   -0.535500
    64  C    0.065357
    65  C    0.511041
    66  N   -0.732534
    67  O   -0.541110
    68  H    0.318820
    69  H    0.202816
    70  H    0.094662
    71  H    0.026845
    72  H    0.378655
    73  H    0.342161
    74  N    0.057038
    75  C   -0.622363
    76  C    0.703439
    77  O   -0.516286
    78  H    0.131894
    79  H    0.228236
    80  H    0.177619
    81  N   -0.376186
    82  C   -0.295798
    83  C    0.907300
    84  O   -0.668843
    85  C    0.068770
    86  C    0.014287
    87  C   -0.339875
    88  C   -0.251933
    89  C   -0.019095
    90  C   -0.168943
    91  C    0.235019
    92  O   -0.510618
    93  H    0.410281
    94  H    0.106544
    95  H    0.014223
    96  H   -0.008499
    97  H    0.180337
    98  H    0.177108
    99  H    0.114103
   100  H    0.134890
   101  H    0.384677
   102  N   -0.826361
   103  C    0.140597
   104  C    0.646374
   105  O   -0.572298
   106  C    0.166588
   107  C    0.162010
   108  C   -0.323292
   109  C   -0.439266
   110  H    0.385782
   111  H    0.064670
   112  H   -0.011291
   113  H    0.007562
   114  H    0.034736
   115  H    0.091660
   116  H    0.100454
   117  H    0.036349
   118  H    0.100260
   119  H    0.113104
   120  H    0.092691
   121  N   -0.617652
   122  C    0.242173
   123  C    0.570910
   124  O   -0.499998
   125  C    0.149691
   126  O   -0.631462
   127  H    0.219434
   128  H    0.030829
   129  H    0.037138
   130  H    0.029788
   131  H    0.410366
   132  N   -0.530835
   133  C    0.248010
   134  C    0.355842
   135  O   -0.507174
   136  C   -0.324805
   137  H    0.287299
   138  H    0.059914
   139  H    0.111843
   140  H    0.080783
   141  H    0.102201
   142  N   -0.234256
   143  C    0.064583
   144  C    0.391542
   145  O   -0.519796
   146  C   -0.359025
   147  H    0.243569
   148  H    0.106983
   149  H    0.102574
   150  H    0.070432
   151  H    0.134608
   152  N    0.023833
   153  C   -0.468392
   154  C    0.569694
   155  O   -0.577189
   156  C    0.315586
   157  C   -0.316414
   158  C    0.827628
   159  O   -0.721605
   160  O   -0.755116
   161  H    0.029220
   162  H    0.161714
   163  H    0.040969
   164  H   -0.066827
   165  H    0.057499
   166  H    0.075518
   167  N   -0.191606
   168  C   -0.158683
   169  H    0.088319
   170  H    0.089192
   171  H    0.062075
   172  H    0.227882
   173  Ca   1.658371
   174  O   -0.811634
   175  H    0.418553
   176  H    0.394027
 Sum of ESP charges =   0.00000

 Normal termination of Gaussian 09 at Mon Sep 16 21:24:33 2019.
