 Gaussian 16, Revision A.03,
 Gaussian 16:  ES64L-G16RevA.03 25-Dec-2016

 ----------------------------------------------------------------------
 #b3lyp/svp scf=(tight,noincore) Test #IOP(5/87=12) Density=Current Pop
 =(MK,readradii) iop(6/33=2) iop(6/42=6)
 ----------------------------------------------------------------------

 ------------------
 holoCaM_loop3_95.0
 ------------------
 Symbolic Z-matrix:
 Charge =  0 Multiplicity = 1

                         Standard orientation:
 ---------------------------------------------------------------------
 Center     Atomic      Atomic             Coordinates (Angstroms)
 Number     Number       Type             X           Y           Z
 ---------------------------------------------------------------------
      1          6           0       -1.579519   -3.990396    5.017429
      2          6           0       -1.205880   -3.258149    3.727968
      3          8           0       -2.085157   -3.210185    2.880164
      4          1           0       -1.698441   -3.267152    5.823929
      5          1           0       -2.515772   -4.529107    4.871530
      6          1           0       -0.790382   -4.696569    5.277017
      7          7           0        0.063111   -2.873081    3.595362
      8          6           0        0.679186   -2.465279    2.351276
      9          6           0        1.012107   -3.657849    1.479932
     10          8           0        1.949597   -4.420646    1.751694
     11          6           0        1.857896   -1.558492    2.713602
     12          6           0        2.769400   -1.276207    1.525799
     13          8           0        3.902820   -0.816162    1.747873
     14          8           0        2.403469   -1.362377    0.336989
     15          1           0        0.655861   -3.086940    4.386760
     16          1           0       -0.020876   -1.865308    1.777825
     17          1           0        2.472347   -2.125786    3.409538
     18          1           0        1.540652   -0.645652    3.228848
     19          7           0        0.371610   -3.884883    0.334367
     20          6           0        0.270130   -5.184161   -0.303504
     21          6           0        1.494672   -5.501219   -1.148531
     22          8           0        2.065836   -6.582967   -0.999553
     23          6           0       -0.991066   -5.447113   -1.115686
     24          6           0       -2.236492   -5.367142   -0.236699
     25          6           0       -2.400475   -6.413756    0.862714
     26          6           0       -3.638171   -6.147206    1.721003
     27          7           0       -3.599057   -6.957067    2.943294
     28          1           0       -0.259800   -3.150823    0.053161
     29          1           0        0.235374   -5.979264    0.449293
     30          1           0       -0.951554   -6.360852   -1.713782
     31          1           0       -1.081271   -4.608159   -1.795259
     32          1           0       -3.050153   -5.617167   -0.910155
     33          1           0       -2.418573   -4.363981    0.138287
     34          1           0       -1.528792   -6.410389    1.498840
     35          1           0       -2.441602   -7.393498    0.393230
     36          1           0       -4.494884   -6.556113    1.183939
     37          1           0       -3.852734   -5.102783    1.987166
     38          1           0       -3.455888   -7.939887    2.780610
     39          1           0       -2.856802   -6.767211    3.603304
     40          1           0       -4.503624   -6.914546    3.399419
     41          7           0        1.969007   -4.516982   -1.921308
     42          6           0        3.222695   -4.551129   -2.640196
     43          6           0        4.438049   -4.310198   -1.753761
     44          8           0        5.537585   -4.802909   -1.996775
     45          6           0        3.169151   -3.713891   -3.915800
     46          6           0        3.115226   -2.200228   -3.746638
     47          8           0        3.118230   -1.697551   -2.605846
     48          8           0        3.153798   -1.500628   -4.783977
     49          1           0        1.447308   -3.659647   -1.775003
     50          1           0        3.218498   -5.599135   -2.933395
     51          1           0        2.201224   -3.896997   -4.381835
     52          1           0        3.990286   -4.044732   -4.557425
     53          7           0        4.145950   -3.575609   -0.685979
     54          6           0        5.190286   -3.256548    0.275614
     55          6           0        6.026392   -1.989803    0.266519
     56          8           0        6.832978   -1.782642    1.169350
     57          1           0        3.270785   -3.086976   -0.560186
     58          1           0        5.954902   -4.041329    0.284638
     59          1           0        4.732642   -3.476833    1.244859
     60          7           0        5.765140   -1.247184   -0.813881
     61          6           0        6.437711   -0.024741   -1.191614
     62          6           0        6.577027    1.062413   -0.132706
     63          8           0        7.247722    2.040451   -0.462872
     64          6           0        5.805397    0.516518   -2.471933
     65          6           0        4.451859    1.189904   -2.328112
     66          7           0        3.947934    1.809802   -3.392718
     67          8           0        3.771738    1.102466   -1.307333
     68          1           0        4.992161   -1.504919   -1.416025
     69          1           0        7.496933   -0.275439   -1.306939
     70          1           0        5.698699   -0.205658   -3.277214
     71          1           0        6.445777    1.261378   -2.958654
     72          1           0        4.386314    1.705874   -4.296278
     73          1           0        2.993282    2.130004   -3.466956
     74          7           0        5.891025    0.957588    1.004534
     75          6           0        5.914393    1.959879    2.047495
     76          6           0        4.604364    2.685680    2.298366
     77          8           0        4.573434    3.560791    3.165040
     78          1           0        5.298285    0.154262    1.180108
     79          1           0        6.670383    2.729765    1.853704
     80          1           0        6.248809    1.428214    2.940690
     81          7           0        3.580056    2.378139    1.506084
     82          6           0        2.332795    3.121389    1.546347
     83          6           0        1.087513    2.246098    1.418918
     84          8           0        0.937863    1.405966    0.544056
     85          6           0        2.345114    4.229577    0.500848
     86          6           0        3.407294    5.301755    0.585745
     87          6           0        4.685602    4.992706    0.103547
     88          6           0        3.024146    6.603173    0.916970
     89          6           0        5.674775    5.976205    0.125151
     90          6           0        3.988874    7.608289    0.800606
     91          6           0        5.328581    7.284571    0.489332
     92          8           0        6.247736    8.292713    0.475017
     93          1           0        3.617603    1.560766    0.911113
     94          1           0        2.250601    3.682294    2.469998
     95          1           0        1.401532    4.771363    0.640568
     96          1           0        2.428033    3.847177   -0.518904
     97          1           0        4.896569    4.010003   -0.308142
     98          1           0        2.028931    6.764780    1.291844
     99          1           0        6.653614    5.822706   -0.318032
    100          1           0        3.762827    8.665504    0.825099
    101          1           0        5.940969    9.127364    0.815974
    102          7           0        0.065808    2.537456    2.223982
    103          6           0       -1.309292    2.158242    1.949395
    104          6           0       -1.939032    3.215528    1.045916
    105          8           0       -2.188379    4.337742    1.483365
    106          6           0       -2.004313    1.991281    3.301012
    107          6           0       -1.434707    0.749006    3.983215
    108          6           0       -3.517404    1.889878    3.140789
    109          6           0       -1.976317    0.289560    5.330682
    110          1           0        0.111270    3.327498    2.849974
    111          1           0       -1.381569    1.223225    1.393139
    112          1           0       -1.752068    2.875512    3.872510
    113          1           0       -0.382819    0.980424    4.196235
    114          1           0       -1.555410   -0.058396    3.269260
    115          1           0       -4.004309    1.652239    4.082782
    116          1           0       -3.929703    2.809130    2.726561
    117          1           0       -3.774202    1.060801    2.465670
    118          1           0       -1.369046   -0.460778    5.842654
    119          1           0       -2.128737    1.122258    6.020887
    120          1           0       -2.930351   -0.230943    5.229709
    121          7           0       -2.286797    2.849915   -0.186272
    122          6           0       -3.211557    3.607494   -0.993114
    123          6           0       -4.663000    3.372179   -0.569156
    124          8           0       -4.955623    2.534499    0.278466
    125          6           0       -3.067207    3.308156   -2.487657
    126          8           0       -3.232406    1.915786   -2.630883
    127          1           0       -1.956368    1.993719   -0.615976
    128          1           0       -2.981793    4.676901   -0.930049
    129          1           0       -2.106564    3.427964   -2.986267
    130          1           0       -3.870119    3.792424   -3.045794
    131          1           0       -2.387922    1.487181   -2.483080
    132          7           0       -5.551269    4.220656   -1.084098
    133          6           0       -6.981151    4.082177   -0.880725
    134          6           0       -7.470682    2.742171   -1.402590
    135          8           0       -8.324406    2.095064   -0.800421
    136          6           0       -7.755594    5.249534   -1.493437
    137          1           0       -5.294629    4.751470   -1.899495
    138          1           0       -7.168183    4.120275    0.194852
    139          1           0       -8.826837    5.203005   -1.308033
    140          1           0       -7.376787    6.118424   -0.945317
    141          1           0       -7.565862    5.415347   -2.551316
    142          7           0       -6.892826    2.295321   -2.523754
    143          6           0       -7.154332    0.970866   -3.061837
    144          6           0       -6.961870   -0.143752   -2.041306
    145          8           0       -7.846873   -0.961526   -1.795920
    146          6           0       -6.316734    0.810998   -4.325393
    147          1           0       -6.357798    2.970749   -3.047626
    148          1           0       -8.185655    1.060989   -3.417296
    149          1           0       -6.160530   -0.214935   -4.654424
    150          1           0       -6.483762    1.488446   -5.160896
    151          1           0       -5.291067    1.028883   -4.031568
    152          7           0       -5.768663   -0.108582   -1.447739
    153          6           0       -5.311004   -1.066154   -0.463358
    154          6           0       -6.175016   -0.979151    0.790561
    155          8           0       -6.488067   -1.900461    1.548247
    156          6           0       -3.863496   -0.920551   -0.011338
    157          6           0       -2.866353   -1.283913   -1.107456
    158          6           0       -1.450972   -0.724591   -1.049522
    159          8           0       -1.215785    0.468671   -1.346361
    160          8           0       -0.514095   -1.503195   -0.770706
    161          1           0       -5.048996    0.554527   -1.699662
    162          1           0       -5.409289   -2.071004   -0.866490
    163          1           0       -3.654311   -1.433412    0.927286
    164          1           0       -3.668022    0.148833    0.062872
    165          1           0       -3.293904   -0.893375   -2.027281
    166          1           0       -2.845969   -2.375551   -1.127722
    167          7           0       -6.540168    0.227033    1.221820
    168          6           0       -7.236717    0.425532    2.470786
    169          1           0       -7.979062    1.214987    2.350843
    170          1           0       -7.735423   -0.499432    2.760459
    171          1           0       -6.523543    0.712320    3.243404
    172          1           0       -6.236299    1.033010    0.686876
    173         20           0        1.391522   -0.173896   -1.652402
    174          8           0        0.251048   -0.728659   -4.148446
    175          1           0       -0.591608   -0.374405   -4.434338
    176          1           0        0.832522   -0.565431   -4.880392
 ---------------------------------------------------------------------

 SCF Done:  E(RB3LYP) =  -5333.58592190     A.U. after   19 cycles

 The electronic state is 1-A.
 Alpha  occ. eigenvalues -- -145.39361 -19.18908 -19.16428 -19.14165 -19.13928
 Alpha  occ. eigenvalues --  -19.13645 -19.12727 -19.12342 -19.12308 -19.11790
 Alpha  occ. eigenvalues --  -19.11080 -19.10540 -19.09893 -19.08191 -19.06875
 Alpha  occ. eigenvalues --  -19.06752 -19.06693 -19.05384 -19.04732 -19.04495
 Alpha  occ. eigenvalues --  -19.04345 -19.04263 -19.03678 -19.02873 -15.45117
 Alpha  occ. eigenvalues --  -14.57695 -14.39565 -14.37966 -14.37570 -14.37144
 Alpha  occ. eigenvalues --  -14.36998 -14.36248 -14.36244 -14.33902 -14.32856
 Alpha  occ. eigenvalues --  -14.32129 -14.32108 -14.29760 -14.29332 -14.29004
 Alpha  occ. eigenvalues --  -12.58737 -12.58699 -12.58661 -10.33801 -10.32042
 Alpha  occ. eigenvalues --  -10.31730 -10.31311 -10.30531 -10.30172 -10.29629
 Alpha  occ. eigenvalues --  -10.29054 -10.29021 -10.28350 -10.27145 -10.26531
 Alpha  occ. eigenvalues --  -10.26165 -10.26123 -10.25951 -10.25555 -10.24791
 Alpha  occ. eigenvalues --  -10.24703 -10.24377 -10.23994 -10.23820 -10.23613
 Alpha  occ. eigenvalues --  -10.23195 -10.23127 -10.23122 -10.23119 -10.23099
 Alpha  occ. eigenvalues --  -10.23040 -10.22799 -10.22603 -10.22426 -10.22421
 Alpha  occ. eigenvalues --  -10.21722 -10.20865 -10.20793 -10.20767 -10.19954
 Alpha  occ. eigenvalues --  -10.19695 -10.19571 -10.19209 -10.19205 -10.18595
 Alpha  occ. eigenvalues --  -10.18561 -10.18327 -10.17713 -10.17602 -10.17556
 Alpha  occ. eigenvalues --  -10.17168 -10.17027 -10.17013 -10.16738 -10.16512
 Alpha  occ. eigenvalues --  -10.16123 -10.15515  -1.82062  -1.13097  -1.10166
 Alpha  occ. eigenvalues --   -1.09529  -1.09385  -1.07446  -1.07167  -1.05570
 Alpha  occ. eigenvalues --   -1.05552  -1.05458  -1.05024  -1.04646  -1.04289
 Alpha  occ. eigenvalues --   -1.03389  -1.02922  -1.02469  -1.01642  -1.00445
 Alpha  occ. eigenvalues --   -1.00319  -0.99635  -0.99369  -0.98541  -0.97676
 Alpha  occ. eigenvalues --   -0.97504  -0.96915  -0.96886  -0.95960  -0.94867
 Alpha  occ. eigenvalues --   -0.94379  -0.94011  -0.93213  -0.92997  -0.91978
 Alpha  occ. eigenvalues --   -0.91241  -0.90164  -0.89518  -0.89403  -0.88490
 Alpha  occ. eigenvalues --   -0.87932  -0.87900  -0.87797  -0.86187  -0.85525
 Alpha  occ. eigenvalues --   -0.83109  -0.82557  -0.82007  -0.81842  -0.81490
 Alpha  occ. eigenvalues --   -0.79376  -0.78988  -0.77935  -0.77408  -0.76701
 Alpha  occ. eigenvalues --   -0.76096  -0.74826  -0.74738  -0.74622  -0.73956
 Alpha  occ. eigenvalues --   -0.72522  -0.72234  -0.72049  -0.70818  -0.70321
 Alpha  occ. eigenvalues --   -0.69655  -0.69248  -0.68501  -0.68418  -0.68035
 Alpha  occ. eigenvalues --   -0.67466  -0.66901  -0.66011  -0.65293  -0.65105
 Alpha  occ. eigenvalues --   -0.64218  -0.63325  -0.63153  -0.63015  -0.62406
 Alpha  occ. eigenvalues --   -0.61742  -0.61543  -0.61112  -0.60667  -0.60419
 Alpha  occ. eigenvalues --   -0.60356  -0.60257  -0.60095  -0.58480  -0.57977
 Alpha  occ. eigenvalues --   -0.57745  -0.57328  -0.56919  -0.56730  -0.56343
 Alpha  occ. eigenvalues --   -0.56032  -0.55795  -0.55603  -0.55495  -0.55299
 Alpha  occ. eigenvalues --   -0.54942  -0.54708  -0.54228  -0.54037  -0.53645
 Alpha  occ. eigenvalues --   -0.53447  -0.53224  -0.52861  -0.52420  -0.51915
 Alpha  occ. eigenvalues --   -0.51461  -0.51369  -0.51138  -0.50728  -0.50568
 Alpha  occ. eigenvalues --   -0.50412  -0.50146  -0.49963  -0.49692  -0.49583
 Alpha  occ. eigenvalues --   -0.49440  -0.48989  -0.48845  -0.48505  -0.48107
 Alpha  occ. eigenvalues --   -0.48021  -0.47961  -0.47861  -0.47725  -0.47264
 Alpha  occ. eigenvalues --   -0.47151  -0.47026  -0.46897  -0.46442  -0.46256
 Alpha  occ. eigenvalues --   -0.46043  -0.45614  -0.45549  -0.45278  -0.45063
 Alpha  occ. eigenvalues --   -0.44985  -0.44767  -0.44710  -0.44633  -0.44573
 Alpha  occ. eigenvalues --   -0.44437  -0.44263  -0.43907  -0.43776  -0.43696
 Alpha  occ. eigenvalues --   -0.43452  -0.43320  -0.43290  -0.43208  -0.42937
 Alpha  occ. eigenvalues --   -0.42766  -0.42653  -0.42428  -0.42284  -0.42262
 Alpha  occ. eigenvalues --   -0.41829  -0.41737  -0.41700  -0.41554  -0.41336
 Alpha  occ. eigenvalues --   -0.41090  -0.40813  -0.40780  -0.40642  -0.40610
 Alpha  occ. eigenvalues --   -0.40475  -0.40220  -0.39968  -0.39946  -0.39824
 Alpha  occ. eigenvalues --   -0.39470  -0.39346  -0.39275  -0.39245  -0.39132
 Alpha  occ. eigenvalues --   -0.39074  -0.38859  -0.38786  -0.38610  -0.38511
 Alpha  occ. eigenvalues --   -0.38230  -0.38134  -0.37935  -0.37861  -0.37727
 Alpha  occ. eigenvalues --   -0.37580  -0.37347  -0.37115  -0.36923  -0.36822
 Alpha  occ. eigenvalues --   -0.36769  -0.36709  -0.36487  -0.36219  -0.36045
 Alpha  occ. eigenvalues --   -0.35760  -0.35684  -0.35416  -0.35269  -0.35109
 Alpha  occ. eigenvalues --   -0.34964  -0.34826  -0.34809  -0.34658  -0.34299
 Alpha  occ. eigenvalues --   -0.34092  -0.33969  -0.33593  -0.33402  -0.33341
 Alpha  occ. eigenvalues --   -0.32924  -0.32543  -0.32352  -0.32307  -0.31984
 Alpha  occ. eigenvalues --   -0.31547  -0.31463  -0.31296  -0.30895  -0.30815
 Alpha  occ. eigenvalues --   -0.30628  -0.29894  -0.29683  -0.29556  -0.29231
 Alpha  occ. eigenvalues --   -0.28892  -0.28729  -0.28462  -0.28151  -0.27993
 Alpha  occ. eigenvalues --   -0.27461  -0.27377  -0.27190  -0.26089  -0.26083
 Alpha  occ. eigenvalues --   -0.25474  -0.25371  -0.24591  -0.24106  -0.23718
 Alpha  occ. eigenvalues --   -0.23639  -0.23395  -0.23365  -0.23263  -0.22990
 Alpha  occ. eigenvalues --   -0.22766  -0.22280  -0.22114  -0.21970  -0.21853
 Alpha  occ. eigenvalues --   -0.21661  -0.20349  -0.20080  -0.19910  -0.19495
 Alpha  occ. eigenvalues --   -0.19157  -0.18717  -0.18170
 Alpha virt. eigenvalues --   -0.09976  -0.04784  -0.04025  -0.03685  -0.02655
 Alpha virt. eigenvalues --   -0.01320  -0.01163  -0.00859  -0.00567  -0.00226
 Alpha virt. eigenvalues --   -0.00044   0.00272   0.00427   0.00688   0.01271

 Mulliken charges:
               1
     1  C    0.027373
     2  C    0.036661
     3  O   -0.301893
     4  H    0.053757
     5  H   -0.022962
     6  H    0.025587
     7  N   -0.112006
     8  C    0.137197
     9  C    0.028576
    10  O   -0.281360
    11  C    0.071891
    12  C    0.159777
    13  O   -0.361890
    14  O   -0.474663
    15  H    0.126722
    16  H    0.002032
    17  H    0.005720
    18  H    0.027414
    19  N   -0.112210
    20  C    0.084724
    21  C    0.063124
    22  O   -0.269721
    23  C    0.081465
    24  C   -0.000467
    25  C   -0.038765
    26  C    0.046950
    27  N    0.074587
    28  H    0.126793
    29  H   -0.013976
    30  H    0.017152
    31  H   -0.002627
    32  H   -0.001692
    33  H    0.043637
    34  H    0.023538
    35  H    0.020447
    36  H    0.055050
    37  H    0.117492
    38  H    0.173048
    39  H    0.185968
    40  H    0.191272
    41  N   -0.158771
    42  C    0.138396
    43  C    0.087874
    44  O   -0.276565
    45  C    0.079474
    46  C    0.094167
    47  O   -0.470068
    48  O   -0.390208
    49  H    0.108981
    50  H   -0.001280
    51  H   -0.003653
    52  H    0.038980
    53  N   -0.171573
    54  C    0.174812
    55  C    0.085259
    56  O   -0.290927
    57  H    0.158494
    58  H    0.019543
    59  H    0.015604
    60  N   -0.170395
    61  C    0.181175
    62  C    0.036851
    63  O   -0.316743
    64  C    0.034676
    65  C    0.070088
    66  N   -0.026656
    67  O   -0.333682
    68  H    0.153689
    69  H    0.018728
    70  H    0.052413
    71  H    0.027748
    72  H    0.128734
    73  H    0.101060
    74  N   -0.153864
    75  C    0.223133
    76  C    0.030628
    77  O   -0.302502
    78  H    0.165901
    79  H    0.039178
    80  H    0.030205
    81  N   -0.155658
    82  C    0.133213
    83  C    0.154842
    84  O   -0.338729
    85  C    0.122727
    86  C   -0.030834
    87  C    0.015482
    88  C    0.006851
    89  C   -0.022355
    90  C   -0.036738
    91  C    0.162449
    92  O   -0.201505
    93  H    0.170161
    94  H   -0.017516
    95  H   -0.029197
    96  H   -0.017195
    97  H   -0.007732
    98  H   -0.038652
    99  H   -0.009741
   100  H   -0.051285
   101  H    0.167972
   102  N   -0.118398
   103  C    0.125770
   104  C    0.081723
   105  O   -0.287068
   106  C   -0.088622
   107  C    0.001618
   108  C    0.062509
   109  C    0.035581
   110  H    0.133658
   111  H    0.003036
   112  H   -0.021497
   113  H    0.011073
   114  H    0.005570
   115  H    0.001994
   116  H    0.031491
   117  H    0.005713
   118  H   -0.006409
   119  H    0.008063
   120  H    0.003648
   121  N   -0.123363
   122  C    0.080840
   123  C    0.096950
   124  O   -0.259974
   125  C    0.242001
   126  O   -0.345951
   127  H    0.132743
   128  H    0.029032
   129  H    0.015562
   130  H   -0.019263
   131  H    0.159844
   132  N   -0.114491
   133  C    0.072591
   134  C    0.059117
   135  O   -0.247333
   136  C    0.044973
   137  H    0.109014
   138  H    0.027721
   139  H    0.048963
   140  H    0.031333
   141  H    0.004526
   142  N   -0.148521
   143  C    0.125388
   144  C    0.091778
   145  O   -0.238315
   146  C    0.015740
   147  H    0.092127
   148  H    0.015287
   149  H    0.023680
   150  H    0.018591
   151  H   -0.012859
   152  N   -0.164958
   153  C    0.111575
   154  C    0.066459
   155  O   -0.315860
   156  C   -0.014188
   157  C    0.094046
   158  C    0.198280
   159  O   -0.450988
   160  O   -0.420374
   161  H    0.139161
   162  H   -0.018976
   163  H    0.047712
   164  H    0.007746
   165  H   -0.014566
   166  H   -0.008792
   167  N   -0.167393
   168  C    0.138477
   169  H    0.016355
   170  H    0.033463
   171  H    0.003853
   172  H    0.134983
   173  Ca   1.282344
   174  O   -0.282697
   175  H    0.172223
   176  H    0.175738
 Sum of Mulliken charges =  -0.00000

 Dipole moment (field-independent basis, Debye):
    X=            -29.3511    Y=             -5.7747    Z=              0.2333  Tot=             29.9147
 Quadrupole moment (field-independent basis, Debye-Ang):
   XX=           -741.0959   YY=           -417.0210   ZZ=           -489.4486
   XY=             87.4235   XZ=            -23.2288   YZ=           -127.0618

 ESP charges:
               1
     1  C   -0.452734
     2  C    0.882862
     3  O   -0.626393
     4  H    0.129747
     5  H    0.089804
     6  H    0.097996
     7  N   -0.815000
     8  C    0.272795
     9  C    0.455586
    10  O   -0.524757
    11  C   -0.333397
    12  C    0.901205
    13  O   -0.773201
    14  O   -0.708760
    15  H    0.393372
    16  H   -0.020901
    17  H    0.089848
    18  H    0.111027
    19  N   -0.108571
    20  C   -0.258696
    21  C    0.592229
    22  O   -0.543065
    23  C   -0.112678
    24  C    0.116191
    25  C   -0.098827
    26  C    0.028530
    27  N   -0.289214
    28  H    0.159580
    29  H    0.108149
    30  H    0.098867
    31  H    0.025947
    32  H   -0.005300
    33  H   -0.004756
    34  H    0.048898
    35  H    0.057546
    36  H    0.079548
    37  H    0.097727
    38  H    0.295918
    39  H    0.297485
    40  H    0.316641
    41  N   -0.512128
    42  C    0.261023
    43  C    0.344316
    44  O   -0.545024
    45  C   -0.394943
    46  C    0.930295
    47  O   -0.851426
    48  O   -0.736683
    49  H    0.308186
    50  H    0.049743
    51  H    0.069392
    52  H    0.116330
    53  N    0.183385
    54  C   -0.465825
    55  C    0.693282
    56  O   -0.584797
    57  H   -0.105611
    58  H    0.155799
    59  H    0.158892
    60  N   -0.493190
    61  C   -0.020946
    62  C    0.464015
    63  O   -0.571393
    64  C   -0.304578
    65  C    0.719476
    66  N   -0.845134
    67  O   -0.516236
    68  H    0.361579
    69  H    0.117410
    70  H    0.144373
    71  H    0.106579
    72  H    0.381443
    73  H    0.370021
    74  N   -0.185877
    75  C   -0.314520
    76  C    0.698491
    77  O   -0.576044
    78  H    0.389777
    79  H    0.159848
    80  H    0.112578
    81  N   -0.741850
    82  C    0.448474
    83  C    0.543549
    84  O   -0.625493
    85  C   -0.351445
    86  C    0.333572
    87  C   -0.412089
    88  C   -0.254049
    89  C   -0.081234
    90  C   -0.267633
    91  C    0.332108
    92  O   -0.576802
    93  H    0.371319
    94  H   -0.001420
    95  H    0.042833
    96  H    0.063681
    97  H    0.235829
    98  H    0.160931
    99  H    0.130861
   100  H    0.121578
   101  H    0.423390
   102  N   -0.679822
   103  C    0.091376
   104  C    0.629524
   105  O   -0.569214
   106  C    0.086365
   107  C    0.211480
   108  C   -0.269697
   109  C   -0.329103
   110  H    0.346012
   111  H    0.156212
   112  H    0.002287
   113  H   -0.009738
   114  H   -0.015640
   115  H    0.065361
   116  H    0.075652
   117  H    0.052358
   118  H    0.070416
   119  H    0.074284
   120  H    0.068857
   121  N   -0.426789
   122  C   -0.012566
   123  C    0.520558
   124  O   -0.336183
   125  C   -0.054452
   126  O   -0.501591
   127  H    0.301005
   128  H    0.082448
   129  H    0.101170
   130  H    0.079153
   131  H    0.355014
   132  N   -0.537323
   133  C    0.215157
   134  C    0.417165
   135  O   -0.502618
   136  C   -0.351545
   137  H    0.297628
   138  H    0.077710
   139  H    0.131158
   140  H    0.103576
   141  H    0.081948
   142  N   -0.336118
   143  C    0.093796
   144  C    0.320546
   145  O   -0.475784
   146  C   -0.322786
   147  H    0.264517
   148  H    0.080762
   149  H    0.104888
   150  H    0.100787
   151  H    0.067277
   152  N    0.202789
   153  C   -0.517318
   154  C    0.523588
   155  O   -0.590486
   156  C    0.417967
   157  C   -0.248280
   158  C    0.730895
   159  O   -0.634524
   160  O   -0.603148
   161  H    0.017170
   162  H    0.143542
   163  H    0.066993
   164  H   -0.387121
   165  H    0.058957
   166  H    0.043298
   167  N    0.020869
   168  C   -0.231478
   169  H    0.075758
   170  H    0.119178
   171  H    0.065363
   172  H    0.060376
   173  Ca   1.416675
   174  O   -0.789068
   175  H    0.399447
   176  H    0.403844
 Sum of ESP charges =   0.00000

 Normal termination of Gaussian 16 at Sat Sep 14 23:27:33 2019.
