 Gaussian 09, Revision D.01,
 Gaussian 09:  ES64L-G09RevD.01 24-Apr-2013

 ----------------------------------------------------------------------
 #maxdisk=50GB #B3LYP/SVP Density=Current scf=(tight) #IOP(5/87=12)Pop=
 (MK,readradii) iop(6/33=2) iop(6/42=6)
 ----------------------------------------------------------------------

 ------------
 SOL molecule
 ------------
 Symbolic Z-matrix:
 Charge =  0 Multiplicity = 1

                         Standard orientation:
 ---------------------------------------------------------------------
 Center     Atomic      Atomic             Coordinates (Angstroms)
 Number     Number       Type             X           Y           Z
 ---------------------------------------------------------------------
      1          6           0        1.960268    4.186383    4.909857
      2          6           0        1.446266    3.442025    3.694484
      3          8           0        2.289981    2.888233    2.992516
      4          1           0        3.036139    4.036551    4.998529
      5          1           0        1.749420    5.250131    4.801148
      6          1           0        1.466457    3.807397    5.804703
      7          7           0        0.133232    3.410011    3.458864
      8          6           0       -0.462266    2.832202    2.266295
      9          6           0       -0.601449    3.938090    1.225844
     10          8           0       -1.261306    4.943743    1.472930
     11          6           0       -1.847026    2.315303    2.623164
     12          6           0       -2.884897    2.068274    1.533990
     13          8           0       -4.120852    2.065293    1.734507
     14          8           0       -2.481677    1.720215    0.399543
     15          1           0       -0.452021    3.847713    4.156357
     16          1           0        0.140859    2.039717    1.838266
     17          1           0       -2.277204    2.985634    3.359848
     18          1           0       -1.639910    1.372087    3.143689
     19          7           0       -0.051118    3.699474    0.028306
     20          6           0        0.028648    4.684562   -1.031335
     21          6           0       -1.058387    4.678116   -2.106283
     22          8           0       -0.953142    5.524347   -2.986008
     23          6           0        1.411750    4.521529   -1.655393
     24          6           0        2.641966    4.568303   -0.753572
     25          6           0        2.785093    5.813956    0.114738
     26          6           0        3.561333    5.528484    1.404139
     27          7           0        4.008169    6.811348    1.954682
     28          1           0        0.502633    2.868673   -0.112158
     29          1           0        0.045967    5.689528   -0.604434
     30          1           0        1.544288    5.189834   -2.510672
     31          1           0        1.419134    3.494184   -2.019135
     32          1           0        3.565859    4.586701   -1.344319
     33          1           0        2.639342    3.643843   -0.185534
     34          1           0        1.801592    6.207469    0.387089
     35          1           0        3.259606    6.631838   -0.422297
     36          1           0        4.454880    4.942630    1.149484
     37          1           0        2.920307    4.951814    2.066436
     38          1           0        4.327613    6.888901    2.906964
     39          1           0        4.744077    7.074409    1.321485
     40          1           0        3.274478    7.495519    1.830153
     41          7           0       -2.157871    3.939518   -1.934797
     42          6           0       -3.378902    4.065189   -2.712608
     43          6           0       -4.692467    3.955353   -1.943269
     44          8           0       -5.732821    4.040240   -2.601948
     45          6           0       -3.342476    3.141979   -3.921639
     46          6           0       -3.477616    1.664851   -3.575182
     47          8           0       -2.995363    1.164905   -2.528623
     48          8           0       -4.195290    0.997036   -4.349693
     49          1           0       -2.132813    3.242860   -1.208202
     50          1           0       -3.398690    5.055623   -3.180420
     51          1           0       -2.418168    3.291616   -4.473963
     52          1           0       -4.081303    3.396851   -4.669686
     53          7           0       -4.774753    3.695212   -0.640020
     54          6           0       -6.071989    3.617561    0.014004
     55          6           0       -6.663360    2.225653   -0.133898
     56          8           0       -7.895667    2.180005   -0.113009
     57          1           0       -3.970844    3.409691   -0.097703
     58          1           0       -6.835383    4.260659   -0.425375
     59          1           0       -5.904153    3.794360    1.076582
     60          7           0       -5.945368    1.145514   -0.431699
     61          6           0       -6.482518   -0.199549   -0.495543
     62          6           0       -6.390626   -0.997519    0.797593
     63          8           0       -7.143848   -1.956557    0.966122
     64          6           0       -5.910420   -0.949746   -1.689699
     65          6           0       -4.472541   -1.460346   -1.574841
     66          7           0       -4.017943   -2.264838   -2.538030
     67          8           0       -3.704805   -1.129169   -0.684277
     68          1           0       -4.944997    1.127263   -0.257850
     69          1           0       -7.554512   -0.099686   -0.666294
     70          1           0       -6.035099   -0.390581   -2.614464
     71          1           0       -6.497999   -1.864464   -1.796666
     72          1           0       -4.644932   -2.617770   -3.249103
     73          1           0       -3.136094   -2.725720   -2.352747
     74          7           0       -5.619032   -0.547684    1.782525
     75          6           0       -5.584442   -1.163668    3.089723
     76          6           0       -4.638110   -2.339826    3.208505
     77          8           0       -4.677990   -3.104922    4.172163
     78          1           0       -5.296331    0.399532    1.591359
     79          1           0       -6.546796   -1.382887    3.562606
     80          1           0       -5.267302   -0.392224    3.785277
     81          7           0       -3.770064   -2.549737    2.208789
     82          6           0       -2.640451   -3.459227    2.218960
     83          6           0       -1.387706   -2.950303    1.505569
     84          8           0       -1.453126   -2.092333    0.631836
     85          6           0       -3.070875   -4.877991    1.851343
     86          6           0       -3.902837   -5.072957    0.600332
     87          6           0       -3.308109   -5.573792   -0.571317
     88          6           0       -5.278849   -4.847598    0.553372
     89          6           0       -4.036437   -5.612662   -1.763218
     90          6           0       -6.100676   -5.051185   -0.558991
     91          6           0       -5.426160   -5.385557   -1.753530
     92          8           0       -6.196258   -5.710786   -2.823145
     93          1           0       -3.835367   -1.980332    1.386345
     94          1           0       -2.309625   -3.615525    3.235928
     95          1           0       -3.661663   -5.391921    2.603304
     96          1           0       -2.120082   -5.405841    1.811766
     97          1           0       -2.236766   -5.691732   -0.617298
     98          1           0       -5.730272   -4.440989    1.451919
     99          1           0       -3.628777   -5.929422   -2.715728
    100          1           0       -7.148287   -4.810027   -0.595798
    101          1           0       -7.113238   -5.447293   -2.687797
    102          7           0       -0.217714   -3.366691    1.983416
    103          6           0        1.113739   -2.802246    1.917576
    104          6           0        2.020893   -3.721194    1.100993
    105          8           0        1.979648   -4.937834    1.275027
    106          6           0        1.653877   -2.488626    3.302601
    107          6           0        0.742417   -1.699096    4.233344
    108          6           0        3.001096   -1.769169    3.165188
    109          6           0        0.320481   -0.286097    3.833466
    110          1           0       -0.275418   -4.171005    2.599735
    111          1           0        1.128800   -1.843781    1.386807
    112          1           0        1.739642   -3.450786    3.808460
    113          1           0        1.199510   -1.604914    5.218431
    114          1           0       -0.126927   -2.299259    4.496869
    115          1           0        3.791995   -2.348697    2.694840
    116          1           0        2.867661   -0.905786    2.513141
    117          1           0        3.375379   -1.388644    4.117875
    118          1           0        1.206896    0.350252    3.818334
    119          1           0        0.006466   -0.324907    2.793039
    120          1           0       -0.458944    0.045505    4.515475
    121          7           0        2.770722   -3.180979    0.137809
    122          6           0        3.655156   -3.871247   -0.772524
    123          6           0        5.076006   -3.419164   -0.491979
    124          8           0        5.349913   -2.560219    0.352822
    125          6           0        3.128343   -3.664407   -2.196844
    126          8           0        3.012418   -2.289144   -2.468532
    127          1           0        2.611878   -2.190878   -0.017652
    128          1           0        3.634413   -4.945738   -0.576726
    129          1           0        2.177252   -4.175304   -2.333630
    130          1           0        3.797145   -4.111900   -2.932067
    131          1           0        2.386187   -1.946259   -1.834525
    132          7           0        6.000806   -3.961755   -1.292941
    133          6           0        7.405402   -3.746379   -0.994912
    134          6           0        7.879671   -2.350401   -1.369763
    135          8           0        8.779156   -1.815012   -0.714868
    136          6           0        8.237900   -4.748884   -1.788153
    137          1           0        5.746831   -4.709736   -1.920971
    138          1           0        7.434778   -3.813217    0.089325
    139          1           0        8.157962   -5.706789   -1.287226
    140          1           0        7.849280   -4.801283   -2.807382
    141          1           0        9.303013   -4.514599   -1.767059
    142          7           0        7.281565   -1.725220   -2.389968
    143          6           0        7.542723   -0.347449   -2.757585
    144          6           0        6.986471    0.662227   -1.770600
    145          8           0        7.410677    1.813303   -1.789899
    146          6           0        7.003155   -0.010941   -4.148386
    147          1           0        6.559335   -2.253344   -2.850368
    148          1           0        8.621376   -0.205300   -2.804517
    149          1           0        5.936208   -0.241626   -4.145320
    150          1           0        7.137772    1.041004   -4.377712
    151          1           0        7.579710   -0.539393   -4.915799
    152          7           0        5.977894    0.281296   -0.979106
    153          6           0        5.370224    1.094929    0.045608
    154          6           0        6.236345    1.051341    1.301647
    155          8           0        6.549998    2.074387    1.905634
    156          6           0        3.947712    0.619263    0.347936
    157          6           0        3.080834    0.814797   -0.893551
    158          6           0        1.651629    0.335173   -0.673925
    159          8           0        0.695698    1.090073   -0.407804
    160          8           0        1.411434   -0.890660   -0.757833
    161          1           0        5.642032   -0.668459   -1.057607
    162          1           0        5.354142    2.149098   -0.207905
    163          1           0        3.623556    1.165253    1.227094
    164          1           0        3.995952   -0.451262    0.581492
    165          1           0        3.532077    0.163788   -1.652211
    166          1           0        3.177752    1.822964   -1.293060
    167          7           0        6.692964   -0.175029    1.589423
    168          6           0        7.587142   -0.394478    2.704092
    169          1           0        7.247706    0.187312    3.561854
    170          1           0        7.592554   -1.453325    2.963288
    171          1           0        8.595131   -0.081465    2.429310
    172          1           0        6.354268   -0.892511    0.975253
    173         20           0       -1.320170   -0.129708   -1.128228
    174          8           0       -0.027309    0.529779   -3.363533
    175          1           0       -0.532213    0.163356   -4.092303
    176          1           0        0.872380    0.533709   -3.680776
 ---------------------------------------------------------------------

 SCF Done:  E(RB3LYP) =  -5333.62003748     A.U. after   20 cycles

 The electronic state is 1-A.
 Alpha  occ. eigenvalues -- -145.39011 -19.18772 -19.15986 -19.15678 -19.15422
 Alpha  occ. eigenvalues --  -19.13415 -19.13097 -19.12804 -19.12456 -19.11822
 Alpha  occ. eigenvalues --  -19.11029 -19.10653 -19.10359 -19.09474 -19.09108
 Alpha  occ. eigenvalues --  -19.07310 -19.06582 -19.06143 -19.06002 -19.05150
 Alpha  occ. eigenvalues --  -19.03199 -19.03129 -19.02439 -18.99298 -15.44789
 Alpha  occ. eigenvalues --  -14.57245 -14.40991 -14.38545 -14.38149 -14.38104
 Alpha  occ. eigenvalues --  -14.36931 -14.36919 -14.35207 -14.34458 -14.34058
 Alpha  occ. eigenvalues --  -14.33382 -14.31824 -14.31759 -14.29787 -14.29692
 Alpha  occ. eigenvalues --  -12.58418 -12.58364 -12.58331 -10.33699 -10.32521
 Alpha  occ. eigenvalues --  -10.31891 -10.31851 -10.31259 -10.30718 -10.29873
 Alpha  occ. eigenvalues --  -10.29260 -10.28907 -10.27476 -10.27451 -10.27417
 Alpha  occ. eigenvalues --  -10.27106 -10.26878 -10.26493 -10.26280 -10.25689
 Alpha  occ. eigenvalues --  -10.25535 -10.25331 -10.25105 -10.24502 -10.24314
 Alpha  occ. eigenvalues --  -10.24025 -10.23956 -10.23499 -10.23163 -10.22941
 Alpha  occ. eigenvalues --  -10.22837 -10.22793 -10.22591 -10.22289 -10.21755
 Alpha  occ. eigenvalues --  -10.21474 -10.21391 -10.21347 -10.21028 -10.20665
 Alpha  occ. eigenvalues --  -10.20239 -10.20204 -10.19607 -10.19305 -10.19201
 Alpha  occ. eigenvalues --  -10.18942 -10.18863 -10.18692 -10.18577 -10.18452
 Alpha  occ. eigenvalues --  -10.18393 -10.18304 -10.17967 -10.17814 -10.17528
 Alpha  occ. eigenvalues --  -10.17089 -10.12332  -1.81656  -1.12790  -1.09859
 Alpha  occ. eigenvalues --   -1.09295  -1.08975  -1.08609  -1.07628  -1.06179
 Alpha  occ. eigenvalues --   -1.05392  -1.05014  -1.04784  -1.04752  -1.04567
 Alpha  occ. eigenvalues --   -1.03840  -1.03813  -1.03580  -1.02168  -1.01835
 Alpha  occ. eigenvalues --   -1.00637  -1.00459  -0.99787  -0.99194  -0.98008
 Alpha  occ. eigenvalues --   -0.97514  -0.97098  -0.96173  -0.95283  -0.95166
 Alpha  occ. eigenvalues --   -0.95114  -0.94598  -0.93951  -0.93870  -0.91901
 Alpha  occ. eigenvalues --   -0.90842  -0.90671  -0.90030  -0.89809  -0.88687
 Alpha  occ. eigenvalues --   -0.88391  -0.87256  -0.86750  -0.85425  -0.85107
 Alpha  occ. eigenvalues --   -0.84181  -0.83746  -0.82964  -0.81916  -0.80813
 Alpha  occ. eigenvalues --   -0.79614  -0.79505  -0.78873  -0.78410  -0.75702
 Alpha  occ. eigenvalues --   -0.75639  -0.75282  -0.74811  -0.74717  -0.73506
 Alpha  occ. eigenvalues --   -0.73416  -0.72820  -0.71996  -0.71882  -0.71550
 Alpha  occ. eigenvalues --   -0.70486  -0.70387  -0.69843  -0.68918  -0.68395
 Alpha  occ. eigenvalues --   -0.67772  -0.67205  -0.66228  -0.66050  -0.65774
 Alpha  occ. eigenvalues --   -0.64735  -0.64305  -0.63955  -0.62299  -0.62128
 Alpha  occ. eigenvalues --   -0.61712  -0.61614  -0.61417  -0.61187  -0.60654
 Alpha  occ. eigenvalues --   -0.60426  -0.59554  -0.59192  -0.58882  -0.58619
 Alpha  occ. eigenvalues --   -0.58539  -0.57964  -0.57938  -0.57617  -0.57018
 Alpha  occ. eigenvalues --   -0.56689  -0.56212  -0.55955  -0.55625  -0.55213
 Alpha  occ. eigenvalues --   -0.54983  -0.54738  -0.54706  -0.54232  -0.53981
 Alpha  occ. eigenvalues --   -0.53822  -0.53646  -0.53520  -0.52857  -0.52393
 Alpha  occ. eigenvalues --   -0.52265  -0.51977  -0.51636  -0.51399  -0.51355
 Alpha  occ. eigenvalues --   -0.51039  -0.50618  -0.50173  -0.50102  -0.49568
 Alpha  occ. eigenvalues --   -0.49447  -0.48938  -0.48910  -0.48844  -0.48539
 Alpha  occ. eigenvalues --   -0.48290  -0.48214  -0.47968  -0.47591  -0.47538
 Alpha  occ. eigenvalues --   -0.47360  -0.47211  -0.47149  -0.47048  -0.46767
 Alpha  occ. eigenvalues --   -0.46503  -0.46228  -0.45974  -0.45842  -0.45570
 Alpha  occ. eigenvalues --   -0.45511  -0.45158  -0.45036  -0.44843  -0.44781
 Alpha  occ. eigenvalues --   -0.44699  -0.44560  -0.44440  -0.44275  -0.44170
 Alpha  occ. eigenvalues --   -0.44137  -0.43786  -0.43686  -0.43605  -0.43169
 Alpha  occ. eigenvalues --   -0.42956  -0.42765  -0.42674  -0.42645  -0.42427
 Alpha  occ. eigenvalues --   -0.42306  -0.42280  -0.42088  -0.42050  -0.41870
 Alpha  occ. eigenvalues --   -0.41710  -0.41660  -0.41486  -0.41142  -0.40965
 Alpha  occ. eigenvalues --   -0.40917  -0.40848  -0.40637  -0.40511  -0.40330
 Alpha  occ. eigenvalues --   -0.40249  -0.40062  -0.39942  -0.39846  -0.39829
 Alpha  occ. eigenvalues --   -0.39744  -0.39562  -0.39465  -0.39061  -0.38885
 Alpha  occ. eigenvalues --   -0.38763  -0.38640  -0.38544  -0.38465  -0.38347
 Alpha  occ. eigenvalues --   -0.38068  -0.37985  -0.37652  -0.37387  -0.37320
 Alpha  occ. eigenvalues --   -0.37088  -0.36883  -0.36717  -0.36668  -0.36524
 Alpha  occ. eigenvalues --   -0.36291  -0.36146  -0.35896  -0.35748  -0.35523
 Alpha  occ. eigenvalues --   -0.35484  -0.35278  -0.35157  -0.34945  -0.34719
 Alpha  occ. eigenvalues --   -0.34062  -0.33920  -0.33580  -0.33366  -0.33150
 Alpha  occ. eigenvalues --   -0.32925  -0.32860  -0.32787  -0.32534  -0.32171
 Alpha  occ. eigenvalues --   -0.32113  -0.31607  -0.31339  -0.31254  -0.30997
 Alpha  occ. eigenvalues --   -0.30658  -0.30400  -0.30098  -0.29602  -0.29549
 Alpha  occ. eigenvalues --   -0.29323  -0.29089  -0.28841  -0.28579  -0.28045
 Alpha  occ. eigenvalues --   -0.27989  -0.27682  -0.27217  -0.26967  -0.26682
 Alpha  occ. eigenvalues --   -0.26343  -0.25749  -0.25357  -0.25257  -0.24801
 Alpha  occ. eigenvalues --   -0.24707  -0.24291  -0.24254  -0.24103  -0.23651
 Alpha  occ. eigenvalues --   -0.23328  -0.23190  -0.22261  -0.22038  -0.21623
 Alpha  occ. eigenvalues --   -0.21543  -0.20665  -0.19719  -0.19142  -0.19025
 Alpha  occ. eigenvalues --   -0.18527  -0.17961  -0.15266
 Alpha virt. eigenvalues --   -0.09366  -0.04009  -0.03894  -0.03145  -0.03015
 Alpha virt. eigenvalues --   -0.01883  -0.01059  -0.00925  -0.00761  -0.00723
 Alpha virt. eigenvalues --   -0.00586   0.00169   0.00476   0.00580   0.00733

 Mulliken charges:
               1
     1  C    0.040189
     2  C    0.026661
     3  O   -0.310349
     4  H    0.030506
     5  H    0.007921
     6  H    0.044506
     7  N   -0.108189
     8  C    0.154482
     9  C    0.020256
    10  O   -0.286191
    11  C    0.082600
    12  C    0.146775
    13  O   -0.378156
    14  O   -0.460769
    15  H    0.123631
    16  H   -0.001740
    17  H   -0.008302
    18  H    0.011299
    19  N   -0.143872
    20  C    0.120272
    21  C    0.077040
    22  O   -0.302457
    23  C   -0.005132
    24  C    0.019287
    25  C   -0.069915
    26  C    0.015434
    27  N    0.083168
    28  H    0.144528
    29  H    0.013495
    30  H    0.024336
    31  H   -0.009454
    32  H    0.017815
    33  H    0.031914
    34  H    0.034979
    35  H   -0.001087
    36  H    0.089997
    37  H    0.094888
    38  H    0.187576
    39  H    0.187460
    40  H    0.183050
    41  N   -0.127128
    42  C    0.126359
    43  C    0.074956
    44  O   -0.297389
    45  C    0.107171
    46  C    0.078403
    47  O   -0.489363
    48  O   -0.365595
    49  H    0.153157
    50  H    0.016053
    51  H   -0.023190
    52  H    0.003179
    53  N   -0.155936
    54  C    0.282625
    55  C    0.008462
    56  O   -0.306737
    57  H    0.118628
    58  H    0.031517
    59  H    0.015592
    60  N   -0.142098
    61  C    0.142026
    62  C    0.027949
    63  O   -0.294777
    64  C    0.068553
    65  C    0.080519
    66  N   -0.030483
    67  O   -0.359758
    68  H    0.145066
    69  H    0.024167
    70  H    0.078554
    71  H    0.008038
    72  H    0.135213
    73  H    0.116713
    74  N   -0.163522
    75  C    0.240418
    76  C    0.029115
    77  O   -0.294947
    78  H    0.152637
    79  H    0.026554
    80  H    0.016515
    81  N   -0.146239
    82  C    0.120434
    83  C    0.117631
    84  O   -0.347033
    85  C    0.158512
    86  C   -0.052381
    87  C   -0.004992
    88  C   -0.014340
    89  C   -0.039200
    90  C   -0.005280
    91  C    0.111430
    92  O   -0.202799
    93  H    0.160313
    94  H   -0.001818
    95  H    0.028975
    96  H   -0.037155
    97  H   -0.035290
    98  H    0.004210
    99  H   -0.031329
   100  H   -0.019802
   101  H    0.178657
   102  N   -0.103270
   103  C    0.126536
   104  C    0.064760
   105  O   -0.286125
   106  C   -0.070276
   107  C    0.033684
   108  C    0.046202
   109  C   -0.043531
   110  H    0.134037
   111  H    0.006768
   112  H   -0.012740
   113  H   -0.009663
   114  H   -0.014522
   115  H    0.025839
   116  H    0.001813
   117  H    0.010003
   118  H    0.027468
   119  H    0.031624
   120  H    0.036420
   121  N   -0.147121
   122  C    0.058806
   123  C    0.127186
   124  O   -0.280712
   125  C    0.261708
   126  O   -0.336236
   127  H    0.139880
   128  H    0.031401
   129  H    0.014728
   130  H   -0.022095
   131  H    0.162920
   132  N   -0.154323
   133  C    0.093197
   134  C    0.037527
   135  O   -0.269669
   136  C    0.054211
   137  H    0.125653
   138  H    0.026323
   139  H    0.030791
   140  H    0.014599
   141  H    0.049186
   142  N   -0.139269
   143  C    0.102721
   144  C    0.070520
   145  O   -0.276188
   146  C    0.044077
   147  H    0.108912
   148  H    0.029408
   149  H    0.009719
   150  H    0.035653
   151  H    0.025782
   152  N   -0.162470
   153  C    0.126874
   154  C    0.054812
   155  O   -0.286301
   156  C   -0.066790
   157  C    0.090449
   158  C    0.205045
   159  O   -0.424747
   160  O   -0.435693
   161  H    0.128042
   162  H   -0.016998
   163  H    0.053611
   164  H    0.022518
   165  H   -0.016565
   166  H   -0.009757
   167  N   -0.166169
   168  C    0.155825
   169  H    0.019637
   170  H    0.011733
   171  H    0.031103
   172  H    0.128894
   173  Ca   1.305020
   174  O   -0.283977
   175  H    0.192941
   176  H    0.180472
 Sum of Mulliken charges =   0.00000

 Dipole moment (field-independent basis, Debye):
    X=             32.2165    Y=              3.5203    Z=              6.0021  Tot=             32.9594
 Quadrupole moment (field-independent basis, Debye-Ang):
   XX=           -689.4129   YY=           -438.1421   ZZ=           -546.9655
   XY=             86.4549   XZ=            -19.0472   YZ=            117.2579

 ESP charges:
               1
     1  C   -0.472070
     2  C    0.945273
     3  O   -0.693365
     4  H    0.130442
     5  H    0.100991
     6  H    0.122048
     7  N   -0.943678
     8  C    0.593702
     9  C    0.449650
    10  O   -0.560094
    11  C   -0.348587
    12  C    0.809758
    13  O   -0.673999
    14  O   -0.839874
    15  H    0.406827
    16  H   -0.100864
    17  H    0.076226
    18  H    0.062203
    19  N   -0.376484
    20  C   -0.051270
    21  C    0.714473
    22  O   -0.587487
    23  C   -0.250444
    24  C    0.286878
    25  C   -0.108680
    26  C    0.324673
    27  N   -0.371787
    28  H    0.260394
    29  H    0.074968
    30  H    0.073568
    31  H    0.050513
    32  H   -0.030115
    33  H   -0.040661
    34  H    0.052597
    35  H    0.000517
    36  H   -0.006643
    37  H   -0.048541
    38  H    0.333321
    39  H    0.311627
    40  H    0.292396
    41  N   -0.555087
    42  C   -0.012092
    43  C    0.439789
    44  O   -0.504349
    45  C   -0.122660
    46  C    0.705643
    47  O   -0.813533
    48  O   -0.671760
    49  H    0.303394
    50  H    0.119217
    51  H    0.046799
    52  H    0.056368
    53  N   -0.281871
    54  C   -0.252520
    55  C    0.585176
    56  O   -0.585180
    57  H    0.281336
    58  H    0.150715
    59  H    0.116003
    60  N   -0.186955
    61  C   -0.116501
    62  C    0.448336
    63  O   -0.538661
    64  C   -0.104769
    65  C    0.639183
    66  N   -0.762807
    67  O   -0.537624
    68  H    0.237080
    69  H    0.133175
    70  H    0.129537
    71  H    0.011706
    72  H    0.357817
    73  H    0.327967
    74  N   -0.134525
    75  C   -0.203039
    76  C    0.513008
    77  O   -0.542362
    78  H    0.165725
    79  H    0.125210
    80  H    0.120491
    81  N   -0.416533
    82  C    0.149214
    83  C    0.638364
    84  O   -0.650481
    85  C   -0.227265
    86  C    0.159085
    87  C   -0.234094
    88  C   -0.168616
    89  C   -0.216789
    90  C   -0.298307
    91  C    0.418200
    92  O   -0.586498
    93  H    0.226930
    94  H    0.049824
    95  H    0.104548
    96  H    0.041400
    97  H    0.129201
    98  H    0.175732
    99  H    0.130810
   100  H    0.157319
   101  H    0.419201
   102  N   -0.519858
   103  C   -0.087044
   104  C    0.586156
   105  O   -0.550856
   106  C    0.040823
   107  C    0.045606
   108  C   -0.276189
   109  C   -0.280086
   110  H    0.317076
   111  H    0.104732
   112  H    0.029628
   113  H    0.014864
   114  H    0.004481
   115  H    0.056288
   116  H    0.082514
   117  H    0.087035
   118  H    0.095999
   119  H    0.096574
   120  H    0.105461
   121  N   -0.392552
   122  C   -0.209733
   123  C    0.600081
   124  O   -0.464391
   125  C    0.222560
   126  O   -0.586807
   127  H    0.589864
   128  H    0.103209
   129  H    0.031742
   130  H    0.019535
   131  H    0.333308
   132  N   -0.456713
   133  C    0.159921
   134  C    0.523429
   135  O   -0.549944
   136  C   -0.401565
   137  H    0.289959
   138  H    0.068915
   139  H    0.118318
   140  H    0.104269
   141  H    0.148850
   142  N   -0.475313
   143  C    0.210868
   144  C    0.263029
   145  O   -0.506390
   146  C   -0.354880
   147  H    0.277866
   148  H    0.094661
   149  H    0.083972
   150  H    0.134068
   151  H    0.098710
   152  N    0.058925
   153  C   -0.030705
   154  C    0.487918
   155  O   -0.551979
   156  C   -0.281971
   157  C   -0.052931
   158  C    0.885936
   159  O   -0.674522
   160  O   -0.897999
   161  H    0.082956
   162  H    0.063659
   163  H    0.180733
   164  H   -0.091443
   165  H   -0.007498
   166  H    0.008000
   167  N   -0.124225
   168  C   -0.288086
   169  H    0.109367
   170  H    0.108464
   171  H    0.123779
   172  H    0.155955
   173  Ca   1.636215
   174  O   -0.817911
   175  H    0.414604
   176  H    0.413676
 Sum of ESP charges =   0.00000

 Normal termination of Gaussian 09 at Mon Sep 16 19:04:37 2019.
