 Gaussian 16, Revision A.03,
 Gaussian 16:  ES64L-G16RevA.03 25-Dec-2016

 ----------------------------------------------------------------------
 #b3lyp/svp scf=(tight,noincore) Test #IOP(5/87=12) Density=Current Pop
 =(MK,readradii) iop(6/33=2) iop(6/42=6)
 ----------------------------------------------------------------------

 ------------------
 holoCaM_loop3_62.0
 ------------------
 Symbolic Z-matrix:
 Charge =  0 Multiplicity = 1

                         Standard orientation:
 ---------------------------------------------------------------------
 Center     Atomic      Atomic             Coordinates (Angstroms)
 Number     Number       Type             X           Y           Z
 ---------------------------------------------------------------------
      1          6           0        2.369884    3.005721    4.194275
      2          6           0        1.500474    2.965231    2.942641
      3          8           0        1.990597    3.123316    1.835353
      4          1           0        3.379300    2.677010    3.945627
      5          1           0        2.404458    4.024896    4.581005
      6          1           0        1.948900    2.343554    4.950670
      7          7           0        0.207477    2.675464    3.101375
      8          6           0       -0.842770    2.487331    2.122505
      9          6           0       -1.366601    3.863726    1.759135
     10          8           0       -2.554495    4.104072    1.950034
     11          6           0       -1.891957    1.512451    2.659361
     12          6           0       -2.959112    1.134452    1.640933
     13          8           0       -2.598141    1.070643    0.440463
     14          8           0       -4.122400    0.872058    2.009730
     15          1           0       -0.045490    2.600537    4.074717
     16          1           0       -0.412894    2.046383    1.213785
     17          1           0       -2.414920    1.875290    3.542909
     18          1           0       -1.356229    0.638059    3.029947
     19          7           0       -0.517945    4.732188    1.209537
     20          6           0       -0.785473    6.073706    0.729583
     21          6           0       -2.074863    6.154220   -0.071412
     22          8           0       -2.916528    6.990792    0.254545
     23          6           0        0.399362    6.546206   -0.100724
     24          6           0        1.779094    6.420609    0.541823
     25          6           0        2.836358    7.095021   -0.335993
     26          6           0        3.414130    6.132939   -1.362384
     27          7           0        4.477170    5.304805   -0.769308
     28          1           0        0.431922    4.398922    1.098698
     29          1           0       -0.900812    6.844004    1.503042
     30          1           0        0.301360    7.599175   -0.367840
     31          1           0        0.386868    5.861964   -0.954514
     32          1           0        1.968063    5.360367    0.693735
     33          1           0        1.852988    6.960561    1.493133
     34          1           0        3.593405    7.479764    0.350340
     35          1           0        2.369372    7.952078   -0.819601
     36          1           0        3.889608    6.695677   -2.173461
     37          1           0        2.647036    5.487050   -1.797118
     38          1           0        5.086493    5.905827   -0.223691
     39          1           0        4.132638    4.728631   -0.015438
     40          1           0        5.040008    4.758948   -1.403228
     41          7           0       -2.249540    5.215920   -0.999033
     42          6           0       -3.436728    5.094791   -1.826386
     43          6           0       -4.667982    4.411309   -1.250307
     44          8           0       -5.787439    4.484986   -1.772597
     45          6           0       -3.059129    4.247049   -3.035415
     46          6           0       -2.558892    2.834972   -2.756129
     47          8           0       -1.476820    2.652843   -2.152350
     48          8           0       -3.249220    1.799854   -2.874782
     49          1           0       -1.471872    4.610780   -1.230418
     50          1           0       -3.623716    6.102034   -2.202545
     51          1           0       -2.240022    4.779114   -3.512459
     52          1           0       -3.842373    4.212570   -3.794059
     53          7           0       -4.595015    3.768274   -0.080956
     54          6           0       -5.758985    3.352168    0.671992
     55          6           0       -6.417768    2.030312    0.285597
     56          8           0       -7.477631    1.769321    0.843607
     57          1           0       -3.674768    3.552846    0.279094
     58          1           0       -6.566228    4.074619    0.593114
     59          1           0       -5.514684    3.342002    1.738769
     60          7           0       -5.895100    1.263810   -0.675128
     61          6           0       -6.539712    0.080581   -1.194496
     62          6           0       -6.478689   -1.125410   -0.268125
     63          8           0       -7.020187   -2.140762   -0.704518
     64          6           0       -6.051834   -0.211951   -2.615376
     65          6           0       -4.744064   -0.974448   -2.709905
     66          7           0       -4.633447   -1.787464   -3.774315
     67          8           0       -3.831457   -1.033929   -1.891791
     68          1           0       -4.938094    1.445305   -0.951711
     69          1           0       -7.556043    0.438563   -1.280054
     70          1           0       -5.837877    0.714847   -3.128180
     71          1           0       -6.866634   -0.745683   -3.110484
     72          1           0       -5.430972   -1.838619   -4.388674
     73          1           0       -3.853467   -2.423697   -3.758864
     74          7           0       -5.907420   -1.013406    0.934541
     75          6           0       -5.899227   -2.043909    1.948738
     76          6           0       -4.691716   -2.973043    1.943544
     77          8           0       -4.669597   -3.836873    2.814123
     78          1           0       -5.674097   -0.088259    1.253075
     79          1           0       -6.804837   -2.631367    1.793287
     80          1           0       -5.941128   -1.464083    2.866859
     81          7           0       -3.707682   -2.794770    1.056585
     82          6           0       -2.506196   -3.587385    0.932115
     83          6           0       -1.218974   -2.773914    0.838188
     84          8           0       -1.221028   -1.614120    0.436973
     85          6           0       -2.702291   -4.360084   -0.366609
     86          6           0       -3.926902   -5.231227   -0.313348
     87          6           0       -5.125250   -4.881178   -0.960517
     88          6           0       -3.821720   -6.449998    0.362251
     89          6           0       -6.264343   -5.629217   -0.660008
     90          6           0       -4.958910   -7.212036    0.663409
     91          6           0       -6.198432   -6.798539    0.118609
     92          8           0       -7.301896   -7.601554    0.207674
     93          1           0       -3.814861   -2.010186    0.420707
     94          1           0       -2.381047   -4.288815    1.767899
     95          1           0       -1.816638   -4.904581   -0.684951
     96          1           0       -2.916117   -3.527572   -1.042850
     97          1           0       -5.193557   -4.012522   -1.591840
     98          1           0       -2.926567   -6.776155    0.872664
     99          1           0       -7.121376   -5.278749   -1.219978
    100          1           0       -4.880144   -8.179923    1.126971
    101          1           0       -7.082022   -8.399206    0.693789
    102          7           0       -0.042500   -3.328500    1.144203
    103          6           0        1.199684   -2.583962    1.236071
    104          6           0        2.264414   -3.515002    0.684241
    105          8           0        2.432556   -4.642638    1.138187
    106          6           0        1.505112   -2.239661    2.681156
    107          6           0        0.574490   -1.188485    3.274005
    108          6           0        2.946999   -1.752749    2.794203
    109          6           0        0.564739   -1.355246    4.788929
    110          1           0       -0.087925   -4.204805    1.635859
    111          1           0        1.179887   -1.679273    0.623416
    112          1           0        1.473720   -3.098718    3.349464
    113          1           0       -0.445923   -1.405547    2.969799
    114          1           0        0.932021   -0.228019    2.912373
    115          1           0        3.123876   -0.802071    2.288806
    116          1           0        3.217779   -1.482662    3.819060
    117          1           0        3.626642   -2.533619    2.449637
    118          1           0        0.228809   -2.343459    5.105135
    119          1           0        1.515134   -1.069040    5.248751
    120          1           0       -0.244337   -0.712746    5.147663
    121          7           0        2.983398   -3.072672   -0.355761
    122          6           0        4.109657   -3.755293   -0.968434
    123          6           0        5.428656   -3.339032   -0.324720
    124          8           0        5.574448   -2.384038    0.431475
    125          6           0        4.195597   -3.628338   -2.486656
    126          8           0        4.371983   -2.278283   -2.850992
    127          1           0        2.777446   -2.135821   -0.653913
    128          1           0        3.865102   -4.812350   -0.863915
    129          1           0        3.247424   -4.023064   -2.828502
    130          1           0        5.083523   -4.192928   -2.782838
    131          1           0        3.621950   -1.765457   -2.534669
    132          7           0        6.490306   -4.054886   -0.694656
    133          6           0        7.819765   -3.737855   -0.218703
    134          6           0        8.232975   -2.309547   -0.513822
    135          8           0        8.828851   -1.659962    0.347961
    136          6           0        8.901132   -4.666837   -0.774885
    137          1           0        6.394899   -4.860419   -1.302450
    138          1           0        7.973496   -3.874271    0.855707
    139          1           0        8.716301   -5.682853   -0.422679
    140          1           0        8.864472   -4.622103   -1.858700
    141          1           0        9.921597   -4.361346   -0.566495
    142          7           0        7.861308   -1.771235   -1.679791
    143          6           0        8.163677   -0.404810   -2.060262
    144          6           0        7.336895    0.658150   -1.363594
    145          8           0        7.710052    1.832816   -1.311494
    146          6           0        8.238322   -0.243862   -3.582604
    147          1           0        7.478818   -2.439247   -2.331988
    148          1           0        9.175559   -0.229943   -1.716728
    149          1           0        7.415415   -0.737457   -4.112687
    150          1           0        8.081548    0.783306   -3.925747
    151          1           0        9.165417   -0.664000   -3.959403
    152          7           0        6.143957    0.253262   -0.899843
    153          6           0        5.320621    1.067467   -0.031978
    154          6           0        5.786634    1.098117    1.419088
    155          8           0        5.684443    2.102754    2.123901
    156          6           0        3.894288    0.517947   -0.000325
    157          6           0        3.267411    0.884471   -1.350023
    158          6           0        1.934259    0.147205   -1.326687
    159          8           0        1.795608   -0.962591   -1.899074
    160          8           0        0.906738    0.733036   -0.933747
    161          1           0        5.892667   -0.710562   -1.075614
    162          1           0        5.246748    2.116500   -0.300626
    163          1           0        3.391404    0.932894    0.869748
    164          1           0        3.928717   -0.564542    0.124710
    165          1           0        3.919323    0.417291   -2.088707
    166          1           0        3.080843    1.946572   -1.468908
    167          7           0        6.306897   -0.006997    1.943063
    168          6           0        7.015138   -0.044947    3.207798
    169          1           0        8.061761   -0.295287    3.030455
    170          1           0        6.952038    0.930373    3.689783
    171          1           0        6.566356   -0.798890    3.853596
    172          1           0        6.312304   -0.840415    1.362817
    173         20           0       -1.504892    0.122473   -1.641528
    174          8           0       -0.923456   -2.389589   -2.674811
    175          1           0       -1.615028   -2.758811   -3.218413
    176          1           0       -0.195247   -3.001523   -2.753855
 ---------------------------------------------------------------------

 SCF Done:  E(RB3LYP) =  -5333.62113881     A.U. after   19 cycles

 The electronic state is 1-A.
 Alpha  occ. eigenvalues -- -145.36565 -19.18537 -19.15453 -19.14956 -19.14301
 Alpha  occ. eigenvalues --  -19.12284 -19.11788 -19.11129 -19.10982 -19.10389
 Alpha  occ. eigenvalues --  -19.10340 -19.08695 -19.08479 -19.08103 -19.07345
 Alpha  occ. eigenvalues --  -19.07294 -19.05515 -19.05463 -19.05300 -19.05274
 Alpha  occ. eigenvalues --  -19.04144 -19.03376 -19.02838 -19.01723 -15.42302
 Alpha  occ. eigenvalues --  -14.56071 -14.40559 -14.38482 -14.36852 -14.36726
 Alpha  occ. eigenvalues --  -14.36119 -14.36031 -14.36020 -14.35134 -14.33737
 Alpha  occ. eigenvalues --  -14.33118 -14.32322 -14.30000 -14.29483 -14.29471
 Alpha  occ. eigenvalues --  -12.55921 -12.55877 -12.55862 -10.34046 -10.32987
 Alpha  occ. eigenvalues --  -10.30637 -10.30600 -10.29742 -10.29446 -10.28943
 Alpha  occ. eigenvalues --  -10.28850 -10.27458 -10.27334 -10.27218 -10.27021
 Alpha  occ. eigenvalues --  -10.26854 -10.26744 -10.26209 -10.26034 -10.25488
 Alpha  occ. eigenvalues --  -10.24877 -10.24526 -10.24195 -10.23935 -10.23923
 Alpha  occ. eigenvalues --  -10.23440 -10.23375 -10.23236 -10.23124 -10.22874
 Alpha  occ. eigenvalues --  -10.22873 -10.22428 -10.22294 -10.22247 -10.21564
 Alpha  occ. eigenvalues --  -10.21541 -10.21371 -10.20848 -10.20013 -10.19967
 Alpha  occ. eigenvalues --  -10.19907 -10.19391 -10.19081 -10.18482 -10.18419
 Alpha  occ. eigenvalues --  -10.18413 -10.17310 -10.17289 -10.17288 -10.17182
 Alpha  occ. eigenvalues --  -10.17156 -10.17080 -10.17051 -10.16933 -10.16607
 Alpha  occ. eigenvalues --  -10.16298 -10.15352  -1.79108  -1.11562  -1.08318
 Alpha  occ. eigenvalues --   -1.06712  -1.06666  -1.06466  -1.04989  -1.04939
 Alpha  occ. eigenvalues --   -1.04535  -1.04277  -1.04223  -1.03923  -1.03572
 Alpha  occ. eigenvalues --   -1.03142  -1.02889  -1.02646  -1.01936  -1.01703
 Alpha  occ. eigenvalues --   -1.01050  -0.99974  -0.98829  -0.98202  -0.97350
 Alpha  occ. eigenvalues --   -0.97153  -0.96661  -0.96484  -0.95124  -0.93349
 Alpha  occ. eigenvalues --   -0.93141  -0.93046  -0.92716  -0.92398  -0.91822
 Alpha  occ. eigenvalues --   -0.91534  -0.90338  -0.89833  -0.89760  -0.88964
 Alpha  occ. eigenvalues --   -0.88399  -0.87889  -0.86977  -0.86600  -0.85231
 Alpha  occ. eigenvalues --   -0.83075  -0.82882  -0.81819  -0.81775  -0.81262
 Alpha  occ. eigenvalues --   -0.79303  -0.78389  -0.78001  -0.77488  -0.76704
 Alpha  occ. eigenvalues --   -0.76140  -0.75317  -0.74406  -0.73662  -0.72460
 Alpha  occ. eigenvalues --   -0.72295  -0.71736  -0.71525  -0.70197  -0.69967
 Alpha  occ. eigenvalues --   -0.69568  -0.69284  -0.69160  -0.68131  -0.68098
 Alpha  occ. eigenvalues --   -0.67753  -0.66750  -0.65385  -0.65133  -0.65064
 Alpha  occ. eigenvalues --   -0.63869  -0.63638  -0.62828  -0.62550  -0.62514
 Alpha  occ. eigenvalues --   -0.61732  -0.60530  -0.60459  -0.60318  -0.60074
 Alpha  occ. eigenvalues --   -0.59303  -0.59080  -0.58813  -0.58595  -0.58405
 Alpha  occ. eigenvalues --   -0.58031  -0.57341  -0.57153  -0.57146  -0.57065
 Alpha  occ. eigenvalues --   -0.56471  -0.56418  -0.56022  -0.55437  -0.54771
 Alpha  occ. eigenvalues --   -0.54673  -0.54418  -0.54403  -0.53994  -0.53799
 Alpha  occ. eigenvalues --   -0.53238  -0.53086  -0.52952  -0.52147  -0.52020
 Alpha  occ. eigenvalues --   -0.51567  -0.51302  -0.51265  -0.51002  -0.50414
 Alpha  occ. eigenvalues --   -0.50183  -0.49875  -0.49424  -0.49366  -0.49127
 Alpha  occ. eigenvalues --   -0.48915  -0.48745  -0.48506  -0.48196  -0.48092
 Alpha  occ. eigenvalues --   -0.47926  -0.47627  -0.47253  -0.47158  -0.46747
 Alpha  occ. eigenvalues --   -0.46562  -0.46406  -0.46003  -0.45915  -0.45794
 Alpha  occ. eigenvalues --   -0.45593  -0.45502  -0.45367  -0.45067  -0.45036
 Alpha  occ. eigenvalues --   -0.44885  -0.44681  -0.44574  -0.44478  -0.44314
 Alpha  occ. eigenvalues --   -0.44283  -0.43782  -0.43592  -0.43514  -0.43487
 Alpha  occ. eigenvalues --   -0.43176  -0.42908  -0.42801  -0.42703  -0.42459
 Alpha  occ. eigenvalues --   -0.42339  -0.42326  -0.41971  -0.41654  -0.41540
 Alpha  occ. eigenvalues --   -0.41445  -0.41355  -0.41302  -0.41034  -0.40978
 Alpha  occ. eigenvalues --   -0.40899  -0.40683  -0.40595  -0.40535  -0.40462
 Alpha  occ. eigenvalues --   -0.40266  -0.40191  -0.40135  -0.39836  -0.39764
 Alpha  occ. eigenvalues --   -0.39653  -0.39586  -0.39278  -0.39202  -0.39178
 Alpha  occ. eigenvalues --   -0.39024  -0.38832  -0.38763  -0.38686  -0.38343
 Alpha  occ. eigenvalues --   -0.38151  -0.38083  -0.37917  -0.37727  -0.37608
 Alpha  occ. eigenvalues --   -0.37502  -0.37449  -0.37291  -0.37020  -0.36889
 Alpha  occ. eigenvalues --   -0.36841  -0.36733  -0.36511  -0.36467  -0.36281
 Alpha  occ. eigenvalues --   -0.36067  -0.35956  -0.35857  -0.35678  -0.35463
 Alpha  occ. eigenvalues --   -0.35109  -0.35002  -0.34773  -0.34380  -0.34267
 Alpha  occ. eigenvalues --   -0.33948  -0.33798  -0.33289  -0.33094  -0.32969
 Alpha  occ. eigenvalues --   -0.32910  -0.32215  -0.32075  -0.31767  -0.31732
 Alpha  occ. eigenvalues --   -0.31380  -0.31281  -0.30982  -0.30971  -0.30222
 Alpha  occ. eigenvalues --   -0.29966  -0.29929  -0.29604  -0.28672  -0.28270
 Alpha  occ. eigenvalues --   -0.27905  -0.27728  -0.27442  -0.27290  -0.26884
 Alpha  occ. eigenvalues --   -0.26421  -0.26356  -0.26155  -0.25980  -0.25628
 Alpha  occ. eigenvalues --   -0.25326  -0.25055  -0.24833  -0.24405  -0.24137
 Alpha  occ. eigenvalues --   -0.24072  -0.23874  -0.23270  -0.23139  -0.22925
 Alpha  occ. eigenvalues --   -0.22875  -0.22742  -0.22526  -0.21936  -0.20586
 Alpha  occ. eigenvalues --   -0.20377  -0.20225  -0.20131  -0.19965  -0.19819
 Alpha  occ. eigenvalues --   -0.19107  -0.18308  -0.17735
 Alpha virt. eigenvalues --   -0.07718  -0.03271  -0.03158  -0.02561  -0.01165
 Alpha virt. eigenvalues --   -0.00863  -0.00516  -0.00267  -0.00024   0.00011
 Alpha virt. eigenvalues --    0.00154   0.00632   0.00837   0.01536   0.01631

 Mulliken charges:
               1
     1  C    0.046965
     2  C    0.024709
     3  O   -0.327626
     4  H    0.054228
     5  H    0.033377
     6  H    0.015743
     7  N   -0.118892
     8  C    0.054825
     9  C    0.078206
    10  O   -0.264384
    11  C    0.112510
    12  C    0.155967
    13  O   -0.482385
    14  O   -0.369420
    15  H    0.117357
    16  H    0.057259
    17  H   -0.014489
    18  H   -0.013750
    19  N   -0.123219
    20  C    0.175051
    21  C    0.049042
    22  O   -0.249498
    23  C   -0.028768
    24  C   -0.017245
    25  C   -0.023896
    26  C    0.050873
    27  N    0.064949
    28  H    0.128562
    29  H   -0.002422
    30  H    0.016962
    31  H   -0.007358
    32  H    0.011415
    33  H    0.019944
    34  H    0.019280
    35  H    0.044013
    36  H    0.060743
    37  H    0.091280
    38  H    0.177122
    39  H    0.202862
    40  H    0.208520
    41  N   -0.148601
    42  C    0.123416
    43  C    0.081585
    44  O   -0.294145
    45  C    0.082249
    46  C    0.104625
    47  O   -0.440874
    48  O   -0.413637
    49  H    0.128314
    50  H    0.013984
    51  H   -0.022939
    52  H    0.019782
    53  N   -0.169926
    54  C    0.249291
    55  C    0.036975
    56  O   -0.316726
    57  H    0.162072
    58  H    0.017731
    59  H    0.032802
    60  N   -0.169123
    61  C    0.159529
    62  C    0.053267
    63  O   -0.315052
    64  C    0.069178
    65  C    0.093555
    66  N   -0.045888
    67  O   -0.361027
    68  H    0.144280
    69  H    0.021016
    70  H    0.059185
    71  H    0.023395
    72  H    0.129386
    73  H    0.106911
    74  N   -0.150312
    75  C    0.228824
    76  C    0.045160
    77  O   -0.300684
    78  H    0.158554
    79  H    0.035891
    80  H    0.040052
    81  N   -0.142062
    82  C    0.110531
    83  C    0.121178
    84  O   -0.332740
    85  C    0.134817
    86  C   -0.017307
    87  C    0.005627
    88  C    0.003899
    89  C   -0.004550
    90  C   -0.032339
    91  C    0.171092
    92  O   -0.198611
    93  H    0.161761
    94  H    0.007265
    95  H   -0.024297
    96  H   -0.049377
    97  H   -0.047126
    98  H   -0.038108
    99  H   -0.017995
   100  H   -0.049174
   101  H    0.168078
   102  N   -0.122135
   103  C    0.194547
   104  C    0.034065
   105  O   -0.292098
   106  C   -0.098240
   107  C   -0.001238
   108  C    0.057023
   109  C    0.020489
   110  H    0.120514
   111  H    0.023814
   112  H   -0.017232
   113  H    0.042884
   114  H    0.011379
   115  H   -0.016523
   116  H   -0.012697
   117  H    0.030189
   118  H    0.012164
   119  H    0.009116
   120  H   -0.002284
   121  N   -0.122501
   122  C    0.025023
   123  C    0.150982
   124  O   -0.277245
   125  C    0.282212
   126  O   -0.342182
   127  H    0.112062
   128  H    0.020632
   129  H    0.010399
   130  H   -0.021551
   131  H    0.158870
   132  N   -0.118977
   133  C    0.097897
   134  C    0.023327
   135  O   -0.265698
   136  C    0.033339
   137  H    0.126124
   138  H    0.025208
   139  H    0.038245
   140  H   -0.008963
   141  H    0.044118
   142  N   -0.144157
   143  C    0.125443
   144  C    0.071532
   145  O   -0.299037
   146  C    0.035324
   147  H    0.114136
   148  H    0.026786
   149  H    0.011253
   150  H    0.025357
   151  H    0.026681
   152  N   -0.142071
   153  C    0.203928
   154  C    0.033876
   155  O   -0.304424
   156  C   -0.135000
   157  C    0.178726
   158  C    0.116468
   159  O   -0.410116
   160  O   -0.408844
   161  H    0.130934
   162  H   -0.087458
   163  H    0.068030
   164  H    0.011662
   165  H   -0.013127
   166  H   -0.034843
   167  N   -0.155451
   168  C    0.126506
   169  H    0.032039
   170  H    0.032599
   171  H    0.014994
   172  H    0.134761
   173  Ca   1.317831
   174  O   -0.262143
   175  H    0.158378
   176  H    0.183320
 Sum of Mulliken charges =  -0.00000

 Dipole moment (field-independent basis, Debye):
    X=             31.6949    Y=              0.1899    Z=            -12.4334  Tot=             34.0469
 Quadrupole moment (field-independent basis, Debye-Ang):
   XX=           -650.5073   YY=           -459.8002   ZZ=           -519.9893
   XY=             72.3493   XZ=             -6.4016   YZ=             18.1073

 ESP charges:
               1
     1  C   -0.366353
     2  C    0.632851
     3  O   -0.632492
     4  H    0.132231
     5  H    0.102078
     6  H    0.090604
     7  N   -0.586642
     8  C   -0.022603
     9  C    0.835670
    10  O   -0.555835
    11  C   -0.160395
    12  C    0.668176
    13  O   -0.907127
    14  O   -0.656713
    15  H    0.323189
    16  H    0.133326
    17  H    0.058003
    18  H    0.069054
    19  N   -0.847022
    20  C    0.411594
    21  C    0.274459
    22  O   -0.497038
    23  C   -0.325250
    24  C    0.241685
    25  C   -0.147011
    26  C   -0.032606
    27  N   -0.246725
    28  H    0.425968
    29  H    0.009709
    30  H    0.095103
    31  H    0.051770
    32  H   -0.055430
    33  H   -0.007269
    34  H    0.051110
    35  H    0.087418
    36  H    0.082420
    37  H    0.117182
    38  H    0.298849
    39  H    0.285222
    40  H    0.328919
    41  N   -0.165729
    42  C   -0.215175
    43  C    0.521052
    44  O   -0.565423
    45  C   -0.153646
    46  C    0.662223
    47  O   -0.732394
    48  O   -0.721640
    49  H    0.229768
    50  H    0.164660
    51  H    0.034408
    52  H    0.088411
    53  N   -0.098472
    54  C   -0.397998
    55  C    0.724765
    56  O   -0.618215
    57  H    0.274731
    58  H    0.159733
    59  H    0.158657
    60  N   -0.442338
    61  C    0.062687
    62  C    0.275014
    63  O   -0.503826
    64  C   -0.261915
    65  C    0.657524
    66  N   -0.832046
    67  O   -0.524908
    68  H    0.256574
    69  H    0.123088
    70  H    0.134785
    71  H    0.094575
    72  H    0.384441
    73  H    0.391088
    74  N    0.042685
    75  C   -0.511775
    76  C    0.802281
    77  O   -0.597735
    78  H    0.248875
    79  H    0.183381
    80  H    0.171833
    81  N   -0.462602
    82  C    0.059940
    83  C    0.567880
    84  O   -0.494899
    85  C   -0.103452
    86  C    0.240392
    87  C   -0.429013
    88  C   -0.354784
    89  C   -0.018652
    90  C   -0.110235
    91  C    0.237039
    92  O   -0.540485
    93  H    0.227748
    94  H    0.059631
    95  H    0.018420
    96  H    0.006680
    97  H    0.212820
    98  H    0.177138
    99  H    0.119074
   100  H    0.094475
   101  H    0.405501
   102  N   -0.469303
   103  C   -0.440784
   104  C    0.777558
   105  O   -0.582358
   106  C    0.285808
   107  C   -0.030923
   108  C   -0.378827
   109  C   -0.326954
   110  H    0.308792
   111  H    0.156636
   112  H    0.014009
   113  H    0.086537
   114  H    0.123888
   115  H    0.076562
   116  H    0.093622
   117  H    0.106292
   118  H    0.095986
   119  H    0.069904
   120  H    0.065978
   121  N   -0.498659
   122  C   -0.068480
   123  C    0.550718
   124  O   -0.409565
   125  C    0.076594
   126  O   -0.535824
   127  H    0.499369
   128  H    0.090690
   129  H    0.063679
   130  H    0.053710
   131  H    0.352852
   132  N   -0.574052
   133  C    0.350059
   134  C    0.407657
   135  O   -0.543214
   136  C   -0.339454
   137  H    0.313843
   138  H    0.028775
   139  H    0.100007
   140  H    0.051767
   141  H    0.127351
   142  N   -0.366001
   143  C    0.154109
   144  C    0.282801
   145  O   -0.522373
   146  C   -0.411154
   147  H    0.287085
   148  H    0.111702
   149  H    0.101910
   150  H    0.140992
   151  H    0.112846
   152  N    0.169309
   153  C   -0.271575
   154  C    0.526085
   155  O   -0.593305
   156  C    0.356899
   157  C   -0.443057
   158  C    0.907276
   159  O   -0.745441
   160  O   -0.803466
   161  H    0.016928
   162  H    0.032543
   163  H    0.113309
   164  H   -0.455609
   165  H    0.062425
   166  H    0.134842
   167  N   -0.089650
   168  C   -0.235835
   169  H    0.100518
   170  H    0.115885
   171  H    0.075005
   172  H    0.167768
   173  Ca   1.669782
   174  O   -0.831781
   175  H    0.369714
   176  H    0.452563
 Sum of ESP charges =   0.00000

 Normal termination of Gaussian 16 at Sat Sep 14 22:39:02 2019.
