 Gaussian 09, Revision D.01,
 Gaussian 09:  ES64L-G09RevD.01 24-Apr-2013

 ----------------------------------------------------------------------
 #maxdisk=50GB #B3LYP/SVP Density=Current scf=(tight) #IOP(5/87=12)Pop=
 (MK,readradii) iop(6/33=2) iop(6/42=6)
 ----------------------------------------------------------------------

 ------------
 SOL molecule
 ------------
 Symbolic Z-matrix:
 Charge =  0 Multiplicity = 1

                         Standard orientation:
 ---------------------------------------------------------------------
 Center     Atomic      Atomic             Coordinates (Angstroms)
 Number     Number       Type             X           Y           Z
 ---------------------------------------------------------------------
      1          6           0        2.592219    4.025195    4.338983
      2          6           0        1.890758    3.298274    3.197126
      3          8           0        2.615474    2.860634    2.303729
      4          1           0        3.573951    3.580535    4.503308
      5          1           0        2.708617    5.078588    4.082634
      6          1           0        1.997161    3.935058    5.247357
      7          7           0        0.568042    3.116435    3.259233
      8          6           0       -0.323231    2.595750    2.246751
      9          6           0       -0.725570    3.776757    1.378450
     10          8           0       -1.453305    4.682497    1.794068
     11          6           0       -1.582333    1.997519    2.850310
     12          6           0       -2.621869    1.565548    1.822076
     13          8           0       -3.789179    1.342717    2.203038
     14          8           0       -2.282527    1.466858    0.630687
     15          1           0        0.045676    3.345449    4.094928
     16          1           0        0.296066    1.913768    1.667811
     17          1           0       -2.025614    2.695819    3.559449
     18          1           0       -1.299012    1.141166    3.473999
     19          7           0       -0.166585    3.853595    0.168437
     20          6           0       -0.118246    5.080120   -0.609766
     21          6           0       -1.376917    5.217799   -1.452317
     22          8           0       -2.017517    6.263733   -1.340268
     23          6           0        1.134283    5.069534   -1.482210
     24          6           0        2.417077    4.926601   -0.667772
     25          6           0        2.706407    5.936324    0.448179
     26          6           0        4.112163    5.736412    1.015971
     27          7           0        4.588432    6.851218    1.852975
     28          1           0        0.461191    3.090599   -0.032395
     29          1           0       -0.062505    5.964765    0.019676
     30          1           0        1.223786    5.940470   -2.130176
     31          1           0        1.092801    4.291831   -2.240337
     32          1           0        3.231301    4.959605   -1.390926
     33          1           0        2.420451    3.935119   -0.227031
     34          1           0        2.026178    5.696908    1.267977
     35          1           0        2.601810    6.956450    0.093072
     36          1           0        4.752093    5.500531    0.165060
     37          1           0        4.076538    4.788657    1.543124
     38          1           0        3.990180    7.158559    2.612473
     39          1           0        5.493920    6.739655    2.287997
     40          1           0        4.647856    7.663963    1.268326
     41          7           0       -1.797512    4.221557   -2.228140
     42          6           0       -3.068079    4.248481   -2.928594
     43          6           0       -4.258489    4.112056   -1.989599
     44          8           0       -5.394108    3.933046   -2.421949
     45          6           0       -3.066722    3.170736   -3.995817
     46          6           0       -2.786874    1.734566   -3.551294
     47          8           0       -2.762142    1.496357   -2.326000
     48          8           0       -2.591189    0.809558   -4.355823
     49          1           0       -1.265837    3.366501   -2.341281
     50          1           0       -3.119720    5.228958   -3.408695
     51          1           0       -2.289954    3.437539   -4.712997
     52          1           0       -3.983447    3.118305   -4.594789
     53          7           0       -4.057229    3.949937   -0.676850
     54          6           0       -5.064351    3.743026    0.336557
     55          6           0       -5.846104    2.458868    0.094278
     56          8           0       -6.934310    2.364937    0.647076
     57          1           0       -3.072906    3.940448   -0.428016
     58          1           0       -5.733002    4.586443    0.448160
     59          1           0       -4.519188    3.527696    1.267863
     60          7           0       -5.350493    1.488298   -0.679132
     61          6           0       -6.093146    0.317128   -1.097493
     62          6           0       -6.348836   -0.763740   -0.054925
     63          8           0       -6.835694   -1.826798   -0.405607
     64          6           0       -5.686618   -0.113817   -2.507040
     65          6           0       -4.570290   -1.151279   -2.529028
     66          7           0       -4.607612   -2.060920   -3.504354
     67          8           0       -3.781150   -1.239429   -1.597101
     68          1           0       -4.413383    1.663389   -1.003274
     69          1           0       -7.051867    0.759645   -1.376836
     70          1           0       -5.449062    0.711498   -3.186614
     71          1           0       -6.507872   -0.674087   -2.954075
     72          1           0       -5.314477   -2.057703   -4.228875
     73          1           0       -3.867888   -2.748339   -3.584126
     74          7           0       -5.934703   -0.614513    1.204450
     75          6           0       -6.140021   -1.375372    2.426063
     76          6           0       -4.939102   -2.231856    2.798526
     77          8           0       -4.964733   -2.779317    3.892569
     78          1           0       -5.580647    0.321102    1.408086
     79          1           0       -6.996340   -2.040666    2.320701
     80          1           0       -6.223286   -0.725318    3.296636
     81          7           0       -3.842214   -2.229019    2.031891
     82          6           0       -2.692857   -3.066280    2.299607
     83          6           0       -1.380747   -2.448537    1.833922
     84          8           0       -1.321350   -1.991570    0.693285
     85          6           0       -2.875032   -4.473764    1.737645
     86          6           0       -4.079325   -4.731167    0.862646
     87          6           0       -3.983637   -4.465382   -0.502785
     88          6           0       -5.301141   -5.109799    1.425144
     89          6           0       -5.098282   -4.737808   -1.315836
     90          6           0       -6.459511   -5.330871    0.671683
     91          6           0       -6.301203   -5.163082   -0.717736
     92          8           0       -7.364100   -5.524716   -1.498166
     93          1           0       -3.868399   -1.711417    1.162177
     94          1           0       -2.494207   -3.224519    3.360408
     95          1           0       -3.047312   -4.985273    2.681349
     96          1           0       -1.988006   -4.893851    1.275464
     97          1           0       -3.099997   -3.948514   -0.861991
     98          1           0       -5.445948   -5.230351    2.490085
     99          1           0       -5.132222   -4.484412   -2.356239
    100          1           0       -7.395276   -5.623940    1.118622
    101          1           0       -8.147145   -5.617442   -0.954069
    102          7           0       -0.324366   -2.631180    2.632233
    103          6           0        1.049222   -2.409204    2.222131
    104          6           0        1.572210   -3.463660    1.270918
    105          8           0        1.086032   -4.596836    1.325185
    106          6           0        1.811343   -2.246063    3.528521
    107          6           0        1.513506   -0.898718    4.187804
    108          6           0        3.309062   -2.480201    3.317293
    109          6           0        2.203561   -0.611571    5.512331
    110          1           0       -0.399228   -3.200878    3.467661
    111          1           0        1.119132   -1.481413    1.653433
    112          1           0        1.466184   -3.025371    4.210316
    113          1           0        0.445789   -0.751667    4.343225
    114          1           0        1.956111   -0.145329    3.541116
    115          1           0        3.452657   -3.505663    2.970581
    116          1           0        3.764737   -1.647916    2.795123
    117          1           0        3.794288   -2.476971    4.291483
    118          1           0        2.050735   -1.379676    6.275258
    119          1           0        3.255900   -0.407265    5.302944
    120          1           0        1.825960    0.336606    5.893221
    121          7           0        2.567365   -3.124672    0.453757
    122          6           0        3.215220   -3.873252   -0.603982
    123          6           0        4.704092   -3.557521   -0.612563
    124          8           0        5.131746   -2.610367    0.036214
    125          6           0        2.521123   -3.488334   -1.908194
    126          8           0        2.746990   -2.131460   -2.188508
    127          1           0        2.979119   -2.220198    0.630914
    128          1           0        3.121292   -4.957203   -0.485548
    129          1           0        1.434786   -3.585946   -1.819059
    130          1           0        2.845486   -4.072544   -2.772710
    131          1           0        2.219165   -1.560355   -1.634848
    132          7           0        5.479422   -4.371382   -1.345975
    133          6           0        6.912626   -4.168836   -1.391840
    134          6           0        7.424009   -2.813063   -1.864454
    135          8           0        8.419311   -2.345739   -1.325397
    136          6           0        7.428440   -5.347053   -2.198029
    137          1           0        5.198245   -5.268368   -1.700596
    138          1           0        7.203789   -4.296896   -0.346219
    139          1           0        7.306900   -5.201448   -3.268556
    140          1           0        8.493334   -5.490901   -2.061249
    141          1           0        7.025192   -6.300272   -1.853697
    142          7           0        6.685656   -2.134569   -2.749316
    143          6           0        6.968988   -0.792634   -3.222956
    144          6           0        6.826860    0.254684   -2.132119
    145          8           0        7.533906    1.267182   -2.088131
    146          6           0        6.005505   -0.341747   -4.311809
    147          1           0        5.779132   -2.520583   -2.967738
    148          1           0        7.989959   -0.787509   -3.617661
    149          1           0        4.973313   -0.494731   -4.009362
    150          1           0        6.083810    0.731728   -4.519943
    151          1           0        6.187445   -0.946647   -5.209302
    152          7           0        5.886862   -0.030891   -1.234929
    153          6           0        5.463071    0.777347   -0.102783
    154          6           0        6.255046    0.658358    1.200144
    155          8           0        6.527979    1.581765    1.958911
    156          6           0        3.980406    0.530372    0.133029
    157          6           0        3.196489    1.016432   -1.089313
    158          6           0        1.737632    0.645204   -0.863203
    159          8           0        0.886633    1.543448   -0.726243
    160          8           0        1.421492   -0.561991   -0.763019
    161          1           0        5.268928   -0.783175   -1.496512
    162          1           0        5.454998    1.808725   -0.426965
    163          1           0        3.590427    0.978393    1.044947
    164          1           0        3.855961   -0.547097    0.124472
    165          1           0        3.529682    0.551625   -2.018365
    166          1           0        3.324712    2.091175   -1.201497
    167          7           0        6.684978   -0.600480    1.370389
    168          6           0        7.675055   -0.898344    2.378767
    169          1           0        7.479888   -0.298059    3.266839
    170          1           0        7.624536   -1.955780    2.637268
    171          1           0        8.667627   -0.665178    1.994258
    172          1           0        6.499249   -1.303019    0.666511
    173         20           0       -1.143449   -0.098774   -1.126213
    174          8           0       -0.645878   -2.347028   -2.352743
    175          1           0       -0.665690   -3.310521   -2.399525
    176          1           0       -0.126022   -2.091940   -3.117452
 ---------------------------------------------------------------------

 SCF Done:  E(RB3LYP) =  -5333.59306335     A.U. after   18 cycles

 The electronic state is 1-A.
 Alpha  occ. eigenvalues -- -145.38277 -19.19440 -19.15696 -19.13108 -19.12798
 Alpha  occ. eigenvalues --  -19.12736 -19.12608 -19.12196 -19.12175 -19.12056
 Alpha  occ. eigenvalues --  -19.10557 -19.09878 -19.09415 -19.08006 -19.07699
 Alpha  occ. eigenvalues --  -19.06834 -19.05111 -19.04154 -19.04008 -19.03605
 Alpha  occ. eigenvalues --  -19.03579 -19.02629 -19.01927 -19.01819 -15.44017
 Alpha  occ. eigenvalues --  -14.58435 -14.40603 -14.38330 -14.37842 -14.37271
 Alpha  occ. eigenvalues --  -14.36913 -14.36142 -14.33864 -14.33396 -14.33269
 Alpha  occ. eigenvalues --  -14.33085 -14.31651 -14.29097 -14.29081 -14.27411
 Alpha  occ. eigenvalues --  -12.57652 -12.57603 -12.57560 -10.33573 -10.32970
 Alpha  occ. eigenvalues --  -10.31575 -10.31137 -10.31054 -10.29857 -10.29417
 Alpha  occ. eigenvalues --  -10.28700 -10.27650 -10.26806 -10.26626 -10.26454
 Alpha  occ. eigenvalues --  -10.26421 -10.26325 -10.26242 -10.25814 -10.25213
 Alpha  occ. eigenvalues --  -10.24006 -10.23936 -10.23391 -10.23195 -10.22950
 Alpha  occ. eigenvalues --  -10.22936 -10.22877 -10.22840 -10.22805 -10.22676
 Alpha  occ. eigenvalues --  -10.22535 -10.22474 -10.21821 -10.21743 -10.21413
 Alpha  occ. eigenvalues --  -10.21221 -10.21118 -10.21106 -10.20747 -10.20360
 Alpha  occ. eigenvalues --  -10.20303 -10.20037 -10.19354 -10.19068 -10.18996
 Alpha  occ. eigenvalues --  -10.18569 -10.18512 -10.16817 -10.16639 -10.16425
 Alpha  occ. eigenvalues --  -10.16283 -10.16267 -10.15887 -10.15829 -10.15767
 Alpha  occ. eigenvalues --  -10.15607 -10.15568  -1.80814  -1.13309  -1.09158
 Alpha  occ. eigenvalues --   -1.08766  -1.08530  -1.08129  -1.06955  -1.05233
 Alpha  occ. eigenvalues --   -1.05212  -1.05101  -1.04704  -1.03403  -1.02667
 Alpha  occ. eigenvalues --   -1.02426  -1.01686  -1.01584  -1.01337  -1.00407
 Alpha  occ. eigenvalues --   -1.00136  -0.98850  -0.98705  -0.97964  -0.97946
 Alpha  occ. eigenvalues --   -0.97552  -0.97224  -0.96998  -0.95255  -0.95130
 Alpha  occ. eigenvalues --   -0.94360  -0.94308  -0.93763  -0.93209  -0.91094
 Alpha  occ. eigenvalues --   -0.90429  -0.89793  -0.88768  -0.88062  -0.87916
 Alpha  occ. eigenvalues --   -0.87861  -0.87759  -0.86040  -0.85537  -0.84463
 Alpha  occ. eigenvalues --   -0.83436  -0.82588  -0.81682  -0.81523  -0.81176
 Alpha  occ. eigenvalues --   -0.79420  -0.79004  -0.78360  -0.76770  -0.76022
 Alpha  occ. eigenvalues --   -0.75054  -0.74593  -0.74201  -0.73951  -0.73522
 Alpha  occ. eigenvalues --   -0.72237  -0.72219  -0.71369  -0.71350  -0.70267
 Alpha  occ. eigenvalues --   -0.70173  -0.69216  -0.68788  -0.68697  -0.68250
 Alpha  occ. eigenvalues --   -0.67618  -0.66927  -0.65932  -0.65442  -0.64508
 Alpha  occ. eigenvalues --   -0.63633  -0.63158  -0.63011  -0.62817  -0.62334
 Alpha  occ. eigenvalues --   -0.62188  -0.61739  -0.61503  -0.60389  -0.60357
 Alpha  occ. eigenvalues --   -0.59964  -0.58920  -0.58428  -0.58386  -0.58185
 Alpha  occ. eigenvalues --   -0.57701  -0.57609  -0.57336  -0.56807  -0.56579
 Alpha  occ. eigenvalues --   -0.56328  -0.55612  -0.55316  -0.54847  -0.54373
 Alpha  occ. eigenvalues --   -0.54112  -0.53929  -0.53714  -0.53373  -0.52714
 Alpha  occ. eigenvalues --   -0.52120  -0.52084  -0.51714  -0.51547  -0.51495
 Alpha  occ. eigenvalues --   -0.51414  -0.51172  -0.50980  -0.50558  -0.50460
 Alpha  occ. eigenvalues --   -0.50175  -0.49882  -0.49781  -0.49628  -0.49358
 Alpha  occ. eigenvalues --   -0.48934  -0.48759  -0.48294  -0.48049  -0.48013
 Alpha  occ. eigenvalues --   -0.47773  -0.47626  -0.47142  -0.47009  -0.46714
 Alpha  occ. eigenvalues --   -0.46561  -0.46377  -0.46292  -0.46128  -0.45959
 Alpha  occ. eigenvalues --   -0.45565  -0.45380  -0.45316  -0.45198  -0.45037
 Alpha  occ. eigenvalues --   -0.44888  -0.44829  -0.44557  -0.44512  -0.44390
 Alpha  occ. eigenvalues --   -0.44138  -0.44120  -0.43966  -0.43576  -0.43458
 Alpha  occ. eigenvalues --   -0.43248  -0.42944  -0.42884  -0.42748  -0.42499
 Alpha  occ. eigenvalues --   -0.42455  -0.42349  -0.42182  -0.42104  -0.41820
 Alpha  occ. eigenvalues --   -0.41671  -0.41585  -0.41504  -0.41234  -0.41227
 Alpha  occ. eigenvalues --   -0.40945  -0.40774  -0.40658  -0.40457  -0.40345
 Alpha  occ. eigenvalues --   -0.40267  -0.40179  -0.40010  -0.39971  -0.39675
 Alpha  occ. eigenvalues --   -0.39548  -0.39475  -0.39397  -0.39094  -0.38854
 Alpha  occ. eigenvalues --   -0.38802  -0.38646  -0.38613  -0.38442  -0.38246
 Alpha  occ. eigenvalues --   -0.37924  -0.37806  -0.37694  -0.37576  -0.37397
 Alpha  occ. eigenvalues --   -0.37281  -0.37210  -0.36997  -0.36849  -0.36643
 Alpha  occ. eigenvalues --   -0.36425  -0.36228  -0.36140  -0.36013  -0.35974
 Alpha  occ. eigenvalues --   -0.35722  -0.35268  -0.35130  -0.35058  -0.34700
 Alpha  occ. eigenvalues --   -0.34667  -0.34645  -0.34485  -0.34154  -0.34013
 Alpha  occ. eigenvalues --   -0.33764  -0.33668  -0.33372  -0.33141  -0.32856
 Alpha  occ. eigenvalues --   -0.32550  -0.32059  -0.32051  -0.31627  -0.31491
 Alpha  occ. eigenvalues --   -0.31345  -0.30875  -0.30480  -0.30322  -0.30305
 Alpha  occ. eigenvalues --   -0.30101  -0.29753  -0.29712  -0.29114  -0.29006
 Alpha  occ. eigenvalues --   -0.28948  -0.28582  -0.28278  -0.27901  -0.27703
 Alpha  occ. eigenvalues --   -0.27057  -0.26769  -0.26013  -0.25968  -0.25659
 Alpha  occ. eigenvalues --   -0.25189  -0.24968  -0.24829  -0.24493  -0.23523
 Alpha  occ. eigenvalues --   -0.23449  -0.23017  -0.22554  -0.22411  -0.22253
 Alpha  occ. eigenvalues --   -0.22015  -0.21852  -0.21295  -0.21018  -0.20648
 Alpha  occ. eigenvalues --   -0.20435  -0.19439  -0.19214  -0.18933  -0.18370
 Alpha  occ. eigenvalues --   -0.18163  -0.17506  -0.17209
 Alpha virt. eigenvalues --   -0.10298  -0.04673  -0.03720  -0.03551  -0.02104
 Alpha virt. eigenvalues --   -0.01499  -0.01252  -0.00368  -0.00113   0.00265
 Alpha virt. eigenvalues --    0.00572   0.00850   0.01368   0.01458   0.01986

 Mulliken charges:
               1
     1  C    0.052438
     2  C    0.040482
     3  O   -0.301075
     4  H    0.051055
     5  H   -0.016501
     6  H    0.023416
     7  N   -0.108966
     8  C    0.110910
     9  C    0.045550
    10  O   -0.293482
    11  C    0.063599
    12  C    0.135210
    13  O   -0.357740
    14  O   -0.442567
    15  H    0.125051
    16  H   -0.011556
    17  H    0.008046
    18  H    0.002489
    19  N   -0.131007
    20  C    0.145960
    21  C    0.040519
    22  O   -0.261905
    23  C    0.061810
    24  C   -0.037026
    25  C   -0.031908
    26  C    0.015814
    27  N    0.090945
    28  H    0.143549
    29  H   -0.015414
    30  H   -0.002916
    31  H   -0.004086
    32  H    0.000752
    33  H    0.048411
    34  H    0.057679
    35  H    0.008109
    36  H    0.068990
    37  H    0.088185
    38  H    0.184725
    39  H    0.193486
    40  H    0.179264
    41  N   -0.156809
    42  C    0.193019
    43  C    0.043339
    44  O   -0.294689
    45  C    0.047980
    46  C    0.058706
    47  O   -0.461100
    48  O   -0.363751
    49  H    0.114157
    50  H    0.008421
    51  H   -0.007347
    52  H    0.034389
    53  N   -0.161414
    54  C    0.272092
    55  C   -0.000267
    56  O   -0.316083
    57  H    0.145343
    58  H    0.013674
    59  H    0.033041
    60  N   -0.161160
    61  C    0.175491
    62  C    0.056724
    63  O   -0.294355
    64  C    0.030172
    65  C    0.107485
    66  N   -0.041067
    67  O   -0.329345
    68  H    0.166390
    69  H    0.019261
    70  H    0.062772
    71  H   -0.003971
    72  H    0.124500
    73  H    0.117036
    74  N   -0.169570
    75  C    0.264910
    76  C    0.011902
    77  O   -0.314591
    78  H    0.161193
    79  H    0.024969
    80  H    0.040760
    81  N   -0.116309
    82  C    0.120935
    83  C    0.140965
    84  O   -0.371393
    85  C    0.168717
    86  C   -0.049147
    87  C   -0.001556
    88  C    0.002857
    89  C    0.024115
    90  C   -0.034752
    91  C    0.173068
    92  O   -0.209364
    93  H    0.159204
    94  H   -0.019140
    95  H   -0.018357
    96  H    0.008005
    97  H   -0.049542
    98  H   -0.023205
    99  H   -0.067390
   100  H   -0.048762
   101  H    0.169137
   102  N   -0.106746
   103  C    0.152923
   104  C    0.067715
   105  O   -0.285268
   106  C   -0.137287
   107  C    0.004673
   108  C    0.063525
   109  C    0.031759
   110  H    0.137285
   111  H    0.007923
   112  H   -0.019810
   113  H    0.017865
   114  H    0.001188
   115  H    0.027271
   116  H    0.016731
   117  H    0.000739
   118  H    0.015371
   119  H    0.010405
   120  H   -0.004670
   121  N   -0.135740
   122  C    0.062664
   123  C    0.113184
   124  O   -0.281879
   125  C    0.288636
   126  O   -0.378151
   127  H    0.160150
   128  H    0.017055
   129  H   -0.039766
   130  H   -0.015053
   131  H    0.168301
   132  N   -0.135787
   133  C    0.075311
   134  C    0.080526
   135  O   -0.253463
   136  C    0.024563
   137  H    0.125743
   138  H    0.021846
   139  H    0.025252
   140  H    0.034852
   141  H    0.023507
   142  N   -0.137242
   143  C    0.074077
   144  C    0.053512
   145  O   -0.272787
   146  C    0.038043
   147  H    0.119889
   148  H    0.028709
   149  H    0.015614
   150  H    0.040713
   151  H    0.025168
   152  N   -0.146398
   153  C    0.152740
   154  C    0.102016
   155  O   -0.282534
   156  C   -0.068623
   157  C    0.089544
   158  C    0.145658
   159  O   -0.389181
   160  O   -0.443398
   161  H    0.118871
   162  H   -0.029400
   163  H    0.048652
   164  H   -0.000057
   165  H    0.008922
   166  H   -0.024224
   167  N   -0.187815
   168  C    0.138168
   169  H    0.022532
   170  H    0.006121
   171  H    0.027812
   172  H    0.146698
   173  Ca   1.298459
   174  O   -0.276942
   175  H    0.209412
   176  H    0.183346
 Sum of Mulliken charges =   0.00000

 Dipole moment (field-independent basis, Debye):
    X=             32.8684    Y=              5.7294    Z=              2.1739  Tot=             33.4348
 Quadrupole moment (field-independent basis, Debye-Ang):
   XX=           -661.1423   YY=           -412.3846   ZZ=           -526.2019
   XY=            109.4080   XZ=             25.7950   YZ=             82.7820

 ESP charges:
               1
     1  C   -0.471926
     2  C    0.990587
     3  O   -0.681314
     4  H    0.137388
     5  H    0.094777
     6  H    0.106504
     7  N   -0.908833
     8  C    0.089451
     9  C    0.637464
    10  O   -0.574814
    11  C    0.017603
    12  C    0.658510
    13  O   -0.674585
    14  O   -1.032627
    15  H    0.404898
    16  H    0.044451
    17  H    0.032946
    18  H   -0.000397
    19  N   -0.313142
    20  C   -0.073378
    21  C    0.495423
    22  O   -0.549923
    23  C   -0.046214
    24  C   -0.029599
    25  C   -0.168219
    26  C    0.234210
    27  N   -0.479553
    28  H    0.495580
    29  H    0.076213
    30  H    0.049341
    31  H    0.016330
    32  H    0.032716
    33  H    0.068548
    34  H    0.024893
    35  H    0.062996
    36  H    0.039402
    37  H    0.021420
    38  H    0.347655
    39  H    0.362215
    40  H    0.337176
    41  N   -0.367663
    42  C   -0.024617
    43  C    0.389673
    44  O   -0.534081
    45  C   -0.288740
    46  C    0.745549
    47  O   -0.786419
    48  O   -0.711277
    49  H    0.259990
    50  H    0.127652
    51  H    0.070079
    52  H    0.119336
    53  N   -0.030286
    54  C   -0.401544
    55  C    0.801325
    56  O   -0.648031
    57  H    0.162280
    58  H    0.142594
    59  H    0.183207
    60  N   -0.519618
    61  C   -0.195786
    62  C    0.378220
    63  O   -0.488064
    64  C   -0.241437
    65  C    0.761843
    66  N   -0.743695
    67  O   -0.637615
    68  H    0.452903
    69  H    0.186106
    70  H    0.156802
    71  H    0.070696
    72  H    0.347941
    73  H    0.339308
    74  N   -0.032017
    75  C   -0.394126
    76  C    0.871059
    77  O   -0.634024
    78  H    0.251314
    79  H    0.135938
    80  H    0.145534
    81  N   -0.780743
    82  C    0.174612
    83  C    0.793780
    84  O   -0.530985
    85  C   -0.322742
    86  C    0.118419
    87  C   -0.207559
    88  C   -0.156532
    89  C   -0.281430
    90  C   -0.345928
    91  C    0.447797
    92  O   -0.578035
    93  H    0.474448
    94  H    0.063315
    95  H    0.087416
    96  H    0.108362
    97  H    0.164264
    98  H    0.155460
    99  H    0.158186
   100  H    0.161601
   101  H    0.408034
   102  N   -0.878707
   103  C    0.086061
   104  C    0.687654
   105  O   -0.568682
   106  C    0.130580
   107  C    0.132248
   108  C   -0.209186
   109  C   -0.387732
   110  H    0.391057
   111  H    0.011090
   112  H    0.004302
   113  H    0.037607
   114  H    0.037078
   115  H    0.052342
   116  H    0.032351
   117  H    0.052496
   118  H    0.091156
   119  H    0.090644
   120  H    0.089145
   121  N   -0.423748
   122  C   -0.153337
   123  C    0.650135
   124  O   -0.521109
   125  C    0.147940
   126  O   -0.552168
   127  H    0.326643
   128  H    0.099398
   129  H    0.033301
   130  H    0.028000
   131  H    0.283895
   132  N   -0.425612
   133  C   -0.031832
   134  C    0.641540
   135  O   -0.556419
   136  C   -0.272428
   137  H    0.283556
   138  H    0.109308
   139  H    0.075266
   140  H    0.105162
   141  H    0.104643
   142  N   -0.538435
   143  C    0.296312
   144  C    0.125853
   145  O   -0.486255
   146  C   -0.420864
   147  H    0.303697
   148  H    0.071459
   149  H    0.112681
   150  H    0.144330
   151  H    0.104921
   152  N    0.479319
   153  C   -0.649292
   154  C    0.659625
   155  O   -0.572853
   156  C    0.525732
   157  C   -0.281247
   158  C    0.847675
   159  O   -0.891251
   160  O   -0.646902
   161  H   -0.059576
   162  H    0.140964
   163  H    0.012195
   164  H   -0.342722
   165  H    0.061543
   166  H    0.026785
   167  N   -0.214246
   168  C   -0.242215
   169  H    0.100817
   170  H    0.086278
   171  H    0.106834
   172  H    0.224307
   173  Ca   1.682128
   174  O   -0.894257
   175  H    0.452963
   176  H    0.433836
 Sum of ESP charges =   0.00000

 Normal termination of Gaussian 09 at Mon Sep 16 21:35:35 2019.
