 Gaussian 16, Revision A.03,
 Gaussian 16:  ES64L-G16RevA.03 25-Dec-2016

 ----------------------------------------------------------------------
 #b3lyp/svp scf=(tight,noincore) Test #IOP(5/87=12) Density=Current Pop
 =(MK,readradii) iop(6/33=2) iop(6/42=6)
 ----------------------------------------------------------------------

 ------------------
 holoCaM_loop3_57.0
 ------------------
 Symbolic Z-matrix:
 Charge =  0 Multiplicity = 1

                         Standard orientation:
 ---------------------------------------------------------------------
 Center     Atomic      Atomic             Coordinates (Angstroms)
 Number     Number       Type             X           Y           Z
 ---------------------------------------------------------------------
      1          6           0        2.297051    3.036652    4.900073
      2          6           0        1.672480    2.709360    3.555792
      3          8           0        2.395720    2.743770    2.558175
      4          1           0        1.859242    2.399678    5.667844
      5          1           0        3.372043    2.862837    4.854271
      6          1           0        2.107577    4.081870    5.144345
      7          7           0        0.355358    2.565260    3.560851
      8          6           0       -0.436150    2.434378    2.340488
      9          6           0       -0.763745    3.744333    1.645076
     10          8           0       -1.465434    4.602526    2.170468
     11          6           0       -1.742468    1.771413    2.753178
     12          6           0       -2.599495    1.373101    1.565807
     13          8           0       -3.821625    1.210089    1.806277
     14          8           0       -2.118745    1.420001    0.412169
     15          1           0       -0.137942    2.455380    4.436683
     16          1           0        0.054296    1.827658    1.579007
     17          1           0       -2.230934    2.434899    3.472544
     18          1           0       -1.463917    0.872515    3.297504
     19          7           0       -0.154825    3.866392    0.461050
     20          6           0        0.031950    5.165321   -0.175188
     21          6           0       -1.028040    5.347851   -1.249295
     22          8           0       -1.088017    6.434208   -1.813236
     23          6           0        1.378483    5.255034   -0.871895
     24          6           0        2.663673    5.072479   -0.072169
     25          6           0        2.820946    6.138078    1.015335
     26          6           0        4.142629    5.984760    1.751709
     27          7           0        4.543201    7.015098    2.715268
     28          1           0        0.460127    3.144275    0.126864
     29          1           0       -0.112325    5.989630    0.527805
     30          1           0        1.500983    6.276675   -1.234307
     31          1           0        1.362471    4.651852   -1.783001
     32          1           0        3.470892    5.160842   -0.796041
     33          1           0        2.735333    4.081097    0.387641
     34          1           0        2.076007    6.069857    1.804899
     35          1           0        2.781748    7.134559    0.573420
     36          1           0        4.849436    6.033811    0.925017
     37          1           0        4.184855    5.012295    2.242757
     38          1           0        3.867771    7.048592    3.467114
     39          1           0        5.470904    6.753021    3.018224
     40          1           0        4.625814    7.927177    2.288785
     41          7           0       -1.878395    4.329721   -1.433979
     42          6           0       -2.920671    4.443054   -2.436684
     43          6           0       -4.337311    4.217122   -1.931626
     44          8           0       -5.284650    4.378589   -2.701158
     45          6           0       -2.629522    3.601185   -3.669319
     46          6           0       -2.469821    2.128101   -3.299022
     47          8           0       -1.491939    1.475385   -3.707813
     48          8           0       -3.197324    1.588083   -2.434604
     49          1           0       -1.674581    3.516505   -0.867905
     50          1           0       -2.981195    5.473857   -2.788226
     51          1           0       -1.651436    3.943737   -4.021179
     52          1           0       -3.392026    3.776839   -4.420539
     53          7           0       -4.479569    3.870220   -0.658315
     54          6           0       -5.767180    3.675628   -0.021846
     55          6           0       -6.394471    2.310391   -0.288741
     56          8           0       -7.566479    2.150327    0.038788
     57          1           0       -3.641482    3.541418   -0.207316
     58          1           0       -6.465430    4.477460   -0.246594
     59          1           0       -5.514499    3.693209    1.034726
     60          7           0       -5.706337    1.389094   -0.961559
     61          6           0       -6.294985    0.143277   -1.405218
     62          6           0       -6.497029   -0.792752   -0.218825
     63          8           0       -7.132740   -1.793474   -0.557538
     64          6           0       -5.676860   -0.334150   -2.720126
     65          6           0       -4.451217   -1.219627   -2.735297
     66          7           0       -4.264444   -1.945617   -3.845141
     67          8           0       -3.599940   -1.261090   -1.853645
     68          1           0       -4.750039    1.586849   -1.227054
     69          1           0       -7.316052    0.448369   -1.623717
     70          1           0       -5.450160    0.526371   -3.354169
     71          1           0       -6.453974   -0.880679   -3.255849
     72          1           0       -4.838601   -1.843712   -4.665543
     73          1           0       -3.405967   -2.456076   -4.010815
     74          7           0       -5.905669   -0.560830    0.950237
     75          6           0       -6.043509   -1.352906    2.157968
     76          6           0       -4.761146   -2.085853    2.555251
     77          8           0       -4.902406   -2.947730    3.414678
     78          1           0       -5.296402    0.246976    1.006312
     79          1           0       -6.785096   -2.137743    1.988915
     80          1           0       -6.328855   -0.699399    2.975530
     81          7           0       -3.684100   -1.963398    1.773665
     82          6           0       -2.572453   -2.894770    1.726894
     83          6           0       -1.232467   -2.191868    1.571442
     84          8           0       -1.095678   -1.321047    0.711989
     85          6           0       -2.755146   -3.894964    0.588635
     86          6           0       -4.049040   -4.665053    0.472864
     87          6           0       -4.996496   -4.381320   -0.521280
     88          6           0       -4.380797   -5.543363    1.514886
     89          6           0       -6.268424   -4.961370   -0.574576
     90          6           0       -5.626507   -6.177415    1.451770
     91          6           0       -6.565057   -5.866875    0.456186
     92          8           0       -7.767348   -6.501649    0.370395
     93          1           0       -3.710336   -1.207042    1.108431
     94          1           0       -2.541239   -3.513824    2.617791
     95          1           0       -1.885575   -4.555857    0.607748
     96          1           0       -2.688141   -3.293908   -0.307659
     97          1           0       -4.600459   -3.671177   -1.240830
     98          1           0       -3.706612   -5.639917    2.359073
     99          1           0       -6.984829   -4.841079   -1.376881
    100          1           0       -5.966825   -6.781147    2.274626
    101          1           0       -7.762877   -7.190600    1.044729
    102          7           0       -0.171351   -2.542535    2.300254
    103          6           0        1.208047   -2.155565    2.062740
    104          6           0        1.894401   -3.156730    1.142095
    105          8           0        1.945295   -4.315135    1.558637
    106          6           0        2.017289   -2.116227    3.355249
    107          6           0        1.209534   -1.510496    4.497013
    108          6           0        3.323315   -1.318418    3.228771
    109          6           0        1.936444   -1.523356    5.836392
    110          1           0       -0.325148   -3.221017    3.024000
    111          1           0        1.229910   -1.139608    1.666566
    112          1           0        2.341744   -3.093381    3.698904
    113          1           0        0.350183   -2.163145    4.671554
    114          1           0        0.994190   -0.455943    4.324543
    115          1           0        4.036248   -1.664192    3.978682
    116          1           0        3.820922   -1.519623    2.282883
    117          1           0        3.202926   -0.238080    3.290221
    118          1           0        2.875637   -0.975525    5.870988
    119          1           0        1.354321   -0.962558    6.564910
    120          1           0        2.088279   -2.564547    6.142608
    121          7           0        2.406119   -2.770175   -0.024789
    122          6           0        3.092381   -3.659599   -0.949164
    123          6           0        4.552412   -3.554600   -0.520577
    124          8           0        4.929378   -2.704232    0.280029
    125          6           0        2.847464   -3.283154   -2.400303
    126          8           0        3.501633   -2.096449   -2.790679
    127          1           0        2.169777   -1.860841   -0.391606
    128          1           0        2.845304   -4.699177   -0.718883
    129          1           0        1.833737   -3.030581   -2.717737
    130          1           0        3.192862   -4.151860   -2.963732
    131          1           0        3.027376   -1.832756   -3.592518
    132          7           0        5.318675   -4.481254   -1.087721
    133          6           0        6.752060   -4.323342   -0.949978
    134          6           0        7.356223   -3.039122   -1.500947
    135          8           0        8.201727   -2.491464   -0.799027
    136          6           0        7.373493   -5.557432   -1.608266
    137          1           0        5.052799   -5.197458   -1.759258
    138          1           0        7.075024   -4.404847    0.085565
    139          1           0        6.766341   -6.453085   -1.481098
    140          1           0        7.444384   -5.256725   -2.655142
    141          1           0        8.340030   -5.911747   -1.254476
    142          7           0        6.709410   -2.437407   -2.494010
    143          6           0        7.081281   -1.202616   -3.179504
    144          6           0        6.704793   -0.002031   -2.324546
    145          8           0        7.262079    1.081074   -2.464960
    146          6           0        6.415030   -1.181893   -4.552923
    147          1           0        6.031563   -3.034684   -2.943881
    148          1           0        8.149797   -1.261562   -3.363076
    149          1           0        5.325309   -1.256885   -4.493893
    150          1           0        6.769176   -0.347007   -5.153795
    151          1           0        6.697790   -2.115226   -5.040196
    152          7           0        5.775953   -0.217649   -1.388509
    153          6           0        5.400015    0.815763   -0.447802
    154          6           0        6.273314    0.674566    0.796710
    155          8           0        6.820151    1.687010    1.220652
    156          6           0        3.900242    0.748957   -0.133448
    157          6           0        3.105595    1.231422   -1.344052
    158          6           0        1.633021    0.898535   -1.092632
    159          8           0        1.259028   -0.260232   -0.810519
    160          8           0        0.753733    1.778118   -1.128489
    161          1           0        5.262110   -1.089273   -1.348036
    162          1           0        5.555202    1.808875   -0.861378
    163          1           0        3.596933    1.293085    0.759037
    164          1           0        3.652762   -0.302234    0.017052
    165          1           0        3.522290    0.732856   -2.214912
    166          1           0        3.187692    2.311972   -1.415265
    167          7           0        6.406846   -0.542838    1.320444
    168          6           0        7.153382   -0.747458    2.544746
    169          1           0        7.922377   -1.502766    2.378689
    170          1           0        7.623169    0.189220    2.845612
    171          1           0        6.477365   -1.084208    3.331060
    172          1           0        5.972658   -1.353616    0.902929
    173         20           0       -1.246326    0.072976   -1.490647
    174          8           0       -0.330407   -1.520667   -3.409928
    175          1           0        0.140269   -1.019017   -4.076944
    176          1           0       -0.124337   -2.435609   -3.612455
 ---------------------------------------------------------------------

 SCF Done:  E(RB3LYP) =  -5333.62349529     A.U. after   18 cycles

 The electronic state is 1-A.
 Alpha  occ. eigenvalues -- -145.35239 -19.20581 -19.19327 -19.15090 -19.13767
 Alpha  occ. eigenvalues --  -19.11688 -19.11160 -19.11012 -19.10487 -19.09605
 Alpha  occ. eigenvalues --  -19.08575 -19.08551 -19.08497 -19.07908 -19.06780
 Alpha  occ. eigenvalues --  -19.06766 -19.05480 -19.05461 -19.04698 -19.04651
 Alpha  occ. eigenvalues --  -19.04274 -19.03910 -19.03685 -19.03225 -15.40988
 Alpha  occ. eigenvalues --  -14.57955 -14.40495 -14.37722 -14.37221 -14.36642
 Alpha  occ. eigenvalues --  -14.35601 -14.35166 -14.34351 -14.32994 -14.32409
 Alpha  occ. eigenvalues --  -14.32359 -14.32202 -14.30318 -14.29842 -14.28584
 Alpha  occ. eigenvalues --  -12.54602 -12.54570 -12.54543 -10.32963 -10.32657
 Alpha  occ. eigenvalues --  -10.30214 -10.29842 -10.29610 -10.29341 -10.29264
 Alpha  occ. eigenvalues --  -10.28200 -10.27541 -10.27285 -10.26633 -10.26524
 Alpha  occ. eigenvalues --  -10.25720 -10.25707 -10.25331 -10.25227 -10.24792
 Alpha  occ. eigenvalues --  -10.24415 -10.24348 -10.23968 -10.23055 -10.23044
 Alpha  occ. eigenvalues --  -10.23012 -10.22621 -10.22211 -10.22064 -10.22045
 Alpha  occ. eigenvalues --  -10.21966 -10.21880 -10.21547 -10.21426 -10.21225
 Alpha  occ. eigenvalues --  -10.20947 -10.19885 -10.19546 -10.19075 -10.18992
 Alpha  occ. eigenvalues --  -10.18866 -10.18467 -10.18332 -10.18131 -10.17962
 Alpha  occ. eigenvalues --  -10.17954 -10.17820 -10.17680 -10.17508 -10.17136
 Alpha  occ. eigenvalues --  -10.16641 -10.16452 -10.16200 -10.16172 -10.16159
 Alpha  occ. eigenvalues --  -10.15776 -10.15047  -1.77951  -1.13093  -1.08348
 Alpha  occ. eigenvalues --   -1.07410  -1.06760  -1.05940  -1.05648  -1.05165
 Alpha  occ. eigenvalues --   -1.04261  -1.04192  -1.04112  -1.03498  -1.02995
 Alpha  occ. eigenvalues --   -1.02615  -1.02532  -1.01775  -1.01354  -1.00252
 Alpha  occ. eigenvalues --   -0.99805  -0.99713  -0.98938  -0.98761  -0.97643
 Alpha  occ. eigenvalues --   -0.97574  -0.97026  -0.96022  -0.94648  -0.93686
 Alpha  occ. eigenvalues --   -0.93210  -0.92882  -0.92467  -0.91389  -0.91329
 Alpha  occ. eigenvalues --   -0.90256  -0.89610  -0.89290  -0.89172  -0.88876
 Alpha  occ. eigenvalues --   -0.88864  -0.87368  -0.87163  -0.86833  -0.85627
 Alpha  occ. eigenvalues --   -0.82537  -0.82142  -0.81722  -0.80238  -0.79812
 Alpha  occ. eigenvalues --   -0.78517  -0.78390  -0.77903  -0.77147  -0.75489
 Alpha  occ. eigenvalues --   -0.74852  -0.74577  -0.74026  -0.73681  -0.72865
 Alpha  occ. eigenvalues --   -0.71958  -0.71675  -0.71554  -0.71376  -0.70282
 Alpha  occ. eigenvalues --   -0.69721  -0.69154  -0.68743  -0.68082  -0.67799
 Alpha  occ. eigenvalues --   -0.67498  -0.65796  -0.65363  -0.64722  -0.64466
 Alpha  occ. eigenvalues --   -0.63677  -0.62931  -0.62469  -0.61684  -0.61346
 Alpha  occ. eigenvalues --   -0.60926  -0.60553  -0.60390  -0.59885  -0.59614
 Alpha  occ. eigenvalues --   -0.59467  -0.59034  -0.58911  -0.58881  -0.58509
 Alpha  occ. eigenvalues --   -0.58105  -0.57161  -0.56996  -0.56317  -0.56136
 Alpha  occ. eigenvalues --   -0.55817  -0.55395  -0.55327  -0.54648  -0.54535
 Alpha  occ. eigenvalues --   -0.54232  -0.54127  -0.53584  -0.53309  -0.53083
 Alpha  occ. eigenvalues --   -0.52841  -0.52742  -0.52147  -0.52085  -0.51662
 Alpha  occ. eigenvalues --   -0.51549  -0.51300  -0.50411  -0.50084  -0.49977
 Alpha  occ. eigenvalues --   -0.49667  -0.49508  -0.48893  -0.48843  -0.48379
 Alpha  occ. eigenvalues --   -0.48110  -0.47914  -0.47759  -0.47730  -0.47429
 Alpha  occ. eigenvalues --   -0.47335  -0.47321  -0.47095  -0.46922  -0.46812
 Alpha  occ. eigenvalues --   -0.46701  -0.46538  -0.46367  -0.46282  -0.46096
 Alpha  occ. eigenvalues --   -0.45360  -0.45222  -0.44837  -0.44670  -0.44434
 Alpha  occ. eigenvalues --   -0.44125  -0.43962  -0.43660  -0.43574  -0.43468
 Alpha  occ. eigenvalues --   -0.43277  -0.43179  -0.43137  -0.42865  -0.42789
 Alpha  occ. eigenvalues --   -0.42761  -0.42558  -0.42410  -0.42268  -0.42152
 Alpha  occ. eigenvalues --   -0.42093  -0.41961  -0.41849  -0.41726  -0.41587
 Alpha  occ. eigenvalues --   -0.41404  -0.41188  -0.41090  -0.40976  -0.40828
 Alpha  occ. eigenvalues --   -0.40670  -0.40606  -0.40354  -0.40064  -0.39952
 Alpha  occ. eigenvalues --   -0.39893  -0.39836  -0.39714  -0.39534  -0.39345
 Alpha  occ. eigenvalues --   -0.39301  -0.39127  -0.38989  -0.38776  -0.38696
 Alpha  occ. eigenvalues --   -0.38637  -0.38591  -0.38503  -0.38287  -0.37893
 Alpha  occ. eigenvalues --   -0.37855  -0.37747  -0.37608  -0.37353  -0.37204
 Alpha  occ. eigenvalues --   -0.37171  -0.37121  -0.36866  -0.36642  -0.36507
 Alpha  occ. eigenvalues --   -0.36271  -0.36164  -0.36134  -0.36088  -0.35866
 Alpha  occ. eigenvalues --   -0.35646  -0.35534  -0.35163  -0.34849  -0.34835
 Alpha  occ. eigenvalues --   -0.34510  -0.34260  -0.34045  -0.33828  -0.33659
 Alpha  occ. eigenvalues --   -0.33454  -0.33358  -0.33229  -0.33164  -0.33074
 Alpha  occ. eigenvalues --   -0.32820  -0.32510  -0.32265  -0.32135  -0.32009
 Alpha  occ. eigenvalues --   -0.31833  -0.31263  -0.31000  -0.30471  -0.30420
 Alpha  occ. eigenvalues --   -0.29806  -0.29012  -0.28928  -0.28264  -0.28153
 Alpha  occ. eigenvalues --   -0.27679  -0.27309  -0.26749  -0.26601  -0.26434
 Alpha  occ. eigenvalues --   -0.26316  -0.26279  -0.26144  -0.26110  -0.25068
 Alpha  occ. eigenvalues --   -0.24466  -0.24229  -0.24048  -0.23641  -0.23605
 Alpha  occ. eigenvalues --   -0.23511  -0.23338  -0.23208  -0.23153  -0.22766
 Alpha  occ. eigenvalues --   -0.22599  -0.22302  -0.21788  -0.21692  -0.21651
 Alpha  occ. eigenvalues --   -0.21517  -0.20067  -0.19801  -0.19765  -0.19613
 Alpha  occ. eigenvalues --   -0.19492  -0.18496  -0.18134
 Alpha virt. eigenvalues --   -0.10050  -0.04951  -0.03972  -0.03424  -0.02853
 Alpha virt. eigenvalues --   -0.00916  -0.00620  -0.00289  -0.00071   0.00650
 Alpha virt. eigenvalues --    0.01216   0.01303   0.01785   0.01918   0.02070

 Mulliken charges:
               1
     1  C    0.032668
     2  C    0.045657
     3  O   -0.299425
     4  H    0.022721
     5  H    0.027071
     6  H    0.018488
     7  N   -0.100706
     8  C    0.097592
     9  C    0.059096
    10  O   -0.269427
    11  C    0.029978
    12  C    0.185926
    13  O   -0.382984
    14  O   -0.473476
    15  H    0.127349
    16  H    0.014760
    17  H    0.019561
    18  H    0.000679
    19  N   -0.168075
    20  C    0.134082
    21  C    0.039427
    22  O   -0.291066
    23  C    0.038892
    24  C    0.022322
    25  C   -0.012340
    26  C   -0.035245
    27  N    0.093936
    28  H    0.155295
    29  H    0.004161
    30  H   -0.002333
    31  H    0.020310
    32  H    0.010808
    33  H    0.056007
    34  H    0.030485
    35  H    0.003532
    36  H    0.060061
    37  H    0.094361
    38  H    0.197015
    39  H    0.203631
    40  H    0.187021
    41  N   -0.161642
    42  C    0.094320
    43  C    0.049910
    44  O   -0.292182
    45  C    0.141157
    46  C    0.085862
    47  O   -0.427694
    48  O   -0.423537
    49  H    0.172575
    50  H    0.026960
    51  H   -0.004936
    52  H    0.021867
    53  N   -0.161933
    54  C    0.257831
    55  C    0.020106
    56  O   -0.306382
    57  H    0.129761
    58  H    0.029899
    59  H    0.013772
    60  N   -0.182713
    61  C    0.165271
    62  C    0.060686
    63  O   -0.314563
    64  C    0.074414
    65  C    0.125030
    66  N   -0.054973
    67  O   -0.341159
    68  H    0.146809
    69  H    0.015183
    70  H    0.054898
    71  H    0.009557
    72  H    0.116941
    73  H    0.110407
    74  N   -0.177518
    75  C    0.237520
    76  C    0.035373
    77  O   -0.303996
    78  H    0.155590
    79  H    0.048332
    80  H    0.026705
    81  N   -0.129282
    82  C    0.138049
    83  C    0.122672
    84  O   -0.359816
    85  C    0.135621
    86  C   -0.044324
    87  C    0.032097
    88  C    0.003426
    89  C    0.045872
    90  C   -0.030430
    91  C    0.128410
    92  O   -0.193612
    93  H    0.142297
    94  H   -0.017366
    95  H   -0.012843
    96  H   -0.031956
    97  H   -0.049682
    98  H   -0.034254
    99  H   -0.026072
   100  H   -0.048583
   101  H    0.165099
   102  N   -0.107630
   103  C    0.201903
   104  C    0.062709
   105  O   -0.303166
   106  C   -0.128700
   107  C    0.039983
   108  C    0.028204
   109  C    0.013269
   110  H    0.127477
   111  H    0.016057
   112  H   -0.006039
   113  H   -0.014850
   114  H   -0.009322
   115  H    0.011783
   116  H    0.014295
   117  H    0.009843
   118  H   -0.000278
   119  H   -0.003544
   120  H    0.011164
   121  N   -0.120480
   122  C    0.078679
   123  C    0.103466
   124  O   -0.263519
   125  C    0.251104
   126  O   -0.294975
   127  H    0.152864
   128  H    0.031067
   129  H   -0.039286
   130  H   -0.016647
   131  H    0.182290
   132  N   -0.112961
   133  C    0.058540
   134  C    0.059630
   135  O   -0.246759
   136  C    0.015082
   137  H    0.128269
   138  H    0.031425
   139  H    0.018939
   140  H    0.004270
   141  H    0.045868
   142  N   -0.149963
   143  C    0.096455
   144  C    0.099376
   145  O   -0.269937
   146  C    0.045533
   147  H    0.100355
   148  H    0.024558
   149  H   -0.016498
   150  H    0.048923
   151  H    0.001896
   152  N   -0.171977
   153  C    0.137807
   154  C    0.076291
   155  O   -0.293614
   156  C   -0.049557
   157  C    0.131467
   158  C    0.133375
   159  O   -0.427392
   160  O   -0.406962
   161  H    0.150077
   162  H   -0.015531
   163  H    0.031992
   164  H   -0.009874
   165  H   -0.018805
   166  H   -0.012700
   167  N   -0.166692
   168  C    0.128712
   169  H    0.021942
   170  H    0.025846
   171  H    0.002115
   172  H    0.137874
   173  Ca   1.267132
   174  O   -0.264890
   175  H    0.192133
   176  H    0.183866
 Sum of Mulliken charges =  -0.00000

 Dipole moment (field-independent basis, Debye):
    X=             29.8469    Y=              3.1626    Z=              2.5752  Tot=             30.1243
 Quadrupole moment (field-independent basis, Debye-Ang):
   XX=           -696.6109   YY=           -407.4682   ZZ=           -480.8113
   XY=             99.8800   XZ=             31.3067   YZ=            137.8082

 ESP charges:
               1
     1  C   -0.493059
     2  C    1.033582
     3  O   -0.705723
     4  H    0.123097
     5  H    0.122517
     6  H    0.108436
     7  N   -1.049612
     8  C    0.772770
     9  C    0.435542
    10  O   -0.559573
    11  C   -0.326376
    12  C    0.802954
    13  O   -0.641980
    14  O   -0.885180
    15  H    0.422215
    16  H   -0.158537
    17  H    0.065094
    18  H    0.025713
    19  N   -0.293801
    20  C   -0.349748
    21  C    0.831174
    22  O   -0.599257
    23  C   -0.063915
    24  C   -0.002994
    25  C   -0.039362
    26  C    0.172305
    27  N   -0.518789
    28  H    0.370770
    29  H    0.143541
    30  H    0.046376
    31  H    0.075375
    32  H    0.044953
    33  H   -0.008061
    34  H    0.037817
    35  H    0.036564
    36  H    0.038164
    37  H    0.054355
    38  H    0.365485
    39  H    0.369903
    40  H    0.360507
    41  N   -0.831315
    42  C    0.235110
    43  C    0.468586
    44  O   -0.543531
    45  C   -0.295476
    46  C    0.820228
    47  O   -0.788676
    48  O   -0.733736
    49  H    0.479141
    50  H    0.072184
    51  H    0.083230
    52  H    0.081427
    53  N   -0.323365
    54  C   -0.288534
    55  C    0.602862
    56  O   -0.600381
    57  H    0.275092
    58  H    0.164967
    59  H    0.132022
    60  N   -0.246342
    61  C   -0.025463
    62  C    0.313431
    63  O   -0.502877
    64  C   -0.201593
    65  C    0.775827
    66  N   -0.869073
    67  O   -0.581080
    68  H    0.206907
    69  H    0.119244
    70  H    0.105262
    71  H    0.070512
    72  H    0.374982
    73  H    0.375821
    74  N    0.017205
    75  C   -0.300341
    76  C    0.670248
    77  O   -0.573726
    78  H    0.145910
    79  H    0.169222
    80  H    0.095325
    81  N   -0.485169
    82  C    0.179778
    83  C    0.436589
    84  O   -0.481369
    85  C    0.159086
    86  C   -0.267335
    87  C    0.053676
    88  C    0.073853
    89  C   -0.395985
    90  C   -0.494386
    91  C    0.540196
    92  O   -0.551171
    93  H    0.213722
    94  H    0.008973
    95  H   -0.026619
    96  H   -0.032325
    97  H    0.088224
    98  H    0.102414
    99  H    0.196947
   100  H    0.171938
   101  H    0.379969
   102  N   -0.510287
   103  C   -0.235730
   104  C    0.778273
   105  O   -0.607438
   106  C    0.230081
   107  C    0.092952
   108  C   -0.233113
   109  C   -0.251015
   110  H    0.336594
   111  H    0.227508
   112  H    0.002331
   113  H   -0.010366
   114  H   -0.007761
   115  H    0.071153
   116  H    0.046047
   117  H    0.020701
   118  H    0.051343
   119  H    0.052220
   120  H    0.057310
   121  N   -0.614446
   122  C    0.302862
   123  C    0.476190
   124  O   -0.361964
   125  C   -0.190019
   126  O   -0.300208
   127  H    0.330134
   128  H    0.035769
   129  H    0.090891
   130  H    0.057983
   131  H    0.351219
   132  N   -0.501243
   133  C    0.233413
   134  C    0.423819
   135  O   -0.531009
   136  C   -0.244051
   137  H    0.297815
   138  H    0.056836
   139  H    0.078667
   140  H    0.018292
   141  H    0.101704
   142  N   -0.276154
   143  C    0.086995
   144  C    0.268205
   145  O   -0.508158
   146  C   -0.235062
   147  H    0.252659
   148  H    0.100605
   149  H    0.043362
   150  H    0.111442
   151  H    0.047826
   152  N    0.646973
   153  C   -0.531503
   154  C    0.539722
   155  O   -0.571661
   156  C    0.540209
   157  C   -0.456221
   158  C    0.819993
   159  O   -0.743561
   160  O   -0.737515
   161  H   -0.606754
   162  H    0.131099
   163  H    0.024269
   164  H   -0.297547
   165  H    0.104059
   166  H    0.093803
   167  N   -0.165070
   168  C   -0.116480
   169  H    0.063530
   170  H    0.078826
   171  H    0.031083
   172  H    0.229840
   173  Ca   1.599782
   174  O   -0.825650
   175  H    0.437347
   176  H    0.412770
 Sum of ESP charges =  -0.00000

 Normal termination of Gaussian 16 at Wed Sep 18 20:23:33 2019.
