 Gaussian 16, Revision A.03,
 Gaussian 16:  ES64L-G16RevA.03 25-Dec-2016

 ----------------------------------------------------------------------
 #b3lyp/svp scf=(tight,noincore) Test #IOP(5/87=12) Density=Current Pop
 =(MK,readradii) iop(6/33=2) iop(6/42=6)
 ----------------------------------------------------------------------

 ------------------
 holoCaM_loop3_98.0
 ------------------
 Symbolic Z-matrix:
 Charge =  0 Multiplicity = 1

                         Standard orientation:
 ---------------------------------------------------------------------
 Center     Atomic      Atomic             Coordinates (Angstroms)
 Number     Number       Type             X           Y           Z
 ---------------------------------------------------------------------
      1          6           0        2.690875    3.361797    4.211819
      2          6           0        1.795070    3.080623    3.013539
      3          8           0        2.255045    3.128285    1.870275
      4          1           0        3.505945    2.638934    4.232512
      5          1           0        3.101013    4.368839    4.131121
      6          1           0        2.108753    3.278083    5.129139
      7          7           0        0.490047    2.909274    3.238382
      8          6           0       -0.455474    2.705753    2.155853
      9          6           0       -0.774682    4.014292    1.448439
     10          8           0       -1.605009    4.796221    1.915820
     11          6           0       -1.716806    2.008994    2.659507
     12          6           0       -2.711663    1.647550    1.571887
     13          8           0       -3.834331    1.243052    1.919157
     14          8           0       -2.312655    1.697961    0.384178
     15          1           0        0.249923    2.988157    4.218391
     16          1           0       -0.022328    1.998588    1.450443
     17          1           0       -2.316235    2.543882    3.386611
     18          1           0       -1.383605    1.036745    3.033283
     19          7           0       -0.089025    4.255212    0.333795
     20          6           0       -0.046117    5.510526   -0.385402
     21          6           0       -1.263709    5.831072   -1.240047
     22          8           0       -1.401050    7.012631   -1.538804
     23          6           0        1.197375    5.532987   -1.268536
     24          6           0        2.613984    5.343817   -0.721515
     25          6           0        2.857934    6.196627    0.513071
     26          6           0        4.246997    6.268836    1.154547
     27          7           0        4.167442    7.256141    2.235981
     28          1           0        0.508221    3.494166    0.043438
     29          1           0        0.011129    6.346160    0.323498
     30          1           0        1.230843    6.544830   -1.670350
     31          1           0        0.960399    4.903278   -2.125396
     32          1           0        3.359391    5.590289   -1.467786
     33          1           0        2.813196    4.320020   -0.396624
     34          1           0        2.095982    5.874238    1.221093
     35          1           0        2.584803    7.213777    0.246419
     36          1           0        4.930568    6.602682    0.379256
     37          1           0        4.573737    5.310376    1.556038
     38          1           0        3.982019    8.167735    1.840235
     39          1           0        3.439154    7.139299    2.939788
     40          1           0        5.057182    7.425765    2.690944
     41          7           0       -2.105186    4.849505   -1.568442
     42          6           0       -3.299312    4.948321   -2.372245
     43          6           0       -4.610892    4.728802   -1.630646
     44          8           0       -5.626569    5.302760   -1.990607
     45          6           0       -3.206836    3.933438   -3.509109
     46          6           0       -2.617052    2.614835   -3.029484
     47          8           0       -3.397327    1.675357   -2.761990
     48          8           0       -1.373398    2.448987   -2.963755
     49          1           0       -1.923300    3.994300   -1.060859
     50          1           0       -3.399006    5.976693   -2.723120
     51          1           0       -2.533902    4.350514   -4.248911
     52          1           0       -4.129599    3.894091   -4.090710
     53          7           0       -4.623429    3.939460   -0.555293
     54          6           0       -5.776837    3.629140    0.271962
     55          6           0       -6.403078    2.258478    0.125990
     56          8           0       -7.463992    2.072009    0.732778
     57          1           0       -3.697947    3.664666   -0.253349
     58          1           0       -6.543233    4.389970    0.126098
     59          1           0       -5.411086    3.655108    1.304072
     60          7           0       -5.873155    1.386256   -0.738133
     61          6           0       -6.513439    0.113433   -0.993788
     62          6           0       -6.478635   -0.920136    0.127517
     63          8           0       -6.923328   -2.016499   -0.210028
     64          6           0       -5.981876   -0.549371   -2.261199
     65          6           0       -4.553960   -1.054975   -2.084505
     66          7           0       -4.178529   -1.867117   -3.079481
     67          8           0       -3.845006   -0.767683   -1.131274
     68          1           0       -4.911070    1.469845   -1.006471
     69          1           0       -7.569835    0.215273   -1.261847
     70          1           0       -6.026662    0.223987   -3.031661
     71          1           0       -6.739404   -1.300372   -2.442993
     72          1           0       -4.903534   -2.220084   -3.686260
     73          1           0       -3.206147   -2.132757   -3.142799
     74          7           0       -5.877133   -0.629692    1.277837
     75          6           0       -5.849998   -1.481971    2.447874
     76          6           0       -4.758728   -2.549604    2.421608
     77          8           0       -4.897794   -3.530686    3.147926
     78          1           0       -5.434796    0.269622    1.406178
     79          1           0       -6.818393   -1.972901    2.350927
     80          1           0       -5.765880   -0.882676    3.352788
     81          7           0       -3.728717   -2.429522    1.580859
     82          6           0       -2.628611   -3.344371    1.365176
     83          6           0       -1.369862   -2.515964    1.163453
     84          8           0       -1.345702   -1.440498    0.587096
     85          6           0       -2.880250   -4.242539    0.158581
     86          6           0       -4.120384   -5.106442    0.082827
     87          6           0       -4.796394   -5.126856   -1.139831
     88          6           0       -4.428996   -5.962400    1.143956
     89          6           0       -5.875114   -5.999611   -1.307056
     90          6           0       -5.522346   -6.809516    0.971389
     91          6           0       -6.297702   -6.771862   -0.205899
     92          8           0       -7.501376   -7.394802   -0.292012
     93          1           0       -3.776544   -1.638497    0.959658
     94          1           0       -2.376129   -3.969476    2.222145
     95          1           0       -2.039762   -4.934080    0.265593
     96          1           0       -2.718489   -3.685478   -0.755594
     97          1           0       -4.445964   -4.444565   -1.913574
     98          1           0       -3.751058   -6.079068    1.984247
     99          1           0       -6.393378   -5.930708   -2.252336
    100          1           0       -5.847847   -7.517800    1.720577
    101          1           0       -7.735909   -7.851083    0.518976
    102          7           0       -0.303088   -3.015312    1.797681
    103          6           0        1.069557   -2.571210    1.629696
    104          6           0        1.783464   -3.626363    0.787623
    105          8           0        1.705939   -4.813606    1.086026
    106          6           0        1.758266   -2.298640    2.960781
    107          6           0        0.958274   -1.295873    3.787202
    108          6           0        3.187575   -1.795027    2.754747
    109          6           0        1.399265   -1.184942    5.245599
    110          1           0       -0.417103   -3.874492    2.310428
    111          1           0        1.057445   -1.655577    1.059460
    112          1           0        1.823017   -3.249327    3.499390
    113          1           0       -0.101401   -1.521119    3.699156
    114          1           0        1.029222   -0.291699    3.358251
    115          1           0        3.783428   -1.698328    3.664587
    116          1           0        3.757568   -2.341278    1.997570
    117          1           0        3.056578   -0.824114    2.270013
    118          1           0        0.840981   -0.358054    5.689079
    119          1           0        1.142003   -2.117299    5.743322
    120          1           0        2.469735   -0.998772    5.341170
    121          7           0        2.504126   -3.132056   -0.217617
    122          6           0        3.509920   -3.861475   -0.969697
    123          6           0        4.944771   -3.642401   -0.534944
    124          8           0        5.260549   -2.806430    0.309826
    125          6           0        3.411783   -3.438530   -2.433386
    126          8           0        4.043388   -2.182584   -2.571864
    127          1           0        2.411644   -2.141831   -0.378248
    128          1           0        3.252364   -4.912618   -0.928909
    129          1           0        2.373185   -3.372815   -2.755094
    130          1           0        3.953801   -4.149283   -3.061117
    131          1           0        3.523475   -1.784549   -3.280778
    132          7           0        5.808538   -4.545050   -0.999414
    133          6           0        7.227336   -4.299901   -0.844772
    134          6           0        7.757961   -2.895392   -1.116786
    135          8           0        8.432186   -2.271600   -0.306598
    136          6           0        7.936396   -5.309534   -1.735880
    137          1           0        5.498297   -5.175972   -1.717598
    138          1           0        7.442131   -4.619117    0.179564
    139          1           0        7.477745   -5.309710   -2.726707
    140          1           0        8.995305   -5.078418   -1.842166
    141          1           0        7.770411   -6.366863   -1.526343
    142          7           0        7.333786   -2.291557   -2.223293
    143          6           0        7.616145   -0.924713   -2.613820
    144          6           0        7.138436    0.092573   -1.589602
    145          8           0        7.866118    1.030814   -1.269785
    146          6           0        7.060498   -0.786182   -4.021004
    147          1           0        6.592362   -2.713258   -2.778053
    148          1           0        8.696258   -0.744330   -2.628583
    149          1           0        5.982055   -0.811925   -3.830220
    150          1           0        7.341262    0.169580   -4.470770
    151          1           0        7.252417   -1.631802   -4.674069
    152          7           0        5.907855   -0.024916   -1.085550
    153          6           0        5.339523    0.865652   -0.084357
    154          6           0        5.921841    0.740041    1.311791
    155          8           0        6.055635    1.763259    1.981288
    156          6           0        3.838731    0.595914   -0.076295
    157          6           0        3.148187    0.920222   -1.401690
    158          6           0        1.652541    0.674789   -1.234937
    159          8           0        1.232042   -0.496474   -1.212059
    160          8           0        0.846641    1.610160   -1.108817
    161          1           0        5.436752   -0.911673   -1.187154
    162          1           0        5.502072    1.900615   -0.391812
    163          1           0        3.400428    1.119574    0.773335
    164          1           0        3.601095   -0.430895    0.195168
    165          1           0        3.418624    0.229527   -2.200129
    166          1           0        3.333427    1.929001   -1.784641
    167          7           0        6.290902   -0.479769    1.690812
    168          6           0        7.156341   -0.805281    2.812220
    169          1           0        7.855409   -1.586729    2.515699
    170          1           0        7.711401    0.083201    3.113307
    171          1           0        6.552268   -1.157234    3.647887
    172          1           0        6.073998   -1.249151    1.063274
    173         20           0       -1.345881    0.265541   -1.557089
    174          8           0       -1.137173   -2.258835   -2.114281
    175          1           0       -0.196038   -2.459025   -2.058689
    176          1           0       -1.482670   -2.900384   -2.730760
 ---------------------------------------------------------------------

 SCF Done:  E(RB3LYP) =  -5333.62639174     A.U. after   19 cycles

 The electronic state is 1-A.
 Alpha  occ. eigenvalues -- -145.36424 -19.20930 -19.20042 -19.15279 -19.14429
 Alpha  occ. eigenvalues --  -19.11639 -19.11437 -19.11218 -19.11140 -19.10522
 Alpha  occ. eigenvalues --  -19.08881 -19.08848 -19.07608 -19.07467 -19.07458
 Alpha  occ. eigenvalues --  -19.06413 -19.04835 -19.04715 -19.04712 -19.04602
 Alpha  occ. eigenvalues --  -19.04250 -19.04192 -19.03711 -19.02948 -15.42164
 Alpha  occ. eigenvalues --  -14.57516 -14.40805 -14.37762 -14.37454 -14.36648
 Alpha  occ. eigenvalues --  -14.36605 -14.36299 -14.34643 -14.33061 -14.33001
 Alpha  occ. eigenvalues --  -14.32327 -14.31422 -14.30185 -14.29673 -14.29654
 Alpha  occ. eigenvalues --  -12.55790 -12.55739 -12.55720 -10.33418 -10.33140
 Alpha  occ. eigenvalues --  -10.30695 -10.29635 -10.29522 -10.29471 -10.29398
 Alpha  occ. eigenvalues --  -10.29171 -10.27689 -10.27603 -10.26945 -10.26881
 Alpha  occ. eigenvalues --  -10.26120 -10.25890 -10.25330 -10.24874 -10.24441
 Alpha  occ. eigenvalues --  -10.24022 -10.23817 -10.23249 -10.23225 -10.23205
 Alpha  occ. eigenvalues --  -10.23174 -10.22996 -10.22740 -10.22612 -10.22457
 Alpha  occ. eigenvalues --  -10.22093 -10.21966 -10.21731 -10.21429 -10.21300
 Alpha  occ. eigenvalues --  -10.21194 -10.20588 -10.19807 -10.19571 -10.19235
 Alpha  occ. eigenvalues --  -10.18988 -10.18652 -10.18360 -10.18157 -10.17984
 Alpha  occ. eigenvalues --  -10.17914 -10.17884 -10.17399 -10.17341 -10.17335
 Alpha  occ. eigenvalues --  -10.17303 -10.17277 -10.17028 -10.17009 -10.16785
 Alpha  occ. eigenvalues --  -10.15529 -10.15045  -1.79075  -1.12629  -1.09031
 Alpha  occ. eigenvalues --   -1.07827  -1.07645  -1.06745  -1.06619  -1.05879
 Alpha  occ. eigenvalues --   -1.05009  -1.04640  -1.03896  -1.03796  -1.03504
 Alpha  occ. eigenvalues --   -1.03413  -1.03202  -1.01965  -1.00486  -1.00096
 Alpha  occ. eigenvalues --   -0.99618  -0.99232  -0.98332  -0.98039  -0.98005
 Alpha  occ. eigenvalues --   -0.97804  -0.97571  -0.96290  -0.94810  -0.94486
 Alpha  occ. eigenvalues --   -0.93400  -0.92775  -0.92637  -0.91743  -0.91710
 Alpha  occ. eigenvalues --   -0.90731  -0.89489  -0.89341  -0.88950  -0.88880
 Alpha  occ. eigenvalues --   -0.88597  -0.87413  -0.86760  -0.86696  -0.85936
 Alpha  occ. eigenvalues --   -0.83691  -0.83053  -0.81945  -0.80281  -0.80275
 Alpha  occ. eigenvalues --   -0.79114  -0.77961  -0.77880  -0.77382  -0.75683
 Alpha  occ. eigenvalues --   -0.75314  -0.74589  -0.73986  -0.73224  -0.72581
 Alpha  occ. eigenvalues --   -0.72469  -0.72040  -0.71698  -0.70505  -0.70486
 Alpha  occ. eigenvalues --   -0.70036  -0.69111  -0.68809  -0.68375  -0.68015
 Alpha  occ. eigenvalues --   -0.66957  -0.66543  -0.65366  -0.64589  -0.64318
 Alpha  occ. eigenvalues --   -0.63917  -0.63056  -0.62763  -0.62481  -0.61773
 Alpha  occ. eigenvalues --   -0.61196  -0.61152  -0.60545  -0.60479  -0.60399
 Alpha  occ. eigenvalues --   -0.60089  -0.59596  -0.59184  -0.58779  -0.58487
 Alpha  occ. eigenvalues --   -0.57522  -0.57399  -0.57211  -0.57144  -0.56551
 Alpha  occ. eigenvalues --   -0.56071  -0.55930  -0.55684  -0.55052  -0.54984
 Alpha  occ. eigenvalues --   -0.54261  -0.54207  -0.53829  -0.53271  -0.53216
 Alpha  occ. eigenvalues --   -0.52998  -0.52798  -0.52732  -0.52205  -0.52042
 Alpha  occ. eigenvalues --   -0.51346  -0.51301  -0.50548  -0.50087  -0.49900
 Alpha  occ. eigenvalues --   -0.49696  -0.49528  -0.49211  -0.48884  -0.48750
 Alpha  occ. eigenvalues --   -0.48438  -0.48125  -0.47895  -0.47805  -0.47690
 Alpha  occ. eigenvalues --   -0.47571  -0.47215  -0.47064  -0.46998  -0.46559
 Alpha  occ. eigenvalues --   -0.46517  -0.46463  -0.46172  -0.46104  -0.45757
 Alpha  occ. eigenvalues --   -0.45417  -0.45325  -0.45097  -0.45049  -0.44815
 Alpha  occ. eigenvalues --   -0.44624  -0.44156  -0.44108  -0.43914  -0.43579
 Alpha  occ. eigenvalues --   -0.43473  -0.43426  -0.43185  -0.43136  -0.43004
 Alpha  occ. eigenvalues --   -0.42903  -0.42791  -0.42592  -0.42500  -0.42376
 Alpha  occ. eigenvalues --   -0.42206  -0.42146  -0.41919  -0.41832  -0.41728
 Alpha  occ. eigenvalues --   -0.41357  -0.41298  -0.41102  -0.41059  -0.40715
 Alpha  occ. eigenvalues --   -0.40661  -0.40495  -0.40363  -0.40272  -0.40149
 Alpha  occ. eigenvalues --   -0.40095  -0.39996  -0.39891  -0.39708  -0.39535
 Alpha  occ. eigenvalues --   -0.39422  -0.39265  -0.39199  -0.39084  -0.38946
 Alpha  occ. eigenvalues --   -0.38845  -0.38801  -0.38326  -0.38223  -0.38168
 Alpha  occ. eigenvalues --   -0.38043  -0.37945  -0.37720  -0.37606  -0.37467
 Alpha  occ. eigenvalues --   -0.37212  -0.37178  -0.37089  -0.36849  -0.36697
 Alpha  occ. eigenvalues --   -0.36509  -0.36032  -0.35896  -0.35849  -0.35717
 Alpha  occ. eigenvalues --   -0.35307  -0.35210  -0.34947  -0.34900  -0.34655
 Alpha  occ. eigenvalues --   -0.34561  -0.34253  -0.34173  -0.34079  -0.33970
 Alpha  occ. eigenvalues --   -0.33899  -0.33619  -0.33490  -0.33122  -0.32918
 Alpha  occ. eigenvalues --   -0.32788  -0.32650  -0.32527  -0.32348  -0.32076
 Alpha  occ. eigenvalues --   -0.32014  -0.31590  -0.31221  -0.31005  -0.30905
 Alpha  occ. eigenvalues --   -0.30543  -0.29035  -0.28920  -0.28623  -0.28221
 Alpha  occ. eigenvalues --   -0.28192  -0.27442  -0.27307  -0.27057  -0.26721
 Alpha  occ. eigenvalues --   -0.26676  -0.26378  -0.26003  -0.25873  -0.25311
 Alpha  occ. eigenvalues --   -0.24721  -0.24407  -0.24013  -0.23877  -0.23736
 Alpha  occ. eigenvalues --   -0.23624  -0.23073  -0.22852  -0.22797  -0.22738
 Alpha  occ. eigenvalues --   -0.22435  -0.22216  -0.21867  -0.21785  -0.21481
 Alpha  occ. eigenvalues --   -0.20782  -0.20308  -0.19902  -0.19617  -0.19386
 Alpha  occ. eigenvalues --   -0.19226  -0.18920  -0.18573
 Alpha virt. eigenvalues --   -0.09659  -0.04705  -0.04070  -0.03503  -0.03496
 Alpha virt. eigenvalues --   -0.01588  -0.01008  -0.00280   0.00035   0.00409
 Alpha virt. eigenvalues --    0.00712   0.01208   0.01253   0.01341   0.01725

 Mulliken charges:
               1
     1  C    0.083344
     2  C    0.018254
     3  O   -0.309781
     4  H    0.067019
     5  H   -0.022928
     6  H   -0.001213
     7  N   -0.116645
     8  C    0.122311
     9  C    0.038853
    10  O   -0.286013
    11  C    0.062413
    12  C    0.142631
    13  O   -0.363267
    14  O   -0.474940
    15  H    0.121388
    16  H    0.013429
    17  H    0.012272
    18  H    0.007085
    19  N   -0.133913
    20  C    0.122380
    21  C    0.045761
    22  O   -0.290773
    23  C    0.010089
    24  C    0.100296
    25  C   -0.146510
    26  C    0.096423
    27  N    0.071235
    28  H    0.160736
    29  H   -0.015811
    30  H    0.000163
    31  H    0.033831
    32  H   -0.006981
    33  H    0.052194
    34  H    0.048736
    35  H   -0.007018
    36  H    0.064933
    37  H    0.103902
    38  H    0.174682
    39  H    0.196430
    40  H    0.184014
    41  N   -0.127182
    42  C    0.071408
    43  C    0.044968
    44  O   -0.278304
    45  C    0.206200
    46  C    0.049728
    47  O   -0.400388
    48  O   -0.429507
    49  H    0.166509
    50  H    0.018625
    51  H   -0.017332
    52  H    0.000923
    53  N   -0.164739
    54  C    0.241826
    55  C    0.029806
    56  O   -0.315026
    57  H    0.120519
    58  H    0.038611
    59  H    0.024288
    60  N   -0.131984
    61  C    0.121164
    62  C    0.055924
    63  O   -0.307165
    64  C    0.018568
    65  C    0.102462
    66  N   -0.035777
    67  O   -0.313705
    68  H    0.150225
    69  H    0.013450
    70  H    0.047569
    71  H    0.036600
    72  H    0.139806
    73  H    0.077903
    74  N   -0.158876
    75  C    0.236831
    76  C    0.021936
    77  O   -0.310705
    78  H    0.154184
    79  H    0.027681
    80  H    0.038759
    81  N   -0.133463
    82  C    0.121060
    83  C    0.106573
    84  O   -0.312806
    85  C    0.151088
    86  C    0.021818
    87  C    0.009658
    88  C    0.051560
    89  C   -0.014397
    90  C   -0.045796
    91  C    0.172680
    92  O   -0.195031
    93  H    0.165058
    94  H   -0.016220
    95  H   -0.021341
    96  H   -0.072349
    97  H   -0.084261
    98  H   -0.027817
    99  H   -0.037258
   100  H   -0.049041
   101  H    0.170826
   102  N   -0.131613
   103  C    0.125927
   104  C    0.053101
   105  O   -0.275426
   106  C   -0.059189
   107  C   -0.000164
   108  C    0.029233
   109  C    0.048859
   110  H    0.127536
   111  H    0.002489
   112  H   -0.017259
   113  H    0.007410
   114  H   -0.007341
   115  H    0.017496
   116  H    0.023739
   117  H   -0.004410
   118  H    0.003412
   119  H    0.008252
   120  H    0.003899
   121  N   -0.149074
   122  C    0.109228
   123  C    0.099918
   124  O   -0.268543
   125  C    0.195677
   126  O   -0.297532
   127  H    0.155366
   128  H    0.029209
   129  H    0.008902
   130  H   -0.010855
   131  H    0.198052
   132  N   -0.100591
   133  C    0.108687
   134  C    0.066012
   135  O   -0.239177
   136  C    0.012974
   137  H    0.115496
   138  H    0.030916
   139  H   -0.014026
   140  H    0.049354
   141  H    0.025368
   142  N   -0.146101
   143  C    0.101173
   144  C    0.058112
   145  O   -0.265084
   146  C    0.045863
   147  H    0.104835
   148  H    0.018550
   149  H   -0.015289
   150  H    0.040572
   151  H    0.016305
   152  N   -0.168850
   153  C    0.156527
   154  C    0.070891
   155  O   -0.300962
   156  C   -0.070406
   157  C    0.179804
   158  C    0.085696
   159  O   -0.453143
   160  O   -0.369734
   161  H    0.142983
   162  H   -0.011922
   163  H    0.045434
   164  H   -0.028784
   165  H   -0.057933
   166  H   -0.010049
   167  N   -0.165437
   168  C    0.135641
   169  H    0.030011
   170  H    0.025900
   171  H    0.006400
   172  H    0.140982
   173  Ca   1.272334
   174  O   -0.269347
   175  H    0.193115
   176  H    0.175270
 Sum of Mulliken charges =  -0.00000

 Dipole moment (field-independent basis, Debye):
    X=             30.8690    Y=              1.1944    Z=             -1.6204  Tot=             30.9346
 Quadrupole moment (field-independent basis, Debye-Ang):
   XX=           -676.5684   YY=           -422.2569   ZZ=           -497.7024
   XY=            109.0654   XZ=             15.7151   YZ=            118.7939

 ESP charges:
               1
     1  C   -0.459922
     2  C    0.854573
     3  O   -0.678419
     4  H    0.146634
     5  H    0.109464
     6  H    0.091058
     7  N   -0.877497
     8  C    0.701201
     9  C    0.266782
    10  O   -0.541088
    11  C   -0.494213
    12  C    0.985131
    13  O   -0.713631
    14  O   -0.835392
    15  H    0.384073
    16  H   -0.081776
    17  H    0.098965
    18  H    0.071598
    19  N    0.038341
    20  C   -0.150872
    21  C    0.552538
    22  O   -0.564266
    23  C   -0.135683
    24  C   -0.131829
    25  C    0.120339
    26  C    0.009671
    27  N   -0.318791
    28  H    0.242992
    29  H    0.078759
    30  H    0.068595
    31  H    0.086975
    32  H    0.054746
    33  H    0.066621
    34  H   -0.024509
    35  H   -0.004318
    36  H    0.081354
    37  H    0.097849
    38  H    0.299621
    39  H    0.310632
    40  H    0.320195
    41  N   -0.212237
    42  C    0.094299
    43  C    0.393280
    44  O   -0.535667
    45  C   -0.179849
    46  C    0.726167
    47  O   -0.748168
    48  O   -0.729994
    49  H   -0.006196
    50  H    0.072070
    51  H    0.046383
    52  H    0.078345
    53  N   -0.093075
    54  C   -0.285741
    55  C    0.693411
    56  O   -0.614954
    57  H    0.155374
    58  H    0.145933
    59  H    0.108629
    60  N   -0.450468
    61  C    0.103989
    62  C    0.198958
    63  O   -0.452372
    64  C   -0.339524
    65  C    0.716593
    66  N   -0.868754
    67  O   -0.381152
    68  H    0.227785
    69  H    0.109289
    70  H    0.128301
    71  H    0.102654
    72  H    0.392719
    73  H    0.371442
    74  N    0.088536
    75  C   -0.523715
    76  C    0.836217
    77  O   -0.607555
    78  H    0.197019
    79  H    0.174804
    80  H    0.179262
    81  N   -0.881541
    82  C    0.639845
    83  C    0.645125
    84  O   -0.611585
    85  C   -0.074767
    86  C   -0.063056
    87  C   -0.094377
    88  C    0.117705
    89  C   -0.377052
    90  C   -0.467268
    91  C    0.489645
    92  O   -0.561375
    93  H    0.353389
    94  H   -0.076061
    95  H   -0.052137
    96  H    0.003918
    97  H    0.107909
    98  H    0.078774
    99  H    0.187022
   100  H    0.160136
   101  H    0.411449
   102  N   -0.810998
   103  C    0.092061
   104  C    0.613622
   105  O   -0.559112
   106  C    0.191284
   107  C    0.194665
   108  C   -0.392135
   109  C   -0.359417
   110  H    0.366466
   111  H    0.090257
   112  H   -0.013360
   113  H   -0.010294
   114  H    0.021776
   115  H    0.131508
   116  H    0.085339
   117  H   -0.026085
   118  H    0.077810
   119  H    0.074189
   120  H    0.082767
   121  N   -0.511506
   122  C    0.142495
   123  C    0.453652
   124  O   -0.375561
   125  C   -0.021983
   126  O   -0.381903
   127  H    0.433899
   128  H    0.048791
   129  H    0.054488
   130  H    0.030422
   131  H    0.376663
   132  N   -0.435186
   133  C    0.082583
   134  C    0.577389
   135  O   -0.515913
   136  C   -0.348672
   137  H    0.312440
   138  H    0.093128
   139  H    0.070092
   140  H    0.121791
   141  H    0.121025
   142  N   -0.506583
   143  C    0.254165
   144  C    0.391679
   145  O   -0.527290
   146  C   -0.382585
   147  H    0.287705
   148  H    0.059332
   149  H    0.067434
   150  H    0.128811
   151  H    0.111120
   152  N    0.120513
   153  C   -0.171858
   154  C    0.501800
   155  O   -0.588637
   156  C    0.199084
   157  C   -0.390093
   158  C    0.827081
   159  O   -0.800413
   160  O   -0.698835
   161  H   -0.357827
   162  H    0.092119
   163  H    0.064157
   164  H   -0.056462
   165  H    0.075748
   166  H    0.094818
   167  N   -0.080207
   168  C   -0.139554
   169  H    0.070526
   170  H    0.091799
   171  H    0.033538
   172  H    0.170227
   173  Ca   1.539654
   174  O   -0.887073
   175  H    0.432635
   176  H    0.420756
 Sum of ESP charges =  -0.00000

 Normal termination of Gaussian 16 at Sat Sep 14 23:28:48 2019.
