 Gaussian 09, Revision D.01,
 Gaussian 09:  ES64L-G09RevD.01 24-Apr-2013

 ----------------------------------------------------------------------
 #maxdisk=50GB #B3LYP/SVP Density=Current scf=(tight) #IOP(5/87=12)Pop=
 (MK,readradii) iop(6/33=2) iop(6/42=6)
 ----------------------------------------------------------------------

 ------------
 SOL molecule
 ------------
 Symbolic Z-matrix:
 Charge =  0 Multiplicity = 1

                         Standard orientation:
 ---------------------------------------------------------------------
 Center     Atomic      Atomic             Coordinates (Angstroms)
 Number     Number       Type             X           Y           Z
 ---------------------------------------------------------------------
      1          6           0        2.116241    3.131676    5.352316
      2          6           0        1.732478    2.807628    3.916413
      3          8           0        2.504947    2.561943    2.990006
      4          1           0        3.113006    2.741177    5.558673
      5          1           0        2.113677    4.212327    5.495245
      6          1           0        1.398895    2.672820    6.032607
      7          7           0        0.412628    2.764800    3.691111
      8          6           0       -0.350771    2.586109    2.468862
      9          6           0       -0.540728    3.915925    1.762529
     10          8           0       -0.866234    4.910364    2.402246
     11          6           0       -1.675437    1.888658    2.773036
     12          6           0       -2.582681    1.665600    1.569228
     13          8           0       -2.106090    1.656638    0.411913
     14          8           0       -3.803463    1.738296    1.814394
     15          1           0       -0.116108    2.944472    4.532453
     16          1           0        0.296623    2.013858    1.798406
     17          1           0       -2.198093    2.477813    3.524453
     18          1           0       -1.383356    0.935139    3.223690
     19          7           0       -0.320788    4.038715    0.449423
     20          6           0       -0.135824    5.327953   -0.173918
     21          6           0       -1.163483    5.551493   -1.280511
     22          8           0       -1.564727    6.706408   -1.441988
     23          6           0        1.324059    5.507259   -0.583174
     24          6           0        2.276639    5.686983    0.604298
     25          6           0        3.767598    5.739503    0.262566
     26          6           0        4.606127    5.713248    1.545251
     27          7           0        6.047949    5.720694    1.254054
     28          1           0       -0.050082    3.197145   -0.043910
     29          1           0       -0.399282    6.119479    0.521263
     30          1           0        1.443457    6.477908   -1.063678
     31          1           0        1.642388    4.678383   -1.216760
     32          1           0        2.155754    4.783401    1.196604
     33          1           0        1.859779    6.510959    1.173325
     34          1           0        3.896993    6.710666   -0.203802
     35          1           0        4.090359    4.876176   -0.316306
     36          1           0        4.342360    4.770432    2.034867
     37          1           0        4.337105    6.469810    2.281010
     38          1           0        6.593167    5.553521    2.084289
     39          1           0        6.371385    5.113922    0.516818
     40          1           0        6.306745    6.671865    1.022325
     41          7           0       -1.548637    4.517170   -2.017553
     42          6           0       -2.684656    4.436236   -2.923263
     43          6           0       -3.977066    4.145354   -2.175623
     44          8           0       -5.025847    4.117357   -2.826603
     45          6           0       -2.380812    3.442403   -4.028737
     46          6           0       -1.773350    2.159211   -3.456628
     47          8           0       -0.628609    2.121881   -2.984321
     48          8           0       -2.548287    1.207175   -3.234818
     49          1           0       -0.992140    3.671844   -1.977117
     50          1           0       -2.897696    5.404229   -3.394965
     51          1           0       -1.652794    3.842583   -4.734957
     52          1           0       -3.228238    3.159297   -4.650123
     53          7           0       -3.994005    4.029717   -0.850692
     54          6           0       -5.202366    4.026648   -0.045612
     55          6           0       -6.110749    2.826396   -0.258061
     56          8           0       -7.325464    2.944657   -0.110809
     57          1           0       -3.125933    3.842570   -0.375374
     58          1           0       -5.716321    4.943105   -0.309723
     59          1           0       -4.860034    3.983909    0.987240
     60          7           0       -5.633295    1.700398   -0.788217
     61          6           0       -6.429399    0.577322   -1.224356
     62          6           0       -6.725591   -0.303949   -0.020765
     63          8           0       -7.561769   -1.195599   -0.196451
     64          6           0       -5.709257   -0.107525   -2.373696
     65          6           0       -4.457343   -0.918750   -2.097607
     66          7           0       -4.038918   -1.778228   -3.027240
     67          8           0       -3.748631   -0.721801   -1.106174
     68          1           0       -4.624454    1.657883   -0.905828
     69          1           0       -7.406704    0.850347   -1.618477
     70          1           0       -5.495925    0.572569   -3.200111
     71          1           0       -6.434938   -0.785756   -2.833358
     72          1           0       -4.439798   -1.920005   -3.941239
     73          1           0       -3.254230   -2.360551   -2.775714
     74          7           0       -6.019081   -0.130887    1.107506
     75          6           0       -6.083374   -0.875135    2.340210
     76          6           0       -4.955697   -1.874335    2.604871
     77          8           0       -4.750944   -2.381110    3.709432
     78          1           0       -5.387589    0.656948    1.155810
     79          1           0       -6.949907   -1.548469    2.333689
     80          1           0       -6.205970   -0.269026    3.232568
     81          7           0       -4.123633   -2.079902    1.578269
     82          6           0       -3.088320   -3.089671    1.498318
     83          6           0       -1.671575   -2.577521    1.298476
     84          8           0       -1.493148   -1.510626    0.701988
     85          6           0       -3.505398   -3.955279    0.310814
     86          6           0       -4.911544   -4.507549    0.285317
     87          6           0       -5.824720   -3.916748   -0.590163
     88          6           0       -5.280287   -5.644891    1.011871
     89          6           0       -7.126502   -4.416105   -0.747979
     90          6           0       -6.584462   -6.149617    0.898389
     91          6           0       -7.493312   -5.542608   -0.001962
     92          8           0       -8.733694   -6.039220   -0.259891
     93          1           0       -4.076532   -1.450571    0.786357
     94          1           0       -3.063388   -3.656354    2.428022
     95          1           0       -2.797495   -4.777165    0.384818
     96          1           0       -3.330543   -3.427108   -0.617282
     97          1           0       -5.414779   -3.039137   -1.088809
     98          1           0       -4.550435   -6.089841    1.665046
     99          1           0       -7.776852   -3.962151   -1.485997
    100          1           0       -6.860072   -7.071645    1.367327
    101          1           0       -8.787516   -6.956328    0.009584
    102          7           0       -0.677065   -3.363442    1.699074
    103          6           0        0.697740   -2.963058    1.483430
    104          6           0        1.311243   -3.840221    0.395268
    105          8           0        1.022046   -5.037016    0.324930
    106          6           0        1.383857   -3.033955    2.847218
    107          6           0        1.054793   -1.766452    3.628086
    108          6           0        2.889199   -3.213113    2.694744
    109          6           0        1.490031   -1.953621    5.081543
    110          1           0       -0.853919   -4.283593    2.069811
    111          1           0        0.829428   -1.935291    1.154869
    112          1           0        0.983913   -3.911052    3.360000
    113          1           0        0.024513   -1.460732    3.447096
    114          1           0        1.676596   -0.950589    3.250691
    115          1           0        3.222240   -3.529329    3.680437
    116          1           0        3.193312   -4.109371    2.151478
    117          1           0        3.440280   -2.325624    2.371830
    118          1           0        2.560747   -1.816038    5.196603
    119          1           0        0.967943   -1.238923    5.721879
    120          1           0        1.154734   -2.948484    5.376032
    121          7           0        2.245711   -3.207998   -0.316817
    122          6           0        3.029716   -3.769213   -1.402622
    123          6           0        4.512336   -3.635464   -1.125943
    124          8           0        4.911698   -3.078773   -0.098614
    125          6           0        2.638510   -3.130111   -2.726784
    126          8           0        2.981929   -1.765009   -2.750428
    127          1           0        2.426173   -2.278066    0.031120
    128          1           0        2.808476   -4.823721   -1.533261
    129          1           0        1.576297   -3.200689   -2.977631
    130          1           0        3.091344   -3.575780   -3.617974
    131          1           0        2.344000   -1.302292   -2.210021
    132          7           0        5.425891   -4.251260   -1.891065
    133          6           0        6.847316   -4.222150   -1.616829
    134          6           0        7.508202   -2.847127   -1.667248
    135          8           0        8.303389   -2.523171   -0.791103
    136          6           0        7.517580   -5.141895   -2.630393
    137          1           0        5.104337   -4.811657   -2.662011
    138          1           0        6.992852   -4.624983   -0.615657
    139          1           0        7.294271   -6.171502   -2.343090
    140          1           0        7.334558   -4.786406   -3.652856
    141          1           0        8.603729   -5.017046   -2.561155
    142          7           0        7.102122   -1.985796   -2.599883
    143          6           0        7.517950   -0.595657   -2.562450
    144          6           0        7.269582    0.139097   -1.246262
    145          8           0        8.158470    0.803909   -0.738814
    146          6           0        6.946446    0.072384   -3.802614
    147          1           0        6.330713   -2.318611   -3.160027
    148          1           0        8.596828   -0.519633   -2.634857
    149          1           0        7.807541    0.492767   -4.327775
    150          1           0        6.479764   -0.567206   -4.545872
    151          1           0        6.322886    0.931235   -3.520220
    152          7           0        6.062134   -0.057158   -0.703628
    153          6           0        5.540559    0.487621    0.529690
    154          6           0        6.282661   -0.097376    1.716940
    155          8           0        6.590596    0.620629    2.668646
    156          6           0        4.035857    0.278875    0.702886
    157          6           0        3.261391    1.221455   -0.212725
    158          6           0        1.827481    0.790403   -0.477671
    159          8           0        0.884239    1.614295   -0.555113
    160          8           0        1.477614   -0.401559   -0.667992
    161          1           0        5.398802   -0.644137   -1.189475
    162          1           0        5.688090    1.565066    0.541835
    163          1           0        3.738666    0.550380    1.716722
    164          1           0        3.793930   -0.768744    0.508807
    165          1           0        3.802452    1.114396   -1.157390
    166          1           0        3.193792    2.201192    0.245147
    167          7           0        6.628834   -1.378670    1.589460
    168          6           0        7.261771   -2.210142    2.601115
    169          1           0        8.172186   -2.648171    2.192543
    170          1           0        7.510117   -1.600620    3.470150
    171          1           0        6.578176   -3.004817    2.898343
    172          1           0        6.339640   -1.849356    0.749924
    173         20           0       -0.973125    0.061854   -1.371218
    174          8           0        0.256050   -0.873444   -3.479807
    175          1           0       -0.389703   -1.381965   -3.959713
    176          1           0        1.040817   -1.424202   -3.477086
 ---------------------------------------------------------------------

 SCF Done:  E(RB3LYP) =  -5333.61120948     A.U. after   18 cycles

 The electronic state is 1-A.
 Alpha  occ. eigenvalues -- -145.36766 -19.19421 -19.17549 -19.14941 -19.14450
 Alpha  occ. eigenvalues --  -19.12290 -19.12085 -19.11669 -19.11507 -19.11131
 Alpha  occ. eigenvalues --  -19.10477 -19.09908 -19.08720 -19.07837 -19.06043
 Alpha  occ. eigenvalues --  -19.05671 -19.05631 -19.05359 -19.05166 -19.05020
 Alpha  occ. eigenvalues --  -19.04310 -19.04155 -19.03114 -19.02609 -15.42532
 Alpha  occ. eigenvalues --  -14.57392 -14.40880 -14.38802 -14.37612 -14.37541
 Alpha  occ. eigenvalues --  -14.37284 -14.36958 -14.34517 -14.33462 -14.31297
 Alpha  occ. eigenvalues --  -14.31296 -14.31235 -14.30526 -14.30518 -14.29360
 Alpha  occ. eigenvalues --  -12.56148 -12.56099 -12.56093 -10.33602 -10.32987
 Alpha  occ. eigenvalues --  -10.30817 -10.30433 -10.30138 -10.29797 -10.29740
 Alpha  occ. eigenvalues --  -10.28892 -10.28877 -10.28718 -10.28082 -10.27165
 Alpha  occ. eigenvalues --  -10.26663 -10.26212 -10.25393 -10.24722 -10.24658
 Alpha  occ. eigenvalues --  -10.24625 -10.24176 -10.23876 -10.23623 -10.23365
 Alpha  occ. eigenvalues --  -10.23309 -10.23299 -10.23224 -10.23136 -10.22289
 Alpha  occ. eigenvalues --  -10.22269 -10.21739 -10.21196 -10.20848 -10.20758
 Alpha  occ. eigenvalues --  -10.20412 -10.20344 -10.20317 -10.20128 -10.20088
 Alpha  occ. eigenvalues --  -10.20011 -10.20002 -10.19261 -10.18862 -10.18809
 Alpha  occ. eigenvalues --  -10.18670 -10.18315 -10.18002 -10.17817 -10.17770
 Alpha  occ. eigenvalues --  -10.17638 -10.17629 -10.17275 -10.17083 -10.16665
 Alpha  occ. eigenvalues --  -10.15753 -10.15663  -1.79488  -1.12586  -1.08380
 Alpha  occ. eigenvalues --   -1.07488  -1.07408  -1.06993  -1.06549  -1.05724
 Alpha  occ. eigenvalues --   -1.05242  -1.04912  -1.04599  -1.04294  -1.03929
 Alpha  occ. eigenvalues --   -1.03715  -1.03356  -1.02469  -1.01085  -1.00527
 Alpha  occ. eigenvalues --   -0.99893  -0.98581  -0.98515  -0.97907  -0.97728
 Alpha  occ. eigenvalues --   -0.97375  -0.97329  -0.96237  -0.95439  -0.94788
 Alpha  occ. eigenvalues --   -0.94275  -0.93900  -0.93282  -0.91791  -0.91101
 Alpha  occ. eigenvalues --   -0.90223  -0.89810  -0.89320  -0.89257  -0.88342
 Alpha  occ. eigenvalues --   -0.88156  -0.87678  -0.87092  -0.86700  -0.85835
 Alpha  occ. eigenvalues --   -0.83724  -0.83107  -0.82582  -0.81385  -0.80108
 Alpha  occ. eigenvalues --   -0.79709  -0.79014  -0.77550  -0.77266  -0.76057
 Alpha  occ. eigenvalues --   -0.75105  -0.74713  -0.73938  -0.73909  -0.72527
 Alpha  occ. eigenvalues --   -0.72380  -0.72300  -0.71519  -0.71085  -0.70535
 Alpha  occ. eigenvalues --   -0.70486  -0.69730  -0.69380  -0.68918  -0.68377
 Alpha  occ. eigenvalues --   -0.67333  -0.66943  -0.65603  -0.65453  -0.64395
 Alpha  occ. eigenvalues --   -0.63794  -0.63110  -0.63071  -0.62609  -0.62132
 Alpha  occ. eigenvalues --   -0.61820  -0.61596  -0.61176  -0.60878  -0.60826
 Alpha  occ. eigenvalues --   -0.60402  -0.59906  -0.59375  -0.58726  -0.58017
 Alpha  occ. eigenvalues --   -0.57568  -0.57377  -0.57019  -0.56902  -0.56551
 Alpha  occ. eigenvalues --   -0.56206  -0.55964  -0.55696  -0.55592  -0.55075
 Alpha  occ. eigenvalues --   -0.54987  -0.54843  -0.54160  -0.53853  -0.53451
 Alpha  occ. eigenvalues --   -0.53427  -0.52983  -0.52807  -0.52645  -0.52487
 Alpha  occ. eigenvalues --   -0.51437  -0.51254  -0.50900  -0.50312  -0.50082
 Alpha  occ. eigenvalues --   -0.50056  -0.49370  -0.49243  -0.49151  -0.48856
 Alpha  occ. eigenvalues --   -0.48788  -0.48458  -0.48134  -0.47910  -0.47641
 Alpha  occ. eigenvalues --   -0.47483  -0.47362  -0.47275  -0.47108  -0.46992
 Alpha  occ. eigenvalues --   -0.46581  -0.46344  -0.46255  -0.46015  -0.45815
 Alpha  occ. eigenvalues --   -0.45752  -0.45652  -0.45514  -0.45365  -0.45171
 Alpha  occ. eigenvalues --   -0.45050  -0.44988  -0.44666  -0.44412  -0.44312
 Alpha  occ. eigenvalues --   -0.44128  -0.43803  -0.43434  -0.43377  -0.43150
 Alpha  occ. eigenvalues --   -0.43111  -0.42909  -0.42774  -0.42699  -0.42661
 Alpha  occ. eigenvalues --   -0.42424  -0.42189  -0.41968  -0.41884  -0.41808
 Alpha  occ. eigenvalues --   -0.41499  -0.41443  -0.41191  -0.41111  -0.41032
 Alpha  occ. eigenvalues --   -0.40903  -0.40783  -0.40704  -0.40572  -0.40482
 Alpha  occ. eigenvalues --   -0.40355  -0.40253  -0.40051  -0.39870  -0.39858
 Alpha  occ. eigenvalues --   -0.39733  -0.39623  -0.39470  -0.39273  -0.39242
 Alpha  occ. eigenvalues --   -0.38841  -0.38785  -0.38655  -0.38393  -0.38007
 Alpha  occ. eigenvalues --   -0.37955  -0.37841  -0.37805  -0.37626  -0.37522
 Alpha  occ. eigenvalues --   -0.37401  -0.37294  -0.37284  -0.37180  -0.36980
 Alpha  occ. eigenvalues --   -0.36928  -0.36728  -0.36182  -0.36117  -0.36046
 Alpha  occ. eigenvalues --   -0.35788  -0.35387  -0.35352  -0.35027  -0.34946
 Alpha  occ. eigenvalues --   -0.34822  -0.34662  -0.34570  -0.34308  -0.34017
 Alpha  occ. eigenvalues --   -0.33865  -0.33832  -0.33606  -0.33337  -0.33193
 Alpha  occ. eigenvalues --   -0.32950  -0.32837  -0.32492  -0.32457  -0.32204
 Alpha  occ. eigenvalues --   -0.32175  -0.31751  -0.31697  -0.31061  -0.30732
 Alpha  occ. eigenvalues --   -0.30681  -0.30203  -0.29462  -0.29358  -0.29037
 Alpha  occ. eigenvalues --   -0.28499  -0.28323  -0.27911  -0.27563  -0.27275
 Alpha  occ. eigenvalues --   -0.27052  -0.26469  -0.26392  -0.26145  -0.25822
 Alpha  occ. eigenvalues --   -0.24956  -0.24250  -0.24196  -0.24066  -0.23951
 Alpha  occ. eigenvalues --   -0.23533  -0.23497  -0.23389  -0.23076  -0.22817
 Alpha  occ. eigenvalues --   -0.22232  -0.22051  -0.21964  -0.21504  -0.20905
 Alpha  occ. eigenvalues --   -0.20730  -0.20707  -0.20352  -0.20207  -0.19522
 Alpha  occ. eigenvalues --   -0.19130  -0.18626  -0.18411
 Alpha virt. eigenvalues --   -0.09318  -0.04375  -0.03637  -0.03281  -0.02936
 Alpha virt. eigenvalues --   -0.01797  -0.00927  -0.00363  -0.00157  -0.00038
 Alpha virt. eigenvalues --    0.00262   0.00482   0.00529   0.01434   0.01884

 Mulliken charges:
               1
     1  C    0.036474
     2  C    0.028316
     3  O   -0.313810
     4  H    0.031721
     5  H    0.040233
     6  H    0.029600
     7  N   -0.118084
     8  C    0.151291
     9  C    0.030240
    10  O   -0.303179
    11  C    0.060589
    12  C    0.171608
    13  O   -0.461948
    14  O   -0.377545
    15  H    0.107265
    16  H   -0.009837
    17  H    0.008750
    18  H    0.010175
    19  N   -0.149954
    20  C    0.113231
    21  C    0.055684
    22  O   -0.286231
    23  C    0.076880
    24  C   -0.053676
    25  C    0.027028
    26  C   -0.013893
    27  N    0.097253
    28  H    0.157404
    29  H    0.012804
    30  H   -0.009066
    31  H    0.008659
    32  H    0.033277
    33  H    0.015788
    34  H    0.014683
    35  H    0.026254
    36  H    0.089301
    37  H    0.069464
    38  H    0.190966
    39  H    0.197958
    40  H    0.181698
    41  N   -0.156278
    42  C    0.124407
    43  C    0.044740
    44  O   -0.297963
    45  C    0.152622
    46  C    0.064355
    47  O   -0.411668
    48  O   -0.421885
    49  H    0.137092
    50  H    0.031258
    51  H   -0.012876
    52  H    0.008393
    53  N   -0.162645
    54  C    0.263017
    55  C    0.028850
    56  O   -0.299020
    57  H    0.144495
    58  H    0.022860
    59  H    0.029890
    60  N   -0.165803
    61  C    0.193164
    62  C    0.051331
    63  O   -0.296945
    64  C    0.051321
    65  C    0.093393
    66  N   -0.048053
    67  O   -0.325734
    68  H    0.142960
    69  H    0.023428
    70  H    0.067140
    71  H    0.006302
    72  H    0.127940
    73  H    0.107455
    74  N   -0.166177
    75  C    0.235252
    76  C    0.022362
    77  O   -0.296790
    78  H    0.155832
    79  H    0.033070
    80  H    0.029987
    81  N   -0.165868
    82  C    0.122358
    83  C    0.131878
    84  O   -0.356918
    85  C    0.145007
    86  C    0.018212
    87  C    0.011402
    88  C   -0.013248
    89  C    0.036998
    90  C   -0.016784
    91  C    0.151989
    92  O   -0.199462
    93  H    0.167314
    94  H   -0.007924
    95  H   -0.027996
    96  H   -0.059223
    97  H   -0.072692
    98  H   -0.044896
    99  H   -0.023288
   100  H   -0.053049
   101  H    0.167773
   102  N   -0.099537
   103  C    0.111095
   104  C    0.047833
   105  O   -0.284474
   106  C   -0.116643
   107  C    0.005627
   108  C    0.062961
   109  C    0.041942
   110  H    0.136210
   111  H    0.024680
   112  H   -0.021498
   113  H    0.026017
   114  H    0.007182
   115  H   -0.005849
   116  H    0.011574
   117  H    0.024092
   118  H    0.022141
   119  H    0.006625
   120  H    0.002643
   121  N   -0.142566
   122  C    0.131081
   123  C    0.101853
   124  O   -0.277612
   125  C    0.214396
   126  O   -0.347086
   127  H    0.166363
   128  H    0.027087
   129  H   -0.031456
   130  H   -0.002307
   131  H    0.174439
   132  N   -0.126107
   133  C    0.099360
   134  C    0.036729
   135  O   -0.253043
   136  C    0.024701
   137  H    0.114543
   138  H    0.021988
   139  H    0.044599
   140  H    0.013639
   141  H    0.036167
   142  N   -0.127445
   143  C    0.092301
   144  C    0.056001
   145  O   -0.246154
   146  C    0.054770
   147  H    0.111830
   148  H    0.020724
   149  H    0.020948
   150  H    0.012545
   151  H    0.025713
   152  N   -0.148684
   153  C    0.119096
   154  C    0.059988
   155  O   -0.292895
   156  C   -0.051185
   157  C    0.117143
   158  C    0.171852
   159  O   -0.390857
   160  O   -0.480026
   161  H    0.113959
   162  H   -0.056247
   163  H    0.049125
   164  H    0.014535
   165  H   -0.003347
   166  H    0.018262
   167  N   -0.160040
   168  C    0.127578
   169  H    0.028779
   170  H    0.030442
   171  H    0.013674
   172  H    0.141807
   173  Ca   1.242629
   174  O   -0.255837
   175  H    0.173077
   176  H    0.146517
 Sum of Mulliken charges =   0.00000

 Dipole moment (field-independent basis, Debye):
    X=             34.2419    Y=             -3.7857    Z=             -5.8805  Tot=             34.9489
 Quadrupole moment (field-independent basis, Debye-Ang):
   XX=           -623.2859   YY=           -460.9734   ZZ=           -524.3852
   XY=            147.8696   XZ=             -2.9049   YZ=             78.9285

 ESP charges:
               1
     1  C   -0.498454
     2  C    0.850394
     3  O   -0.658670
     4  H    0.130609
     5  H    0.129808
     6  H    0.137183
     7  N   -0.790702
     8  C    0.335713
     9  C    0.736705
    10  O   -0.631172
    11  C   -0.302340
    12  C    0.604511
    13  O   -0.685285
    14  O   -0.601877
    15  H    0.344325
    16  H   -0.019128
    17  H    0.091935
    18  H    0.079034
    19  N   -0.526138
    20  C    0.173316
    21  C    0.362109
    22  O   -0.544687
    23  C   -0.236266
    24  C    0.291866
    25  C   -0.383180
    26  C    0.287778
    27  N   -0.476308
    28  H    0.270629
    29  H    0.081228
    30  H    0.066797
    31  H    0.062070
    32  H   -0.121232
    33  H    0.007485
    34  H    0.081276
    35  H    0.117438
    36  H    0.029466
    37  H    0.034081
    38  H    0.349138
    39  H    0.366032
    40  H    0.334962
    41  N   -0.236547
    42  C   -0.039080
    43  C    0.477114
    44  O   -0.538041
    45  C   -0.276562
    46  C    0.730397
    47  O   -0.711718
    48  O   -0.696394
    49  H    0.228638
    50  H    0.129771
    51  H    0.075772
    52  H    0.096309
    53  N   -0.177211
    54  C   -0.450942
    55  C    0.655085
    56  O   -0.586512
    57  H    0.259834
    58  H    0.185219
    59  H    0.178422
    60  N   -0.162816
    61  C   -0.219158
    62  C    0.415212
    63  O   -0.497972
    64  C   -0.028387
    65  C    0.576087
    66  N   -0.837147
    67  O   -0.428217
    68  H    0.134914
    69  H    0.165135
    70  H    0.094115
    71  H    0.043090
    72  H    0.389297
    73  H    0.372902
    74  N   -0.130160
    75  C   -0.216318
    76  C    0.590766
    77  O   -0.602406
    78  H    0.178378
    79  H    0.115393
    80  H    0.109557
    81  N   -0.121355
    82  C    0.104782
    83  C    0.468213
    84  O   -0.470872
    85  C    0.055945
    86  C    0.104279
    87  C   -0.315958
    88  C   -0.264546
    89  C   -0.157254
    90  C   -0.202216
    91  C    0.326911
    92  O   -0.517076
    93  H    0.001047
    94  H    0.020862
    95  H   -0.030648
    96  H   -0.055269
    97  H    0.199848
    98  H    0.159043
    99  H    0.149285
   100  H    0.120959
   101  H    0.379019
   102  N   -0.530142
   103  C   -0.012727
   104  C    0.640080
   105  O   -0.566188
   106  C   -0.008700
   107  C    0.156991
   108  C   -0.043414
   109  C   -0.381875
   110  H    0.351303
   111  H   -0.010222
   112  H    0.039383
   113  H    0.024454
   114  H    0.052226
   115  H    0.024662
   116  H    0.038694
   117  H   -0.058034
   118  H    0.101911
   119  H    0.086883
   120  H    0.084738
   121  N   -0.443350
   122  C   -0.130070
   123  C    0.603061
   124  O   -0.474321
   125  C    0.259840
   126  O   -0.639833
   127  H    0.388563
   128  H    0.094290
   129  H   -0.033458
   130  H    0.033411
   131  H    0.458703
   132  N   -0.459665
   133  C    0.203882
   134  C    0.512235
   135  O   -0.531168
   136  C   -0.440219
   137  H    0.260067
   138  H    0.068786
   139  H    0.142343
   140  H    0.110436
   141  H    0.135574
   142  N   -0.509605
   143  C    0.378619
   144  C    0.344840
   145  O   -0.504259
   146  C   -0.418182
   147  H    0.272106
   148  H    0.022260
   149  H    0.105726
   150  H    0.122074
   151  H    0.091227
   152  N   -0.084885
   153  C   -0.338054
   154  C    0.475508
   155  O   -0.568822
   156  C    0.321711
   157  C   -0.804695
   158  C    1.122015
   159  O   -0.713899
   160  O   -0.899108
   161  H    0.148539
   162  H    0.144317
   163  H    0.039521
   164  H   -0.074738
   165  H    0.130292
   166  H    0.301403
   167  N   -0.011463
   168  C   -0.182878
   169  H    0.078812
   170  H    0.094199
   171  H    0.056304
   172  H    0.099998
   173  Ca   1.431923
   174  O   -0.742104
   175  H    0.403493
   176  H    0.357413
 Sum of ESP charges =   0.00000

 Normal termination of Gaussian 09 at Mon Sep 16 22:02:22 2019.
