 Gaussian 16, Revision A.03,
 Gaussian 16:  ES64L-G16RevA.03 25-Dec-2016

 ----------------------------------------------------------------------
 #b3lyp/svp scf=(tight,noincore) Test #IOP(5/87=12) Density=Current Pop
 =(MK,readradii) iop(6/33=2) iop(6/42=6)
 ----------------------------------------------------------------------

 ------------------
 holoCaM_loop3_66.0
 ------------------
 Symbolic Z-matrix:
 Charge =  0 Multiplicity = 1

                         Standard orientation:
 ---------------------------------------------------------------------
 Center     Atomic      Atomic             Coordinates (Angstroms)
 Number     Number       Type             X           Y           Z
 ---------------------------------------------------------------------
      1          6           0        2.508925    3.089487    5.949411
      2          6           0        2.015865    2.939661    4.512280
      3          8           0        2.796545    2.639852    3.614030
      4          1           0        2.616672    2.102877    6.400667
      5          1           0        3.473442    3.597053    5.952458
      6          1           0        1.788812    3.673995    6.521992
      7          7           0        0.718724    3.168793    4.310724
      8          6           0        0.081518    3.241318    3.006191
      9          6           0        0.497660    4.489977    2.234261
     10          8           0        0.652037    5.536589    2.856733
     11          6           0       -1.435318    3.159540    3.046440
     12          6           0       -2.035781    2.533083    1.800849
     13          8           0       -2.601128    1.419483    1.837934
     14          8           0       -1.753723    2.953694    0.656284
     15          1           0        0.170261    3.280708    5.153555
     16          1           0        0.444986    2.400789    2.409530
     17          1           0       -1.812129    4.169429    3.186220
     18          1           0       -1.640163    2.526043    3.915473
     19          7           0        0.712062    4.358323    0.921097
     20          6           0        1.038671    5.391244   -0.035877
     21          6           0       -0.003300    5.728425   -1.089966
     22          8           0        0.161437    6.607849   -1.932329
     23          6           0        2.414969    5.126158   -0.651047
     24          6           0        3.568354    4.880363    0.312845
     25          6           0        4.937974    4.487781   -0.239078
     26          6           0        5.526571    5.652301   -1.040667
     27          7           0        6.696602    5.379909   -1.883655
     28          1           0        0.675933    3.386780    0.631614
     29          1           0        1.108465    6.344635    0.494099
     30          1           0        2.756289    5.939070   -1.289462
     31          1           0        2.436383    4.291264   -1.334123
     32          1           0        3.282726    4.034545    0.933496
     33          1           0        3.599727    5.729030    1.000799
     34          1           0        4.842375    3.614635   -0.880386
     35          1           0        5.637549    4.285293    0.572891
     36          1           0        5.820909    6.369091   -0.263508
     37          1           0        4.787203    6.264933   -1.554981
     38          1           0        7.248239    4.591804   -1.548412
     39          1           0        6.403627    5.076687   -2.797779
     40          1           0        7.373369    6.120678   -2.012296
     41          7           0       -1.140898    5.032526   -1.205706
     42          6           0       -2.102943    5.109132   -2.286493
     43          6           0       -3.557474    5.045845   -1.865618
     44          8           0       -4.377415    5.405931   -2.722026
     45          6           0       -1.806980    4.038112   -3.326455
     46          6           0       -1.881965    2.631686   -2.746416
     47          8           0       -0.907895    1.866299   -2.885234
     48          8           0       -2.860547    2.250561   -2.068536
     49          1           0       -1.142284    4.222094   -0.603877
     50          1           0       -2.000634    6.030043   -2.877894
     51          1           0       -0.746283    4.211535   -3.547917
     52          1           0       -2.448214    4.085274   -4.208211
     53          7           0       -3.799598    4.562986   -0.649426
     54          6           0       -5.079757    4.433925    0.017759
     55          6           0       -5.905346    3.152471   -0.078572
     56          8           0       -6.951146    2.998345    0.542272
     57          1           0       -3.035052    4.216703   -0.093585
     58          1           0       -5.710924    5.231213   -0.364288
     59          1           0       -5.097859    4.717339    1.074143
     60          7           0       -5.365831    2.148928   -0.767067
     61          6           0       -6.191438    1.134628   -1.392103
     62          6           0       -6.580317    0.000749   -0.460228
     63          8           0       -7.204676   -0.965195   -0.898553
     64          6           0       -5.570139    0.702714   -2.714199
     65          6           0       -4.563412   -0.425020   -2.552288
     66          7           0       -4.395954   -1.196746   -3.620697
     67          8           0       -3.875445   -0.468281   -1.531245
     68          1           0       -4.424959    2.338155   -1.089485
     69          1           0       -7.078497    1.713978   -1.649162
     70          1           0       -5.160471    1.571478   -3.224907
     71          1           0       -6.396071    0.226713   -3.256564
     72          1           0       -4.826910   -0.851128   -4.463623
     73          1           0       -3.593501   -1.814339   -3.693150
     74          7           0       -6.187978    0.013616    0.813508
     75          6           0       -6.522242   -0.883326    1.899907
     76          6           0       -5.596454   -2.080937    2.089496
     77          8           0       -5.851369   -3.014193    2.850189
     78          1           0       -5.885846    0.943688    1.068030
     79          1           0       -7.551505   -1.257482    1.814909
     80          1           0       -6.549629   -0.249358    2.784461
     81          7           0       -4.477603   -2.076225    1.366482
     82          6           0       -3.526377   -3.170045    1.274682
     83          6           0       -2.120814   -2.605838    1.342971
     84          8           0       -1.840745   -1.577177    0.737730
     85          6           0       -3.691070   -3.929400   -0.047345
     86          6           0       -5.073645   -4.506051   -0.206281
     87          6           0       -5.806639   -4.182182   -1.347871
     88          6           0       -5.625614   -5.421006    0.703823
     89          6           0       -7.127060   -4.610274   -1.553359
     90          6           0       -6.913703   -5.897699    0.470181
     91          6           0       -7.667952   -5.570151   -0.677304
     92          8           0       -8.944695   -6.043515   -0.797103
     93          1           0       -4.317058   -1.290528    0.752149
     94          1           0       -3.705754   -3.768472    2.158598
     95          1           0       -2.938745   -4.710675   -0.058191
     96          1           0       -3.498356   -3.260668   -0.884578
     97          1           0       -5.332204   -3.430734   -1.961740
     98          1           0       -4.946169   -5.773693    1.460703
     99          1           0       -7.647787   -4.146895   -2.372336
    100          1           0       -7.379336   -6.543511    1.203061
    101          1           0       -9.172121   -6.717528   -0.143357
    102          7           0       -1.153397   -3.329147    1.915971
    103          6           0        0.288496   -3.171298    1.938941
    104          6           0        0.928871   -4.139093    0.960017
    105          8           0        0.652626   -5.340465    0.883895
    106          6           0        0.757945   -3.126652    3.395555
    107          6           0        0.359451   -1.780595    4.009909
    108          6           0        2.228810   -3.484204    3.535241
    109          6           0        1.166399   -0.535415    3.692796
    110          1           0       -1.433605   -4.255230    2.212542
    111          1           0        0.555613   -2.212291    1.506560
    112          1           0        0.205719   -3.891427    3.925336
    113          1           0        0.378267   -1.929367    5.087552
    114          1           0       -0.728088   -1.698773    3.944615
    115          1           0        2.548092   -3.082257    4.500952
    116          1           0        2.384662   -4.548544    3.377789
    117          1           0        2.763064   -2.972587    2.725661
    118          1           0        0.999936    0.157523    4.521848
    119          1           0        2.246569   -0.698791    3.801617
    120          1           0        0.811579   -0.132840    2.746627
    121          7           0        1.800626   -3.556545    0.131416
    122          6           0        2.605743   -4.110502   -0.928734
    123          6           0        4.095436   -3.966553   -0.645722
    124          8           0        4.496414   -3.240019    0.261948
    125          6           0        2.175503   -3.413963   -2.216804
    126          8           0        2.754816   -2.126177   -2.076789
    127          1           0        1.842227   -2.563047    0.279166
    128          1           0        2.405315   -5.180836   -1.026786
    129          1           0        1.115701   -3.433886   -2.479529
    130          1           0        2.823271   -3.904708   -2.941625
    131          1           0        2.053049   -1.515079   -1.845526
    132          7           0        4.931732   -4.798352   -1.279219
    133          6           0        6.348471   -4.961830   -1.060759
    134          6           0        7.096083   -3.707088   -1.480283
    135          8           0        8.125067   -3.355062   -0.899189
    136          6           0        6.855695   -6.237535   -1.717872
    137          1           0        4.476639   -5.358301   -1.989605
    138          1           0        6.465050   -5.029184    0.020570
    139          1           0        7.826256   -6.440076   -1.255283
    140          1           0        6.095085   -7.001502   -1.538913
    141          1           0        6.885452   -6.113739   -2.799625
    142          7           0        6.759304   -2.989001   -2.549034
    143          6           0        7.263592   -1.658641   -2.824421
    144          6           0        6.941584   -0.624350   -1.747410
    145          8           0        7.863771    0.086297   -1.371707
    146          6           0        6.715714   -1.117978   -4.141885
    147          1           0        5.949066   -3.285837   -3.070094
    148          1           0        8.340466   -1.762244   -2.971756
    149          1           0        5.644323   -1.019908   -4.017773
    150          1           0        7.193049   -0.174912   -4.426098
    151          1           0        6.932974   -1.864118   -4.898902
    152          7           0        5.713508   -0.666208   -1.213578
    153          6           0        5.492697    0.062597    0.020394
    154          6           0        6.247027   -0.456006    1.234947
    155          8           0        6.556815    0.336718    2.122539
    156          6           0        3.999286    0.071246    0.371890
    157          6           0        3.058362    0.908033   -0.480253
    158          6           0        1.599639    0.526467   -0.242901
    159          8           0        0.842716    1.492895   -0.049034
    160          8           0        1.172983   -0.646753   -0.369859
    161          1           0        5.003414   -1.278219   -1.579923
    162          1           0        5.661679    1.136600   -0.105155
    163          1           0        3.897945    0.490320    1.371993
    164          1           0        3.662966   -0.966035    0.462096
    165          1           0        3.331646    0.703812   -1.508168
    166          1           0        3.191194    1.965051   -0.248585
    167          7           0        6.492317   -1.762458    1.367292
    168          6           0        7.212889   -2.270287    2.506716
    169          1           0        6.508891   -2.699722    3.219604
    170          1           0        7.913155   -3.038900    2.180862
    171          1           0        7.760844   -1.457485    2.982433
    172          1           0        5.778835   -2.322073    0.910155
    173         20           0       -1.560181    0.567595   -0.580701
    174          8           0       -0.924443   -1.053240   -2.662929
    175          1           0       -1.024547   -1.959777   -2.935639
    176          1           0       -0.526709   -0.612450   -3.414669
 ---------------------------------------------------------------------

 SCF Done:  E(RB3LYP) =  -5333.60888034     A.U. after   15 cycles

 The electronic state is 1-A.
 Alpha  occ. eigenvalues -- -145.35182 -19.17123 -19.14834 -19.14446 -19.13929
 Alpha  occ. eigenvalues --  -19.11628 -19.11479 -19.10273 -19.09786 -19.09699
 Alpha  occ. eigenvalues --  -19.08868 -19.08330 -19.07677 -19.06964 -19.06626
 Alpha  occ. eigenvalues --  -19.06604 -19.06447 -19.06443 -19.06105 -19.06004
 Alpha  occ. eigenvalues --  -19.05679 -19.05593 -19.05272 -19.05069 -15.40852
 Alpha  occ. eigenvalues --  -14.57945 -14.39907 -14.37389 -14.37293 -14.36368
 Alpha  occ. eigenvalues --  -14.35539 -14.35447 -14.34232 -14.32756 -14.32527
 Alpha  occ. eigenvalues --  -14.32502 -14.31656 -14.31417 -14.30929 -14.30737
 Alpha  occ. eigenvalues --  -12.54455 -12.54451 -12.54433 -10.33176 -10.32463
 Alpha  occ. eigenvalues --  -10.30212 -10.29744 -10.29520 -10.28448 -10.28205
 Alpha  occ. eigenvalues --  -10.27412 -10.26925 -10.26723 -10.26661 -10.26002
 Alpha  occ. eigenvalues --  -10.25895 -10.25812 -10.25703 -10.25617 -10.25530
 Alpha  occ. eigenvalues --  -10.25514 -10.25040 -10.24840 -10.24600 -10.24485
 Alpha  occ. eigenvalues --  -10.24109 -10.23423 -10.23092 -10.22750 -10.22736
 Alpha  occ. eigenvalues --  -10.22701 -10.22099 -10.21731 -10.21538 -10.21328
 Alpha  occ. eigenvalues --  -10.21151 -10.20827 -10.20156 -10.19838 -10.19645
 Alpha  occ. eigenvalues --  -10.19324 -10.18780 -10.18756 -10.18651 -10.18067
 Alpha  occ. eigenvalues --  -10.17883 -10.17776 -10.17350 -10.17193 -10.17101
 Alpha  occ. eigenvalues --  -10.17023 -10.16899 -10.16801 -10.16790 -10.16676
 Alpha  occ. eigenvalues --  -10.16345 -10.15689  -1.77693  -1.12878  -1.07281
 Alpha  occ. eigenvalues --   -1.05554  -1.05484  -1.05366  -1.04288  -1.04213
 Alpha  occ. eigenvalues --   -1.03899  -1.03697  -1.03133  -1.02928  -1.02698
 Alpha  occ. eigenvalues --   -1.02574  -1.02195  -1.01493  -1.00881  -1.00759
 Alpha  occ. eigenvalues --   -1.00430  -1.00237  -0.99690  -0.99532  -0.99188
 Alpha  occ. eigenvalues --   -0.99160  -0.97816  -0.96761  -0.93643  -0.93381
 Alpha  occ. eigenvalues --   -0.93088  -0.92714  -0.92609  -0.92061  -0.90744
 Alpha  occ. eigenvalues --   -0.90496  -0.90294  -0.90107  -0.89797  -0.89507
 Alpha  occ. eigenvalues --   -0.88944  -0.88367  -0.87781  -0.87472  -0.87286
 Alpha  occ. eigenvalues --   -0.82994  -0.82574  -0.81325  -0.80228  -0.79659
 Alpha  occ. eigenvalues --   -0.78324  -0.77891  -0.77701  -0.77623  -0.77161
 Alpha  occ. eigenvalues --   -0.75531  -0.74364  -0.73716  -0.72548  -0.72062
 Alpha  occ. eigenvalues --   -0.71960  -0.71841  -0.71489  -0.71224  -0.71062
 Alpha  occ. eigenvalues --   -0.70429  -0.69938  -0.69568  -0.68143  -0.67750
 Alpha  occ. eigenvalues --   -0.67115  -0.66260  -0.65950  -0.64477  -0.64398
 Alpha  occ. eigenvalues --   -0.64086  -0.62991  -0.62726  -0.61839  -0.61547
 Alpha  occ. eigenvalues --   -0.60719  -0.60514  -0.60258  -0.60254  -0.59877
 Alpha  occ. eigenvalues --   -0.59424  -0.58793  -0.58557  -0.57798  -0.57716
 Alpha  occ. eigenvalues --   -0.56860  -0.56633  -0.56435  -0.56277  -0.56239
 Alpha  occ. eigenvalues --   -0.55844  -0.55748  -0.55589  -0.55195  -0.54997
 Alpha  occ. eigenvalues --   -0.54645  -0.54435  -0.53971  -0.53814  -0.53684
 Alpha  occ. eigenvalues --   -0.52855  -0.52818  -0.52551  -0.52139  -0.51250
 Alpha  occ. eigenvalues --   -0.51082  -0.50478  -0.50149  -0.50073  -0.49768
 Alpha  occ. eigenvalues --   -0.49725  -0.49251  -0.49107  -0.49052  -0.48725
 Alpha  occ. eigenvalues --   -0.48462  -0.48351  -0.47948  -0.47882  -0.47611
 Alpha  occ. eigenvalues --   -0.47481  -0.47360  -0.47006  -0.46443  -0.46294
 Alpha  occ. eigenvalues --   -0.45949  -0.45733  -0.45595  -0.45558  -0.45341
 Alpha  occ. eigenvalues --   -0.45286  -0.45131  -0.45040  -0.44798  -0.44616
 Alpha  occ. eigenvalues --   -0.44485  -0.44276  -0.44037  -0.43757  -0.43665
 Alpha  occ. eigenvalues --   -0.43588  -0.43489  -0.43257  -0.43008  -0.42993
 Alpha  occ. eigenvalues --   -0.42896  -0.42817  -0.42743  -0.42561  -0.42436
 Alpha  occ. eigenvalues --   -0.42317  -0.41984  -0.41787  -0.41552  -0.41522
 Alpha  occ. eigenvalues --   -0.41419  -0.41290  -0.41197  -0.40878  -0.40814
 Alpha  occ. eigenvalues --   -0.40709  -0.40586  -0.40549  -0.40352  -0.40332
 Alpha  occ. eigenvalues --   -0.39942  -0.39819  -0.39698  -0.39379  -0.39260
 Alpha  occ. eigenvalues --   -0.39206  -0.38921  -0.38842  -0.38768  -0.38735
 Alpha  occ. eigenvalues --   -0.38718  -0.38581  -0.38457  -0.38357  -0.38136
 Alpha  occ. eigenvalues --   -0.38075  -0.38033  -0.37944  -0.37584  -0.37448
 Alpha  occ. eigenvalues --   -0.37406  -0.37327  -0.37184  -0.37069  -0.36793
 Alpha  occ. eigenvalues --   -0.36625  -0.36386  -0.36281  -0.36016  -0.35672
 Alpha  occ. eigenvalues --   -0.35566  -0.35475  -0.35425  -0.35294  -0.35022
 Alpha  occ. eigenvalues --   -0.34726  -0.34587  -0.34337  -0.34274  -0.33999
 Alpha  occ. eigenvalues --   -0.33603  -0.33445  -0.33314  -0.33173  -0.32951
 Alpha  occ. eigenvalues --   -0.32440  -0.32261  -0.32189  -0.32147  -0.32109
 Alpha  occ. eigenvalues --   -0.31973  -0.31168  -0.30922  -0.30848  -0.30321
 Alpha  occ. eigenvalues --   -0.29838  -0.29624  -0.28414  -0.28139  -0.27538
 Alpha  occ. eigenvalues --   -0.27062  -0.27027  -0.26470  -0.26392  -0.26123
 Alpha  occ. eigenvalues --   -0.25938  -0.25769  -0.25399  -0.25205  -0.25122
 Alpha  occ. eigenvalues --   -0.25007  -0.24836  -0.24671  -0.24445  -0.24311
 Alpha  occ. eigenvalues --   -0.24233  -0.23628  -0.23540  -0.23463  -0.23371
 Alpha  occ. eigenvalues --   -0.23225  -0.22886  -0.22715  -0.22554  -0.22033
 Alpha  occ. eigenvalues --   -0.21918  -0.21432  -0.21242  -0.21146  -0.20798
 Alpha  occ. eigenvalues --   -0.20346  -0.20338  -0.20128
 Alpha virt. eigenvalues --   -0.09715  -0.03871  -0.03220  -0.02819  -0.01405
 Alpha virt. eigenvalues --   -0.00649  -0.00418   0.00037   0.00471   0.00545
 Alpha virt. eigenvalues --    0.00841   0.01804   0.02001   0.02408   0.02629

 Mulliken charges:
               1
     1  C    0.057584
     2  C    0.027315
     3  O   -0.293279
     4  H    0.035041
     5  H    0.037465
     6  H   -0.000007
     7  N   -0.100963
     8  C    0.042305
     9  C    0.041296
    10  O   -0.296253
    11  C    0.178846
    12  C    0.087179
    13  O   -0.378518
    14  O   -0.446314
    15  H    0.114091
    16  H    0.018733
    17  H    0.005426
    18  H   -0.000665
    19  N   -0.152165
    20  C    0.205620
    21  C    0.037171
    22  O   -0.305343
    23  C    0.006594
    24  C   -0.008358
    25  C    0.027883
    26  C   -0.026353
    27  N    0.090896
    28  H    0.167654
    29  H    0.018378
    30  H   -0.019955
    31  H   -0.008930
    32  H    0.058794
    33  H    0.008327
    34  H    0.023985
    35  H    0.056918
    36  H    0.059447
    37  H    0.072017
    38  H    0.196176
    39  H    0.190112
    40  H    0.189080
    41  N   -0.144733
    42  C    0.090243
    43  C    0.087050
    44  O   -0.298236
    45  C    0.126706
    46  C    0.063147
    47  O   -0.413678
    48  O   -0.437213
    49  H    0.161492
    50  H    0.023550
    51  H   -0.003245
    52  H    0.018548
    53  N   -0.137650
    54  C    0.208147
    55  C    0.007500
    56  O   -0.299962
    57  H    0.130061
    58  H    0.020189
    59  H    0.016674
    60  N   -0.185292
    61  C    0.146735
    62  C    0.040974
    63  O   -0.290282
    64  C    0.061493
    65  C    0.087450
    66  N   -0.024991
    67  O   -0.341968
    68  H    0.157547
    69  H    0.026386
    70  H    0.064246
    71  H    0.016709
    72  H    0.131086
    73  H    0.114073
    74  N   -0.133557
    75  C    0.212444
    76  C    0.053740
    77  O   -0.297879
    78  H    0.140653
    79  H    0.039376
    80  H    0.031820
    81  N   -0.147374
    82  C    0.086701
    83  C    0.140456
    84  O   -0.371022
    85  C    0.188968
    86  C   -0.062175
    87  C    0.010921
    88  C    0.056586
    89  C   -0.013142
    90  C   -0.036798
    91  C    0.191722
    92  O   -0.209806
    93  H    0.150428
    94  H    0.004552
    95  H   -0.006169
    96  H   -0.035945
    97  H   -0.058925
    98  H   -0.042480
    99  H   -0.028985
   100  H   -0.047134
   101  H    0.177149
   102  N   -0.115816
   103  C    0.138901
   104  C    0.029726
   105  O   -0.289559
   106  C   -0.088544
   107  C    0.002404
   108  C    0.095019
   109  C    0.022169
   110  H    0.125375
   111  H    0.003418
   112  H   -0.028004
   113  H   -0.027421
   114  H   -0.003444
   115  H    0.015210
   116  H    0.012898
   117  H    0.007409
   118  H   -0.001237
   119  H    0.019635
   120  H    0.065189
   121  N   -0.133829
   122  C    0.071583
   123  C    0.109960
   124  O   -0.280173
   125  C    0.303038
   126  O   -0.353847
   127  H    0.157760
   128  H    0.014774
   129  H    0.015284
   130  H   -0.048256
   131  H    0.171998
   132  N   -0.133287
   133  C    0.085874
   134  C    0.050841
   135  O   -0.260223
   136  C    0.070995
   137  H    0.115148
   138  H    0.028877
   139  H    0.060857
   140  H    0.026699
   141  H    0.008888
   142  N   -0.117723
   143  C    0.092326
   144  C    0.073744
   145  O   -0.266330
   146  C    0.037250
   147  H    0.087592
   148  H    0.013438
   149  H    0.005482
   150  H    0.023496
   151  H    0.013282
   152  N   -0.146687
   153  C    0.160066
   154  C    0.046260
   155  O   -0.290786
   156  C   -0.087119
   157  C    0.116294
   158  C    0.166448
   159  O   -0.397107
   160  O   -0.415428
   161  H    0.131663
   162  H   -0.046277
   163  H    0.035695
   164  H    0.011730
   165  H   -0.022006
   166  H   -0.011431
   167  N   -0.164227
   168  C    0.134263
   169  H    0.004459
   170  H    0.013283
   171  H    0.033540
   172  H    0.136947
   173  Ca   1.242949
   174  O   -0.258875
   175  H    0.161783
   176  H    0.181605
 Sum of Mulliken charges =  -0.00000

 Dipole moment (field-independent basis, Debye):
    X=             25.1951    Y=             -0.5042    Z=            -13.2226  Tot=             28.4585
 Quadrupole moment (field-independent basis, Debye-Ang):
   XX=           -567.0926   YY=           -505.2336   ZZ=           -507.3819
   XY=            123.4982   XZ=            -76.4570   YZ=              8.0782

 ESP charges:
               1
     1  C   -0.434641
     2  C    0.855892
     3  O   -0.638096
     4  H    0.116192
     5  H    0.129626
     6  H    0.087357
     7  N   -0.877196
     8  C    0.707082
     9  C    0.367088
    10  O   -0.536950
    11  C   -0.521666
    12  C    0.992997
    13  O   -0.827713
    14  O   -0.694486
    15  H    0.377338
    16  H   -0.116515
    17  H    0.103518
    18  H    0.105832
    19  N   -0.286498
    20  C   -0.029718
    21  C    0.668841
    22  O   -0.603942
    23  C    0.104747
    24  C   -0.129739
    25  C   -0.092576
    26  C    0.121801
    27  N   -0.429181
    28  H    0.141400
    29  H    0.076265
    30  H   -0.045390
    31  H   -0.015241
    32  H    0.087077
    33  H    0.064705
    34  H    0.067643
    35  H    0.077405
    36  H    0.056994
    37  H    0.079896
    38  H    0.343944
    39  H    0.336900
    40  H    0.344321
    41  N   -0.689497
    42  C    0.359094
    43  C    0.310679
    44  O   -0.532503
    45  C   -0.389533
    46  C    0.762913
    47  O   -0.727960
    48  O   -0.650733
    49  H    0.397798
    50  H    0.067383
    51  H    0.096698
    52  H    0.107556
    53  N   -0.118434
    54  C   -0.119194
    55  C    0.579134
    56  O   -0.597710
    57  H    0.043227
    58  H    0.091352
    59  H    0.082175
    60  N   -0.469293
    61  C    0.205876
    62  C    0.158800
    63  O   -0.440165
    64  C   -0.504393
    65  C    0.809193
    66  N   -0.802432
    67  O   -0.619936
    68  H    0.318988
    69  H    0.111914
    70  H    0.191846
    71  H    0.114777
    72  H    0.377397
    73  H    0.356685
    74  N    0.094187
    75  C   -0.342545
    76  C    0.632501
    77  O   -0.565566
    78  H    0.190951
    79  H    0.149698
    80  H    0.120762
    81  N   -0.498323
    82  C    0.625016
    83  C    0.191836
    84  O   -0.325213
    85  C   -0.217556
    86  C    0.278244
    87  C   -0.480174
    88  C   -0.247974
    89  C   -0.012711
    90  C   -0.159570
    91  C    0.201434
    92  O   -0.513332
    93  H    0.191586
    94  H   -0.065268
    95  H    0.005343
    96  H    0.072128
    97  H    0.209264
    98  H    0.128458
    99  H    0.116340
   100  H    0.117456
   101  H    0.397449
   102  N   -0.449427
   103  C    0.016649
   104  C    0.660962
   105  O   -0.585051
   106  C    0.128199
   107  C    0.115880
   108  C   -0.339027
   109  C   -0.141191
   110  H    0.270583
   111  H    0.041664
   112  H    0.000822
   113  H   -0.034614
   114  H   -0.003845
   115  H    0.089023
   116  H    0.087833
   117  H    0.058432
   118  H    0.038567
   119  H    0.063865
   120  H    0.043966
   121  N   -0.495562
   122  C    0.218221
   123  C    0.435605
   124  O   -0.404101
   125  C   -0.001616
   126  O   -0.495343
   127  H    0.293639
   128  H    0.013743
   129  H    0.084508
   130  H    0.006348
   131  H    0.351311
   132  N   -0.430739
   133  C    0.113504
   134  C    0.570584
   135  O   -0.539439
   136  C   -0.326417
   137  H    0.281946
   138  H    0.093752
   139  H    0.126971
   140  H    0.103752
   141  H    0.085588
   142  N   -0.536443
   143  C    0.285277
   144  C    0.303883
   145  O   -0.518330
   146  C   -0.329587
   147  H    0.291620
   148  H    0.060018
   149  H    0.061690
   150  H    0.107584
   151  H    0.081228
   152  N   -0.198919
   153  C    0.125912
   154  C    0.418335
   155  O   -0.559931
   156  C    0.070729
   157  C   -0.433929
   158  C    0.840210
   159  O   -0.610075
   160  O   -0.660966
   161  H    0.172718
   162  H   -0.031026
   163  H    0.060295
   164  H   -0.113605
   165  H    0.052691
   166  H    0.159076
   167  N   -0.076207
   168  C   -0.157221
   169  H    0.050228
   170  H    0.041696
   171  H    0.107331
   172  H    0.139934
   173  Ca   1.305274
   174  O   -0.780192
   175  H    0.390533
   176  H    0.419180
 Sum of ESP charges =   0.00000

 Normal termination of Gaussian 16 at Sat Sep 14 22:37:20 2019.
