 Gaussian 09, Revision D.01,
 Gaussian 09:  ES64L-G09RevD.01 24-Apr-2013

 ----------------------------------------------------------------------
 #maxdisk=50GB #B3LYP/SVP Density=Current scf=(tight) #IOP(5/87=12)Pop=
 (MK,readradii) iop(6/33=2) iop(6/42=6)
 ----------------------------------------------------------------------

 ------------
 SOL molecule
 ------------
 Symbolic Z-matrix:
 Charge =  0 Multiplicity = 1

                         Standard orientation:
 ---------------------------------------------------------------------
 Center     Atomic      Atomic             Coordinates (Angstroms)
 Number     Number       Type             X           Y           Z
 ---------------------------------------------------------------------
      1          6           0        2.569515    2.314383    5.654812
      2          6           0        1.861723    2.111387    4.321087
      3          8           0        2.475663    2.120035    3.263825
      4          1           0        3.571135    1.886211    5.602897
      5          1           0        2.640843    3.380243    5.870396
      6          1           0        2.004474    1.820967    6.445300
      7          7           0        0.524748    2.051617    4.354627
      8          6           0       -0.191731    2.037903    3.086452
      9          6           0       -0.194252    3.411587    2.437541
     10          8           0       -0.955943    4.292710    2.834215
     11          6           0       -1.636560    1.605041    3.266179
     12          6           0       -2.444341    1.659660    1.971650
     13          8           0       -1.860637    1.672254    0.870000
     14          8           0       -3.686819    1.799871    2.082507
     15          1           0        0.099152    1.713653    5.207005
     16          1           0        0.245193    1.421605    2.296975
     17          1           0       -2.134146    2.185309    4.050970
     18          1           0       -1.742175    0.567388    3.563537
     19          7           0        0.482018    3.576130    1.295357
     20          6           0        0.862294    4.884979    0.798967
     21          6           0       -0.142406    5.451219   -0.194286
     22          8           0       -0.560521    6.590446    0.022835
     23          6           0        2.322049    4.998640    0.362164
     24          6           0        2.704284    6.333914   -0.277397
     25          6           0        4.222248    6.376314   -0.429010
     26          6           0        4.539927    7.619237   -1.251337
     27          7           0        4.615741    8.900635   -0.540230
     28          1           0        0.805267    2.746626    0.821191
     29          1           0        0.740504    5.539433    1.654278
     30          1           0        2.515346    4.225010   -0.374472
     31          1           0        2.970514    4.723521    1.189148
     32          1           0        2.366259    7.135390    0.368804
     33          1           0        2.169731    6.489639   -1.212867
     34          1           0        4.466356    5.470352   -0.997995
     35          1           0        4.685185    6.328608    0.560341
     36          1           0        3.787689    7.639644   -2.041541
     37          1           0        5.521962    7.419267   -1.692495
     38          1           0        4.480409    9.591917   -1.265223
     39          1           0        3.811826    8.945976    0.085761
     40          1           0        5.533294    9.039170   -0.145891
     41          7           0       -0.749999    4.679614   -1.099358
     42          6           0       -1.755274    5.132223   -2.043745
     43          6           0       -3.151754    4.778384   -1.561003
     44          8           0       -4.138558    5.122903   -2.212174
     45          6           0       -1.333592    4.570215   -3.394756
     46          6           0       -1.396442    3.058911   -3.551629
     47          8           0       -1.809596    2.334197   -2.618198
     48          8           0       -1.083744    2.457828   -4.599827
     49          1           0       -0.458984    3.718853   -1.214034
     50          1           0       -1.835276    6.216006   -2.064122
     51          1           0       -0.352516    4.918309   -3.705434
     52          1           0       -2.002740    4.962562   -4.172447
     53          7           0       -3.240651    4.044758   -0.445973
     54          6           0       -4.437841    4.082812    0.354894
     55          6           0       -5.486639    3.070071   -0.090839
     56          8           0       -6.622746    3.340775    0.285831
     57          1           0       -2.446709    3.504724   -0.126882
     58          1           0       -4.994490    5.029323    0.347362
     59          1           0       -4.127457    3.823395    1.361753
     60          7           0       -5.166173    2.020355   -0.841770
     61          6           0       -6.177001    1.061942   -1.236446
     62          6           0       -6.444551    0.010928   -0.169869
     63          8           0       -6.985578   -1.036559   -0.541032
     64          6           0       -5.851988    0.417866   -2.582973
     65          6           0       -4.584354   -0.419158   -2.527346
     66          7           0       -4.468443   -1.417126   -3.418201
     67          8           0       -3.627956   -0.242376   -1.777579
     68          1           0       -4.233095    1.949849   -1.217794
     69          1           0       -7.052624    1.685972   -1.400061
     70          1           0       -5.618568    1.231715   -3.262139
     71          1           0       -6.701197   -0.147901   -2.967226
     72          1           0       -5.215507   -1.739270   -4.010333
     73          1           0       -3.845874   -2.188365   -3.264265
     74          7           0       -6.048004    0.250225    1.072704
     75          6           0       -6.247833   -0.682755    2.168978
     76          6           0       -5.297962   -1.861139    2.262023
     77          8           0       -5.536813   -2.745904    3.087276
     78          1           0       -5.507343    1.057877    1.350703
     79          1           0       -7.276871   -1.040163    2.211864
     80          1           0       -6.027062   -0.192697    3.118769
     81          7           0       -4.358010   -2.009283    1.326960
     82          6           0       -3.461185   -3.140311    1.187747
     83          6           0       -2.039982   -2.611724    1.068670
     84          8           0       -1.748363   -1.550492    0.529555
     85          6           0       -3.851641   -3.911835   -0.074748
     86          6           0       -5.265308   -4.389801   -0.271710
     87          6           0       -5.884070   -4.405855   -1.527805
     88          6           0       -5.957571   -4.994387    0.790433
     89          6           0       -7.147174   -4.941168   -1.803138
     90          6           0       -7.300992   -5.362782    0.634213
     91          6           0       -7.831205   -5.424751   -0.668259
     92          8           0       -9.006593   -6.065910   -0.945166
     93          1           0       -4.237921   -1.262920    0.649154
     94          1           0       -3.557245   -3.800443    2.043842
     95          1           0       -3.216271   -4.793720   -0.153393
     96          1           0       -3.422029   -3.376008   -0.921284
     97          1           0       -5.214937   -4.091842   -2.318410
     98          1           0       -5.462214   -5.033569    1.742686
     99          1           0       -7.469063   -5.121968   -2.818765
    100          1           0       -7.908801   -5.794881    1.410847
    101          1           0       -9.232733   -6.511200   -0.121044
    102          7           0       -1.023630   -3.349215    1.520593
    103          6           0        0.390532   -3.072757    1.318563
    104          6           0        1.037445   -3.952260    0.261266
    105          8           0        0.866694   -5.177760    0.221324
    106          6           0        1.024945   -3.044755    2.706993
    107          6           0        0.950871   -1.729742    3.478131
    108          6           0        2.498648   -3.448298    2.694579
    109          6           0        1.416986   -1.806172    4.924608
    110          1           0       -1.234054   -4.144415    2.100142
    111          1           0        0.417391   -2.041853    0.961608
    112          1           0        0.589754   -3.869017    3.261340
    113          1           0       -0.048918   -1.336635    3.347027
    114          1           0        1.679459   -1.096582    2.963769
    115          1           0        2.902513   -3.463069    3.704566
    116          1           0        2.609181   -4.462811    2.299301
    117          1           0        3.096676   -2.833152    2.024237
    118          1           0        0.909125   -0.938933    5.343145
    119          1           0        1.180606   -2.753771    5.411415
    120          1           0        2.502398   -1.687283    4.876187
    121          7           0        1.844509   -3.352766   -0.604675
    122          6           0        2.629738   -3.877080   -1.702086
    123          6           0        4.053268   -4.016561   -1.174728
    124          8           0        4.416096   -3.499164   -0.118766
    125          6           0        2.510088   -3.028802   -2.962248
    126          8           0        2.712263   -1.637866   -2.829877
    127          1           0        1.851097   -2.341323   -0.528259
    128          1           0        2.315554   -4.894193   -1.956976
    129          1           0        1.508955   -3.171116   -3.376589
    130          1           0        3.182470   -3.405880   -3.730893
    131          1           0        1.952811   -1.421305   -2.282033
    132          7           0        4.902015   -4.682761   -1.960797
    133          6           0        6.286175   -4.901612   -1.593908
    134          6           0        7.062768   -3.603749   -1.374468
    135          8           0        7.753944   -3.577903   -0.362832
    136          6           0        6.859844   -5.684185   -2.768422
    137          1           0        4.605480   -5.085561   -2.835451
    138          1           0        6.401421   -5.550297   -0.723032
    139          1           0        7.876086   -5.965670   -2.492164
    140          1           0        6.181732   -6.544463   -2.847078
    141          1           0        6.872822   -4.965100   -3.578452
    142          7           0        6.968629   -2.611433   -2.258463
    143          6           0        7.707588   -1.370694   -2.200950
    144          6           0        7.310392   -0.583711   -0.954759
    145          8           0        8.150071   -0.037113   -0.257070
    146          6           0        7.529013   -0.536201   -3.467257
    147          1           0        6.356505   -2.742104   -3.060665
    148          1           0        8.786496   -1.499082   -2.120484
    149          1           0        6.452567   -0.336793   -3.421430
    150          1           0        8.045141    0.423000   -3.375353
    151          1           0        7.777368   -1.091601   -4.375195
    152          7           0        6.025610   -0.580645   -0.586215
    153          6           0        5.472906   -0.157258    0.688525
    154          6           0        5.919252   -1.037540    1.849465
    155          8           0        6.258744   -0.517858    2.912514
    156          6           0        3.941703   -0.213092    0.688006
    157          6           0        3.313370    0.841474   -0.225334
    158          6           0        1.820941    0.657268   -0.423633
    159          8           0        1.087446    1.660045   -0.537749
    160          8           0        1.354254   -0.499050   -0.514923
    161          1           0        5.418015   -1.069876   -1.229629
    162          1           0        5.733178    0.887020    0.813586
    163          1           0        3.729624    0.016002    1.735974
    164          1           0        3.547752   -1.210426    0.502728
    165          1           0        3.755552    0.831583   -1.221314
    166          1           0        3.513742    1.840620    0.168567
    167          7           0        5.915308   -2.364934    1.756677
    168          6           0        6.456537   -3.257901    2.768498
    169          1           0        7.252651   -3.860675    2.331893
    170          1           0        6.857939   -2.670921    3.594625
    171          1           0        5.666417   -3.912480    3.136556
    172          1           0        5.718946   -2.680918    0.816999
    173         20           0       -1.178707    0.315233   -1.258395
    174          8           0        0.429435    0.594802   -3.376583
    175          1           0        1.352637    0.826569   -3.473441
    176          1           0       -0.044281    1.264843   -3.868456
 ---------------------------------------------------------------------

 SCF Done:  E(RB3LYP) =  -5333.58018546     A.U. after   15 cycles

 The electronic state is 1-A.
 Alpha  occ. eigenvalues -- -145.37782 -19.15399 -19.14886 -19.13236 -19.13082
 Alpha  occ. eigenvalues --  -19.12327 -19.11983 -19.10868 -19.10207 -19.09064
 Alpha  occ. eigenvalues --  -19.09005 -19.08117 -19.08020 -19.06597 -19.06436
 Alpha  occ. eigenvalues --  -19.06317 -19.05502 -19.05159 -19.04656 -19.04456
 Alpha  occ. eigenvalues --  -19.04259 -19.03607 -19.03551 -19.02377 -15.43512
 Alpha  occ. eigenvalues --  -14.59562 -14.38991 -14.38237 -14.36729 -14.36649
 Alpha  occ. eigenvalues --  -14.35228 -14.34216 -14.33951 -14.33235 -14.32385
 Alpha  occ. eigenvalues --  -14.31851 -14.30500 -14.30326 -14.30084 -14.28897
 Alpha  occ. eigenvalues --  -12.57137 -12.57086 -12.57075 -10.35253 -10.31548
 Alpha  occ. eigenvalues --  -10.31207 -10.30452 -10.29820 -10.28265 -10.28236
 Alpha  occ. eigenvalues --  -10.27502 -10.27018 -10.26632 -10.26544 -10.25734
 Alpha  occ. eigenvalues --  -10.25583 -10.25353 -10.25274 -10.24959 -10.24463
 Alpha  occ. eigenvalues --  -10.24321 -10.23961 -10.23927 -10.23740 -10.23545
 Alpha  occ. eigenvalues --  -10.23510 -10.23182 -10.22937 -10.22515 -10.22094
 Alpha  occ. eigenvalues --  -10.22085 -10.21389 -10.21269 -10.21226 -10.20658
 Alpha  occ. eigenvalues --  -10.20499 -10.19886 -10.19773 -10.19718 -10.19710
 Alpha  occ. eigenvalues --  -10.19528 -10.18231 -10.18132 -10.17978 -10.17940
 Alpha  occ. eigenvalues --  -10.17932 -10.17900 -10.17731 -10.17697 -10.17444
 Alpha  occ. eigenvalues --  -10.17352 -10.16866 -10.16779 -10.16573 -10.15739
 Alpha  occ. eigenvalues --  -10.15358 -10.14960  -1.80316  -1.14718  -1.07999
 Alpha  occ. eigenvalues --   -1.07826  -1.07636  -1.06423  -1.05646  -1.05556
 Alpha  occ. eigenvalues --   -1.04515  -1.04197  -1.03837  -1.03748  -1.01804
 Alpha  occ. eigenvalues --   -1.01596  -1.01299  -1.00396  -0.99915  -0.99844
 Alpha  occ. eigenvalues --   -0.98987  -0.98640  -0.98129  -0.97909  -0.97785
 Alpha  occ. eigenvalues --   -0.97373  -0.96660  -0.96107  -0.94612  -0.94420
 Alpha  occ. eigenvalues --   -0.93113  -0.92207  -0.91686  -0.90798  -0.90422
 Alpha  occ. eigenvalues --   -0.90126  -0.89601  -0.89379  -0.88823  -0.88427
 Alpha  occ. eigenvalues --   -0.88109  -0.87876  -0.87588  -0.86367  -0.85552
 Alpha  occ. eigenvalues --   -0.83556  -0.82176  -0.81340  -0.81110  -0.79503
 Alpha  occ. eigenvalues --   -0.78217  -0.77929  -0.77554  -0.76803  -0.76322
 Alpha  occ. eigenvalues --   -0.75236  -0.74933  -0.74367  -0.74204  -0.72989
 Alpha  occ. eigenvalues --   -0.72416  -0.72285  -0.71531  -0.70830  -0.70509
 Alpha  occ. eigenvalues --   -0.69174  -0.68664  -0.68235  -0.67907  -0.67572
 Alpha  occ. eigenvalues --   -0.66611  -0.65852  -0.65665  -0.64649  -0.64161
 Alpha  occ. eigenvalues --   -0.63903  -0.63111  -0.62540  -0.62051  -0.61992
 Alpha  occ. eigenvalues --   -0.61457  -0.61309  -0.60805  -0.60665  -0.60401
 Alpha  occ. eigenvalues --   -0.59033  -0.57841  -0.57715  -0.57689  -0.56965
 Alpha  occ. eigenvalues --   -0.56892  -0.56610  -0.56402  -0.55620  -0.55550
 Alpha  occ. eigenvalues --   -0.55374  -0.55278  -0.55072  -0.54475  -0.54182
 Alpha  occ. eigenvalues --   -0.53965  -0.53285  -0.53227  -0.52981  -0.52605
 Alpha  occ. eigenvalues --   -0.52529  -0.52217  -0.52171  -0.52065  -0.51761
 Alpha  occ. eigenvalues --   -0.51295  -0.50593  -0.50308  -0.50151  -0.49850
 Alpha  occ. eigenvalues --   -0.49471  -0.49346  -0.48830  -0.48651  -0.48589
 Alpha  occ. eigenvalues --   -0.48440  -0.48291  -0.47707  -0.47672  -0.47507
 Alpha  occ. eigenvalues --   -0.47415  -0.47200  -0.46631  -0.46470  -0.46179
 Alpha  occ. eigenvalues --   -0.45929  -0.45820  -0.45545  -0.45443  -0.45195
 Alpha  occ. eigenvalues --   -0.44914  -0.44880  -0.44840  -0.44707  -0.44627
 Alpha  occ. eigenvalues --   -0.44447  -0.44319  -0.43921  -0.43762  -0.43483
 Alpha  occ. eigenvalues --   -0.43199  -0.42949  -0.42910  -0.42806  -0.42619
 Alpha  occ. eigenvalues --   -0.42490  -0.42354  -0.42114  -0.42033  -0.41957
 Alpha  occ. eigenvalues --   -0.41561  -0.41499  -0.41361  -0.41269  -0.41140
 Alpha  occ. eigenvalues --   -0.40940  -0.40728  -0.40551  -0.40504  -0.40466
 Alpha  occ. eigenvalues --   -0.40335  -0.40267  -0.40100  -0.39898  -0.39776
 Alpha  occ. eigenvalues --   -0.39721  -0.39632  -0.39437  -0.39351  -0.39250
 Alpha  occ. eigenvalues --   -0.39091  -0.38806  -0.38603  -0.38536  -0.38441
 Alpha  occ. eigenvalues --   -0.38386  -0.38278  -0.38096  -0.37698  -0.37643
 Alpha  occ. eigenvalues --   -0.37480  -0.37362  -0.37219  -0.37042  -0.36938
 Alpha  occ. eigenvalues --   -0.36722  -0.36638  -0.36541  -0.36464  -0.35978
 Alpha  occ. eigenvalues --   -0.35929  -0.35895  -0.35784  -0.35532  -0.35487
 Alpha  occ. eigenvalues --   -0.35056  -0.34992  -0.34707  -0.34632  -0.34352
 Alpha  occ. eigenvalues --   -0.33932  -0.33851  -0.33737  -0.33674  -0.33412
 Alpha  occ. eigenvalues --   -0.33207  -0.33025  -0.32941  -0.32588  -0.32363
 Alpha  occ. eigenvalues --   -0.32127  -0.31780  -0.31452  -0.31329  -0.31224
 Alpha  occ. eigenvalues --   -0.30949  -0.30742  -0.30418  -0.30387  -0.30230
 Alpha  occ. eigenvalues --   -0.29932  -0.28980  -0.28841  -0.28502  -0.28440
 Alpha  occ. eigenvalues --   -0.28066  -0.27543  -0.27246  -0.26171  -0.26032
 Alpha  occ. eigenvalues --   -0.25892  -0.25584  -0.25295  -0.25142  -0.24588
 Alpha  occ. eigenvalues --   -0.24560  -0.24290  -0.23946  -0.23815  -0.23730
 Alpha  occ. eigenvalues --   -0.23658  -0.23464  -0.23428  -0.22573  -0.22383
 Alpha  occ. eigenvalues --   -0.21645  -0.21620  -0.21336  -0.20761  -0.20654
 Alpha  occ. eigenvalues --   -0.20585  -0.20427  -0.20160  -0.20130  -0.19525
 Alpha  occ. eigenvalues --   -0.19175  -0.18492  -0.17925
 Alpha virt. eigenvalues --   -0.11282  -0.05740  -0.04549  -0.01818  -0.01262
 Alpha virt. eigenvalues --   -0.00941  -0.00714  -0.00565  -0.00192   0.00159
 Alpha virt. eigenvalues --    0.00393   0.01523   0.01590   0.01832   0.02233

 Mulliken charges:
               1
     1  C    0.064968
     2  C    0.029248
     3  O   -0.287525
     4  H    0.041533
     5  H    0.037754
     6  H   -0.002597
     7  N   -0.129018
     8  C    0.145223
     9  C    0.034798
    10  O   -0.279002
    11  C    0.061219
    12  C    0.150660
    13  O   -0.469548
    14  O   -0.381825
    15  H    0.123269
    16  H   -0.007994
    17  H    0.013179
    18  H   -0.003017
    19  N   -0.134442
    20  C    0.190504
    21  C    0.023917
    22  O   -0.304800
    23  C    0.020287
    24  C   -0.038037
    25  C   -0.012502
    26  C    0.002914
    27  N    0.091398
    28  H    0.147546
    29  H   -0.004072
    30  H    0.006595
    31  H    0.018241
    32  H   -0.012459
    33  H    0.027802
    34  H    0.054297
    35  H    0.038068
    36  H    0.075854
    37  H    0.066858
    38  H    0.197936
    39  H    0.202972
    40  H    0.204205
    41  N   -0.148383
    42  C    0.152814
    43  C    0.064415
    44  O   -0.288878
    45  C    0.084781
    46  C    0.101439
    47  O   -0.476532
    48  O   -0.383941
    49  H    0.131765
    50  H    0.009374
    51  H   -0.016539
    52  H    0.026073
    53  N   -0.179955
    54  C    0.261388
    55  C    0.003047
    56  O   -0.310020
    57  H    0.143459
    58  H    0.015907
    59  H    0.044755
    60  N   -0.158291
    61  C    0.136890
    62  C    0.056694
    63  O   -0.298629
    64  C    0.088279
    65  C    0.094849
    66  N   -0.041167
    67  O   -0.374076
    68  H    0.137487
    69  H    0.028568
    70  H    0.056108
    71  H    0.030733
    72  H    0.122416
    73  H    0.121497
    74  N   -0.139262
    75  C    0.221844
    76  C    0.032564
    77  O   -0.314306
    78  H    0.165541
    79  H    0.041366
    80  H    0.032763
    81  N   -0.129920
    82  C    0.114624
    83  C    0.123063
    84  O   -0.361119
    85  C    0.142285
    86  C    0.014389
    87  C    0.019447
    88  C    0.009651
    89  C    0.024048
    90  C    0.006050
    91  C    0.108143
    92  O   -0.199730
    93  H    0.148032
    94  H    0.009537
    95  H    0.005310
    96  H   -0.063177
    97  H   -0.092789
    98  H   -0.016722
    99  H   -0.026927
   100  H   -0.042212
   101  H    0.165845
   102  N   -0.110679
   103  C    0.176598
   104  C    0.028052
   105  O   -0.291755
   106  C   -0.131649
   107  C   -0.006093
   108  C    0.050155
   109  C    0.041618
   110  H    0.122502
   111  H    0.020960
   112  H   -0.030057
   113  H    0.005482
   114  H    0.022618
   115  H    0.006504
   116  H    0.003896
   117  H    0.020298
   118  H   -0.006709
   119  H    0.011154
   120  H    0.036680
   121  N   -0.135330
   122  C    0.084816
   123  C    0.112280
   124  O   -0.267325
   125  C    0.233634
   126  O   -0.319588
   127  H    0.141512
   128  H    0.021114
   129  H    0.012567
   130  H   -0.021207
   131  H    0.165279
   132  N   -0.125394
   133  C    0.077162
   134  C    0.057327
   135  O   -0.243509
   136  C    0.032852
   137  H    0.113704
   138  H    0.023074
   139  H    0.043579
   140  H    0.036272
   141  H   -0.002553
   142  N   -0.122321
   143  C    0.088810
   144  C    0.031087
   145  O   -0.248990
   146  C    0.040593
   147  H    0.112393
   148  H    0.018550
   149  H   -0.000761
   150  H    0.039135
   151  H    0.027833
   152  N   -0.146438
   153  C    0.171486
   154  C    0.037568
   155  O   -0.294507
   156  C   -0.078278
   157  C    0.114759
   158  C    0.169037
   159  O   -0.406128
   160  O   -0.435936
   161  H    0.104549
   162  H   -0.019323
   163  H    0.055342
   164  H    0.025113
   165  H   -0.013740
   166  H   -0.004049
   167  N   -0.151285
   168  C    0.136805
   169  H    0.020907
   170  H    0.032771
   171  H    0.003938
   172  H    0.136072
   173  Ca   1.300957
   174  O   -0.329073
   175  H    0.171863
   176  H    0.162348
 Sum of Mulliken charges =   0.00000

 Dipole moment (field-independent basis, Debye):
    X=             26.0954    Y=             12.6224    Z=            -11.7228  Tot=             31.2685
 Quadrupole moment (field-independent basis, Debye-Ang):
   XX=           -618.7617   YY=           -306.3177   ZZ=           -547.4905
   XY=            206.5905   XZ=            -60.6812   YZ=              8.6035

 ESP charges:
               1
     1  C   -0.443626
     2  C    0.826466
     3  O   -0.642602
     4  H    0.127929
     5  H    0.126657
     6  H    0.087119
     7  N   -0.745025
     8  C    0.316966
     9  C    0.443454
    10  O   -0.537674
    11  C   -0.168633
    12  C    0.706448
    13  O   -0.790101
    14  O   -0.682721
    15  H    0.364680
    16  H   -0.060076
    17  H    0.064293
    18  H    0.024606
    19  N   -0.194987
    20  C    0.043709
    21  C    0.353956
    22  O   -0.556738
    23  C   -0.258783
    24  C    0.210369
    25  C   -0.142726
    26  C    0.100521
    27  N   -0.589953
    28  H    0.225568
    29  H    0.093185
    30  H    0.059156
    31  H    0.093375
    32  H   -0.047712
    33  H    0.014482
    34  H    0.072155
    35  H    0.071700
    36  H    0.067682
    37  H    0.057703
    38  H    0.378962
    39  H    0.397258
    40  H    0.417409
    41  N   -0.260191
    42  C    0.210451
    43  C    0.429523
    44  O   -0.560282
    45  C   -0.438121
    46  C    0.814834
    47  O   -0.705265
    48  O   -0.701482
    49  H    0.153096
    50  H    0.052655
    51  H    0.081647
    52  H    0.127420
    53  N   -0.069870
    54  C   -0.470627
    55  C    0.777405
    56  O   -0.623626
    57  H    0.230173
    58  H    0.163865
    59  H    0.198705
    60  N   -0.478450
    61  C    0.048273
    62  C    0.379589
    63  O   -0.478110
    64  C   -0.268446
    65  C    0.778055
    66  N   -0.828723
    67  O   -0.643404
    68  H    0.225456
    69  H    0.114391
    70  H    0.137982
    71  H    0.091224
    72  H    0.373214
    73  H    0.371887
    74  N   -0.256621
    75  C   -0.207716
    76  C    0.589728
    77  O   -0.576966
    78  H    0.302291
    79  H    0.138700
    80  H    0.107916
    81  N   -0.333845
    82  C   -0.009918
    83  C    0.734978
    84  O   -0.637003
    85  C    0.135620
    86  C    0.191430
    87  C   -0.337719
    88  C   -0.373849
    89  C   -0.077011
    90  C   -0.072070
    91  C    0.205480
    92  O   -0.493300
    93  H    0.207619
    94  H    0.050726
    95  H   -0.025665
    96  H   -0.030543
    97  H    0.114122
    98  H    0.204890
    99  H    0.134523
   100  H    0.106746
   101  H    0.372132
   102  N   -0.756758
   103  C    0.310670
   104  C    0.509494
   105  O   -0.559612
   106  C   -0.080309
   107  C    0.121744
   108  C   -0.160413
   109  C   -0.419439
   110  H    0.349044
   111  H   -0.017243
   112  H    0.040518
   113  H    0.055400
   114  H    0.050002
   115  H    0.080856
   116  H    0.057910
   117  H   -0.091961
   118  H    0.076421
   119  H    0.115451
   120  H    0.116099
   121  N   -0.222109
   122  C   -0.101289
   123  C    0.595859
   124  O   -0.419802
   125  C    0.126738
   126  O   -0.519861
   127  H    0.069436
   128  H    0.087846
   129  H    0.028233
   130  H    0.042649
   131  H    0.388719
   132  N   -0.601685
   133  C    0.392750
   134  C    0.426424
   135  O   -0.514991
   136  C   -0.383446
   137  H    0.298940
   138  H    0.018847
   139  H    0.120444
   140  H    0.114299
   141  H    0.057632
   142  N   -0.403109
   143  C    0.190909
   144  C    0.395052
   145  O   -0.510683
   146  C   -0.346868
   147  H    0.290257
   148  H    0.060861
   149  H    0.056054
   150  H    0.129372
   151  H    0.101914
   152  N   -0.205803
   153  C   -0.131795
   154  C    0.493303
   155  O   -0.589921
   156  C   -0.022291
   157  C   -0.222761
   158  C    0.789624
   159  O   -0.724402
   160  O   -0.672143
   161  H    0.155229
   162  H    0.110785
   163  H    0.069968
   164  H    0.108354
   165  H    0.029775
   166  H    0.088813
   167  N    0.068897
   168  C   -0.225433
   169  H    0.083290
   170  H    0.107847
   171  H    0.053946
   172  H    0.031737
   173  Ca   1.623996
   174  O   -0.883021
   175  H    0.396442
   176  H    0.415925
 Sum of ESP charges =   0.00000

 Normal termination of Gaussian 09 at Mon Sep 16 17:21:35 2019.
