 Gaussian 16, Revision A.03,
 Gaussian 16:  ES64L-G16RevA.03 25-Dec-2016

 ----------------------------------------------------------------------
 #b3lyp/svp scf=(tight,noincore) Test #IOP(5/87=12) Density=Current Pop
 =(MK,readradii) iop(6/33=2) iop(6/42=6)
 ----------------------------------------------------------------------

 ------------------
 holoCaM_loop3_77.0
 ------------------
 Symbolic Z-matrix:
 Charge =  0 Multiplicity = 1

                         Standard orientation:
 ---------------------------------------------------------------------
 Center     Atomic      Atomic             Coordinates (Angstroms)
 Number     Number       Type             X           Y           Z
 ---------------------------------------------------------------------
      1          6           0        2.229048    3.633035    4.951372
      2          6           0        1.713845    2.903562    3.725430
      3          8           0        2.470790    2.428048    2.879545
      4          1           0        2.339736    4.693050    4.722903
      5          1           0        1.521940    3.510096    5.771529
      6          1           0        3.196269    3.221202    5.239645
      7          7           0        0.388389    2.780599    3.572304
      8          6           0       -0.218577    2.428346    2.299626
      9          6           0       -0.290449    3.657704    1.416668
     10          8           0       -1.067783    4.573560    1.677931
     11          6           0       -1.552585    1.764298    2.629569
     12          6           0       -2.261945    1.192314    1.404153
     13          8           0       -3.396618    0.682246    1.453640
     14          8           0       -1.770348    1.353882    0.268756
     15          1           0       -0.172923    3.231088    4.275005
     16          1           0        0.411140    1.728296    1.757052
     17          1           0       -2.127802    2.532223    3.157222
     18          1           0       -1.511908    0.964322    3.361336
     19          7           0        0.476287    3.665587    0.325772
     20          6           0        0.898166    4.823864   -0.444236
     21          6           0       -0.128536    5.185874   -1.495441
     22          8           0        0.123273    6.152129   -2.225402
     23          6           0        2.315786    4.726305   -1.004536
     24          6           0        3.366853    4.589090    0.099335
     25          6           0        3.496551    5.795497    1.021105
     26          6           0        4.125384    5.383339    2.354595
     27          7           0        4.359473    6.553567    3.211606
     28          1           0        0.849793    2.778348    0.039940
     29          1           0        0.932005    5.759015    0.113212
     30          1           0        2.551294    5.652674   -1.513040
     31          1           0        2.438451    3.881642   -1.684534
     32          1           0        4.359572    4.413666   -0.336481
     33          1           0        3.035749    3.733837    0.682698
     34          1           0        2.528489    6.289362    1.145815
     35          1           0        4.179003    6.434275    0.454869
     36          1           0        5.101503    4.986208    2.096179
     37          1           0        3.446589    4.651711    2.793295
     38          1           0        4.762987    7.335906    2.708494
     39          1           0        3.507865    7.028576    3.488247
     40          1           0        4.917850    6.286851    4.004372
     41          7           0       -1.257848    4.489458   -1.657486
     42          6           0       -2.450699    4.908968   -2.356998
     43          6           0       -3.725119    4.809440   -1.526789
     44          8           0       -4.794188    5.272621   -1.930715
     45          6           0       -2.603954    4.079811   -3.632502
     46          6           0       -2.571101    2.572485   -3.506453
     47          8           0       -3.080928    2.049779   -2.492079
     48          8           0       -1.925253    1.857599   -4.298866
     49          1           0       -1.266223    3.634736   -1.119359
     50          1           0       -2.386680    5.942760   -2.701636
     51          1           0       -1.775830    4.389835   -4.277480
     52          1           0       -3.507784    4.420687   -4.143377
     53          7           0       -3.621021    4.167496   -0.367232
     54          6           0       -4.691898    3.964825    0.583108
     55          6           0       -5.674572    2.907955    0.114518
     56          8           0       -6.819941    2.906510    0.582201
     57          1           0       -2.761274    3.844941    0.059257
     58          1           0       -5.223095    4.906939    0.757038
     59          1           0       -4.294075    3.687532    1.552255
     60          7           0       -5.371898    1.944913   -0.768170
     61          6           0       -6.378641    1.029248   -1.258707
     62          6           0       -6.777067    0.030962   -0.191289
     63          8           0       -7.888858   -0.474949   -0.354309
     64          6           0       -5.944849    0.316162   -2.536022
     65          6           0       -4.973453   -0.844361   -2.397186
     66          7           0       -5.391295   -2.002838   -2.926941
     67          8           0       -3.924812   -0.778527   -1.765824
     68          1           0       -4.446557    1.979019   -1.167144
     69          1           0       -7.261420    1.613033   -1.519278
     70          1           0       -5.389245    1.023529   -3.159749
     71          1           0       -6.829293   -0.063879   -3.045264
     72          1           0       -6.374467   -2.078874   -3.144406
     73          1           0       -4.711576   -2.727596   -3.090979
     74          7           0       -5.990412   -0.237091    0.852848
     75          6           0       -6.229277   -1.144849    1.963217
     76          6           0       -5.085344   -2.132718    2.116949
     77          8           0       -5.163971   -3.003414    2.989306
     78          1           0       -5.039339    0.091222    0.760272
     79          1           0       -7.116910   -1.723909    1.689730
     80          1           0       -6.198046   -0.549363    2.876081
     81          7           0       -3.971860   -2.080831    1.393652
     82          6           0       -2.944446   -3.113394    1.387615
     83          6           0       -1.595337   -2.496031    1.027798
     84          8           0       -1.492893   -1.676506    0.123595
     85          6           0       -3.366900   -4.187740    0.392672
     86          6           0       -4.769639   -4.735796    0.509960
     87          6           0       -5.762246   -4.169382   -0.297819
     88          6           0       -5.040555   -5.832012    1.349671
     89          6           0       -7.054372   -4.690483   -0.310677
     90          6           0       -6.343152   -6.342805    1.419178
     91          6           0       -7.294549   -5.764157    0.562902
     92          8           0       -8.508801   -6.369170    0.425968
     93          1           0       -3.898351   -1.273875    0.795724
     94          1           0       -2.906745   -3.601634    2.360446
     95          1           0       -2.698918   -5.052310    0.494744
     96          1           0       -3.269366   -3.721964   -0.590507
     97          1           0       -5.534696   -3.436749   -1.059902
     98          1           0       -4.242713   -6.052040    2.029845
     99          1           0       -7.760750   -4.316905   -1.037291
    100          1           0       -6.501427   -7.187817    2.083938
    101          1           0       -8.562754   -7.129730    1.004792
    102          7           0       -0.566267   -2.980880    1.709808
    103          6           0        0.827943   -2.581922    1.640449
    104          6           0        1.591796   -3.672188    0.905162
    105          8           0        1.545476   -4.829113    1.303884
    106          6           0        1.306861   -2.247651    3.047218
    107          6           0        0.731950   -0.953672    3.596488
    108          6           0        2.832922   -2.260826    3.179753
    109          6           0        1.175974   -0.553204    5.002677
    110          1           0       -0.726379   -3.675313    2.429549
    111          1           0        0.980123   -1.672945    1.056752
    112          1           0        0.963109   -3.051460    3.711164
    113          1           0       -0.317368   -1.222098    3.676362
    114          1           0        0.660902   -0.115048    2.896088
    115          1           0        3.113315   -3.304622    3.041297
    116          1           0        3.339803   -1.658815    2.428251
    117          1           0        3.117813   -2.098499    4.221572
    118          1           0        1.207567   -1.409885    5.671183
    119          1           0        2.173226   -0.139590    4.970859
    120          1           0        0.558613    0.257814    5.398169
    121          7           0        2.345889   -3.268629   -0.127593
    122          6           0        3.255996   -4.115703   -0.871079
    123          6           0        4.737214   -3.912334   -0.567379
    124          8           0        5.062631   -3.059887    0.249958
    125          6           0        3.119663   -3.692813   -2.333912
    126          8           0        3.555431   -2.371313   -2.551955
    127          1           0        2.344936   -2.292403   -0.374945
    128          1           0        3.040486   -5.167414   -0.698863
    129          1           0        2.094226   -3.692801   -2.708318
    130          1           0        3.668201   -4.403138   -2.958367
    131          1           0        2.852518   -1.808406   -2.223703
    132          7           0        5.670117   -4.682375   -1.131851
    133          6           0        7.089712   -4.442885   -0.929134
    134          6           0        7.557630   -3.029928   -1.263806
    135          8           0        8.505407   -2.435273   -0.760016
    136          6           0        7.960115   -5.402160   -1.744971
    137          1           0        5.380920   -5.459228   -1.707581
    138          1           0        7.319885   -4.675010    0.108959
    139          1           0        8.950987   -5.386586   -1.305278
    140          1           0        7.581255   -6.394470   -1.517184
    141          1           0        7.969842   -5.182786   -2.809246
    142          7           0        6.917228   -2.518681   -2.316142
    143          6           0        7.139974   -1.163682   -2.791283
    144          6           0        6.708960   -0.056210   -1.841003
    145          8           0        7.053463    1.118210   -1.975754
    146          6           0        6.576173   -0.974641   -4.191780
    147          1           0        6.333824   -3.160010   -2.827256
    148          1           0        8.212861   -1.040573   -2.943460
    149          1           0        5.524600   -1.241355   -4.125762
    150          1           0        6.627360    0.079999   -4.488453
    151          1           0        7.054134   -1.578449   -4.964806
    152          7           0        5.827744   -0.437074   -0.914666
    153          6           0        5.255078    0.439081    0.087834
    154          6           0        5.749224    0.325354    1.516185
    155          8           0        5.844920    1.342654    2.210838
    156          6           0        3.738014    0.309484    0.015591
    157          6           0        3.096492    0.845463   -1.250022
    158          6           0        1.622528    0.481018   -1.408803
    159          8           0        0.738239    1.348949   -1.561864
    160          8           0        1.392993   -0.748717   -1.400633
    161          1           0        5.580639   -1.416576   -0.944904
    162          1           0        5.466276    1.500685   -0.075241
    163          1           0        3.245020    0.839348    0.839668
    164          1           0        3.460605   -0.752000    0.037897
    165          1           0        3.637405    0.419203   -2.097969
    166          1           0        3.235714    1.920542   -1.406937
    167          7           0        6.337296   -0.839609    1.796242
    168          6           0        7.131216   -1.108686    2.976194
    169          1           0        6.898348   -0.372690    3.745868
    170          1           0        6.903034   -2.107922    3.348207
    171          1           0        8.190023   -1.047049    2.724173
    172          1           0        6.067564   -1.585364    1.185099
    173         20           0       -1.392140   -0.019431   -1.983193
    174          8           0        0.393206   -0.198570   -3.977446
    175          1           0        0.233285   -0.206530   -4.919498
    176          1           0        0.982986   -0.928619   -3.817165
 ---------------------------------------------------------------------

 SCF Done:  E(RB3LYP) =  -5333.58927788     A.U. after   18 cycles

 The electronic state is 1-A.
 Alpha  occ. eigenvalues -- -145.37963 -19.16584 -19.16101 -19.14267 -19.13822
 Alpha  occ. eigenvalues --  -19.12364 -19.11835 -19.11434 -19.11318 -19.10742
 Alpha  occ. eigenvalues --  -19.10293 -19.09833 -19.09264 -19.08562 -19.08209
 Alpha  occ. eigenvalues --  -19.06286 -19.04633 -19.04366 -19.04205 -19.03663
 Alpha  occ. eigenvalues --  -19.03416 -19.03050 -19.02714 -19.02462 -15.43675
 Alpha  occ. eigenvalues --  -14.57553 -14.40424 -14.37791 -14.37098 -14.36944
 Alpha  occ. eigenvalues --  -14.36787 -14.36289 -14.34939 -14.34443 -14.33690
 Alpha  occ. eigenvalues --  -14.32252 -14.31074 -14.30407 -14.29298 -14.28154
 Alpha  occ. eigenvalues --  -12.57297 -12.57262 -12.57230 -10.32668 -10.32616
 Alpha  occ. eigenvalues --  -10.31335 -10.30031 -10.29980 -10.29622 -10.29280
 Alpha  occ. eigenvalues --  -10.28257 -10.28184 -10.27550 -10.27156 -10.26680
 Alpha  occ. eigenvalues --  -10.26618 -10.26533 -10.25678 -10.25564 -10.24115
 Alpha  occ. eigenvalues --  -10.23803 -10.23759 -10.23684 -10.23634 -10.23588
 Alpha  occ. eigenvalues --  -10.23524 -10.23248 -10.23190 -10.22630 -10.22517
 Alpha  occ. eigenvalues --  -10.22388 -10.22198 -10.21993 -10.21753 -10.21531
 Alpha  occ. eigenvalues --  -10.21320 -10.19975 -10.19943 -10.19482 -10.19443
 Alpha  occ. eigenvalues --  -10.19208 -10.18706 -10.18629 -10.18276 -10.18133
 Alpha  occ. eigenvalues --  -10.18116 -10.18009 -10.17976 -10.17794 -10.17791
 Alpha  occ. eigenvalues --  -10.17442 -10.17439 -10.17210 -10.16844 -10.16676
 Alpha  occ. eigenvalues --  -10.16632 -10.14024  -1.80381  -1.12757  -1.08067
 Alpha  occ. eigenvalues --   -1.08014  -1.07721  -1.07629  -1.05470  -1.05077
 Alpha  occ. eigenvalues --   -1.04645  -1.04395  -1.04150  -1.03877  -1.03523
 Alpha  occ. eigenvalues --   -1.02904  -1.02792  -1.02742  -1.01556  -1.00487
 Alpha  occ. eigenvalues --   -0.99516  -0.99138  -0.98363  -0.98273  -0.97471
 Alpha  occ. eigenvalues --   -0.96953  -0.96902  -0.95496  -0.94564  -0.94212
 Alpha  occ. eigenvalues --   -0.94085  -0.93828  -0.93644  -0.92273  -0.91606
 Alpha  occ. eigenvalues --   -0.91301  -0.89882  -0.89174  -0.88557  -0.87851
 Alpha  occ. eigenvalues --   -0.87503  -0.87236  -0.86823  -0.86487  -0.85029
 Alpha  occ. eigenvalues --   -0.82868  -0.82788  -0.82083  -0.80896  -0.79821
 Alpha  occ. eigenvalues --   -0.79544  -0.78826  -0.77388  -0.77045  -0.76193
 Alpha  occ. eigenvalues --   -0.75278  -0.75182  -0.74728  -0.74209  -0.73003
 Alpha  occ. eigenvalues --   -0.72841  -0.72540  -0.71890  -0.70314  -0.69808
 Alpha  occ. eigenvalues --   -0.69294  -0.69034  -0.68938  -0.68254  -0.68228
 Alpha  occ. eigenvalues --   -0.67520  -0.65985  -0.65966  -0.64889  -0.64529
 Alpha  occ. eigenvalues --   -0.64304  -0.63069  -0.62318  -0.61958  -0.61653
 Alpha  occ. eigenvalues --   -0.61493  -0.60758  -0.60645  -0.60386  -0.60234
 Alpha  occ. eigenvalues --   -0.59276  -0.59074  -0.58753  -0.58586  -0.57749
 Alpha  occ. eigenvalues --   -0.57073  -0.56709  -0.56577  -0.56232  -0.56217
 Alpha  occ. eigenvalues --   -0.55896  -0.55728  -0.55458  -0.55311  -0.55128
 Alpha  occ. eigenvalues --   -0.55058  -0.54751  -0.54570  -0.53855  -0.53021
 Alpha  occ. eigenvalues --   -0.52885  -0.52603  -0.52467  -0.52248  -0.51648
 Alpha  occ. eigenvalues --   -0.51349  -0.51162  -0.50796  -0.50368  -0.50176
 Alpha  occ. eigenvalues --   -0.49870  -0.49774  -0.49219  -0.49000  -0.48845
 Alpha  occ. eigenvalues --   -0.48674  -0.48659  -0.48444  -0.47995  -0.47771
 Alpha  occ. eigenvalues --   -0.47713  -0.47625  -0.47519  -0.47187  -0.46827
 Alpha  occ. eigenvalues --   -0.46427  -0.46332  -0.46101  -0.45535  -0.45455
 Alpha  occ. eigenvalues --   -0.45162  -0.45066  -0.44946  -0.44801  -0.44685
 Alpha  occ. eigenvalues --   -0.44566  -0.44261  -0.44070  -0.44032  -0.43969
 Alpha  occ. eigenvalues --   -0.43770  -0.43698  -0.43478  -0.43403  -0.43271
 Alpha  occ. eigenvalues --   -0.43114  -0.42924  -0.42796  -0.42699  -0.42575
 Alpha  occ. eigenvalues --   -0.42358  -0.42210  -0.42172  -0.42091  -0.41936
 Alpha  occ. eigenvalues --   -0.41869  -0.41776  -0.41435  -0.41191  -0.41022
 Alpha  occ. eigenvalues --   -0.40980  -0.40780  -0.40655  -0.40469  -0.40250
 Alpha  occ. eigenvalues --   -0.40149  -0.39966  -0.39723  -0.39512  -0.39452
 Alpha  occ. eigenvalues --   -0.39247  -0.39006  -0.38936  -0.38899  -0.38785
 Alpha  occ. eigenvalues --   -0.38675  -0.38507  -0.38431  -0.38346  -0.38277
 Alpha  occ. eigenvalues --   -0.37987  -0.37893  -0.37723  -0.37693  -0.37518
 Alpha  occ. eigenvalues --   -0.37285  -0.37197  -0.37001  -0.36827  -0.36731
 Alpha  occ. eigenvalues --   -0.36585  -0.36212  -0.35850  -0.35659  -0.35520
 Alpha  occ. eigenvalues --   -0.35238  -0.35044  -0.34765  -0.34676  -0.34535
 Alpha  occ. eigenvalues --   -0.34425  -0.34362  -0.33904  -0.33708  -0.33617
 Alpha  occ. eigenvalues --   -0.33335  -0.33298  -0.33227  -0.32992  -0.32885
 Alpha  occ. eigenvalues --   -0.32800  -0.32296  -0.31883  -0.31494  -0.31280
 Alpha  occ. eigenvalues --   -0.31244  -0.31117  -0.30925  -0.30760  -0.29884
 Alpha  occ. eigenvalues --   -0.29863  -0.29601  -0.28831  -0.28723  -0.28567
 Alpha  occ. eigenvalues --   -0.28350  -0.27974  -0.27620  -0.27377  -0.27111
 Alpha  occ. eigenvalues --   -0.26972  -0.26907  -0.26731  -0.26608  -0.25992
 Alpha  occ. eigenvalues --   -0.25771  -0.25108  -0.24320  -0.24235  -0.24189
 Alpha  occ. eigenvalues --   -0.23799  -0.23116  -0.23049  -0.22573  -0.22320
 Alpha  occ. eigenvalues --   -0.22228  -0.21980  -0.21601  -0.21137  -0.20950
 Alpha  occ. eigenvalues --   -0.20739  -0.19943  -0.19505  -0.19235  -0.18699
 Alpha  occ. eigenvalues --   -0.18359  -0.18124  -0.17941
 Alpha virt. eigenvalues --   -0.09931  -0.04026  -0.03196  -0.02859  -0.01927
 Alpha virt. eigenvalues --   -0.01567  -0.00238  -0.00061   0.00042   0.00197
 Alpha virt. eigenvalues --    0.00379   0.00652   0.00989   0.01149   0.01979

 Mulliken charges:
               1
     1  C    0.055793
     2  C    0.026244
     3  O   -0.279639
     4  H   -0.014594
     5  H    0.033868
     6  H    0.050242
     7  N   -0.118437
     8  C    0.131992
     9  C    0.030904
    10  O   -0.287373
    11  C    0.050127
    12  C    0.137178
    13  O   -0.371688
    14  O   -0.442963
    15  H    0.115562
    16  H    0.010548
    17  H    0.006435
    18  H    0.011958
    19  N   -0.144367
    20  C    0.133248
    21  C    0.042751
    22  O   -0.312232
    23  C    0.065618
    24  C   -0.015207
    25  C   -0.082305
    26  C    0.023849
    27  N    0.088663
    28  H    0.165995
    29  H    0.002485
    30  H    0.003780
    31  H    0.030560
    32  H    0.032762
    33  H    0.035742
    34  H    0.022565
    35  H    0.018573
    36  H    0.083422
    37  H    0.090980
    38  H    0.178065
    39  H    0.181942
    40  H    0.196922
    41  N   -0.118022
    42  C    0.119679
    43  C    0.075911
    44  O   -0.283176
    45  C    0.095518
    46  C    0.083305
    47  O   -0.433837
    48  O   -0.391808
    49  H    0.152704
    50  H    0.016585
    51  H    0.000089
    52  H    0.017245
    53  N   -0.161411
    54  C    0.232731
    55  C    0.037082
    56  O   -0.317754
    57  H    0.137017
    58  H    0.013478
    59  H    0.021275
    60  N   -0.155126
    61  C    0.147429
    62  C    0.026039
    63  O   -0.306833
    64  C    0.110024
    65  C    0.042543
    66  N   -0.049283
    67  O   -0.330439
    68  H    0.153181
    69  H    0.022659
    70  H    0.057185
    71  H   -0.002966
    72  H    0.146551
    73  H    0.131369
    74  N   -0.193133
    75  C    0.324763
    76  C   -0.030462
    77  O   -0.326654
    78  H    0.156818
    79  H    0.045365
    80  H    0.029577
    81  N   -0.135663
    82  C    0.117580
    83  C    0.147182
    84  O   -0.343933
    85  C    0.155271
    86  C   -0.014712
    87  C   -0.011711
    88  C    0.022486
    89  C    0.002333
    90  C   -0.027304
    91  C    0.176053
    92  O   -0.203495
    93  H    0.141906
    94  H   -0.014484
    95  H   -0.017431
    96  H   -0.042254
    97  H   -0.083260
    98  H   -0.038816
    99  H   -0.028996
   100  H   -0.036501
   101  H    0.162276
   102  N   -0.106799
   103  C    0.150519
   104  C    0.068053
   105  O   -0.279459
   106  C   -0.133979
   107  C    0.025280
   108  C    0.079712
   109  C    0.042872
   110  H    0.134286
   111  H    0.009583
   112  H   -0.019969
   113  H   -0.009579
   114  H    0.005719
   115  H    0.003396
   116  H    0.022676
   117  H    0.000971
   118  H    0.007510
   119  H    0.012710
   120  H   -0.008128
   121  N   -0.138164
   122  C    0.098980
   123  C    0.103723
   124  O   -0.284706
   125  C    0.225093
   126  O   -0.337735
   127  H    0.152491
   128  H    0.028971
   129  H    0.005475
   130  H   -0.013968
   131  H    0.172129
   132  N   -0.126124
   133  C    0.059943
   134  C    0.050902
   135  O   -0.245977
   136  C    0.058699
   137  H    0.121712
   138  H    0.019897
   139  H    0.044113
   140  H    0.017933
   141  H    0.021695
   142  N   -0.163152
   143  C    0.122390
   144  C    0.064157
   145  O   -0.282943
   146  C    0.019748
   147  H    0.111305
   148  H    0.020663
   149  H    0.008679
   150  H    0.037309
   151  H    0.015601
   152  N   -0.157302
   153  C    0.130976
   154  C    0.079016
   155  O   -0.307269
   156  C   -0.023454
   157  C    0.073690
   158  C    0.175655
   159  O   -0.398031
   160  O   -0.452329
   161  H    0.152147
   162  H    0.007145
   163  H    0.034320
   164  H   -0.032915
   165  H   -0.000011
   166  H   -0.026723
   167  N   -0.160961
   168  C    0.136026
   169  H    0.023958
   170  H    0.014125
   171  H    0.030326
   172  H    0.125515
   173  Ca   1.294730
   174  O   -0.260923
   175  H    0.182099
   176  H    0.154265
 Sum of Mulliken charges =  -0.00000

 Dipole moment (field-independent basis, Debye):
    X=             29.0029    Y=             -0.2092    Z=              8.0555  Tot=             30.1015
 Quadrupole moment (field-independent basis, Debye-Ang):
   XX=           -669.0137   YY=           -420.2696   ZZ=           -492.6136
   XY=            103.4792   XZ=             50.9390   YZ=            148.8353

 ESP charges:
               1
     1  C   -0.550853
     2  C    0.971027
     3  O   -0.691106
     4  H    0.112111
     5  H    0.139651
     6  H    0.153546
     7  N   -0.816488
     8  C    0.725864
     9  C    0.105941
    10  O   -0.504485
    11  C   -0.436469
    12  C    0.858135
    13  O   -0.652425
    14  O   -0.851473
    15  H    0.338280
    16  H   -0.070946
    17  H    0.106018
    18  H    0.095141
    19  N    0.111527
    20  C   -0.123194
    21  C    0.515854
    22  O   -0.563994
    23  C   -0.118012
    24  C    0.200140
    25  C   -0.189054
    26  C    0.288065
    27  N   -0.485396
    28  H    0.200846
    29  H    0.090597
    30  H    0.058694
    31  H    0.057738
    32  H    0.017045
    33  H   -0.120437
    34  H    0.056747
    35  H    0.037251
    36  H    0.064596
    37  H   -0.042635
    38  H    0.329922
    39  H    0.341084
    40  H    0.359967
    41  N   -0.351157
    42  C    0.235711
    43  C    0.238092
    44  O   -0.496103
    45  C   -0.241105
    46  C    0.783881
    47  O   -0.750156
    48  O   -0.730287
    49  H    0.153036
    50  H    0.065026
    51  H    0.059479
    52  H    0.067447
    53  N    0.049640
    54  C   -0.168019
    55  C    0.505955
    56  O   -0.586859
    57  H   -0.003895
    58  H    0.096571
    59  H    0.117199
    60  N   -0.326566
    61  C    0.127846
    62  C    0.405840
    63  O   -0.582050
    64  C   -0.362003
    65  C    0.661485
    66  N   -0.832693
    67  O   -0.544261
    68  H    0.313651
    69  H    0.104131
    70  H    0.142882
    71  H    0.094984
    72  H    0.404799
    73  H    0.381183
    74  N    0.164336
    75  C   -0.496113
    76  C    0.869138
    77  O   -0.614577
    78  H   -0.029101
    79  H    0.185010
    80  H    0.154236
    81  N   -0.761236
    82  C    0.345261
    83  C    0.659638
    84  O   -0.585762
    85  C   -0.224456
    86  C    0.161994
    87  C   -0.299440
    88  C   -0.223026
    89  C   -0.178099
    90  C   -0.246439
    91  C    0.355475
    92  O   -0.556754
    93  H    0.342167
    94  H    0.013471
    95  H    0.037156
    96  H    0.032611
    97  H    0.177494
    98  H    0.167444
    99  H    0.156836
   100  H    0.137361
   101  H    0.396540
   102  N   -0.701862
   103  C    0.137943
   104  C    0.605492
   105  O   -0.561244
   106  C    0.001744
   107  C    0.306447
   108  C   -0.113312
   109  C   -0.368585
   110  H    0.335016
   111  H    0.071180
   112  H    0.019211
   113  H   -0.056642
   114  H   -0.034470
   115  H    0.043352
   116  H   -0.082822
   117  H    0.054546
   118  H    0.086667
   119  H    0.076066
   120  H    0.070190
   121  N   -0.240232
   122  C   -0.047100
   123  C    0.577960
   124  O   -0.415172
   125  C    0.019126
   126  O   -0.427998
   127  H    0.015021
   128  H    0.089526
   129  H    0.062858
   130  H    0.050715
   131  H    0.357690
   132  N   -0.515950
   133  C    0.241344
   134  C    0.356505
   135  O   -0.491549
   136  C   -0.261737
   137  H    0.304163
   138  H    0.053739
   139  H    0.109244
   140  H    0.071690
   141  H    0.062978
   142  N   -0.201823
   143  C   -0.012572
   144  C    0.480089
   145  O   -0.546789
   146  C   -0.210491
   147  H    0.271655
   148  H    0.103782
   149  H    0.037249
   150  H    0.100070
   151  H    0.066433
   152  N    0.149496
   153  C   -0.278539
   154  C    0.638994
   155  O   -0.604811
   156  C    0.332361
   157  C   -0.279949
   158  C    0.591207
   159  O   -0.577320
   160  O   -0.569600
   161  H   -0.497855
   162  H    0.098519
   163  H    0.016908
   164  H   -0.062537
   165  H    0.113169
   166  H    0.041880
   167  N   -0.223295
   168  C   -0.170835
   169  H    0.084985
   170  H    0.070833
   171  H    0.085659
   172  H    0.284777
   173  Ca   1.494676
   174  O   -0.737006
   175  H    0.422794
   176  H    0.332475
 Sum of ESP charges =  -0.00000

 Normal termination of Gaussian 16 at Sat Sep 14 22:40:19 2019.
