 Gaussian 16, Revision A.03,
 Gaussian 16:  ES64L-G16RevA.03 25-Dec-2016

 ----------------------------------------------------------------------
 #b3lyp/svp scf=(tight,noincore) Test #IOP(5/87=12) Density=Current Pop
 =(MK,readradii) iop(6/33=2) iop(6/42=6)
 ----------------------------------------------------------------------

 ------------------
 holoCaM_loop3_32.0
 ------------------
 Symbolic Z-matrix:
 Charge =  0 Multiplicity = 1

                         Standard orientation:
 ---------------------------------------------------------------------
 Center     Atomic      Atomic             Coordinates (Angstroms)
 Number     Number       Type             X           Y           Z
 ---------------------------------------------------------------------
      1          6           0        2.364296    1.551763    5.898755
      2          6           0        1.646036    1.456225    4.554592
      3          8           0        2.353141    1.129190    3.603933
      4          1           0        3.170875    2.281752    5.828366
      5          1           0        1.657293    1.865024    6.667273
      6          1           0        2.778551    0.577609    6.159926
      7          7           0        0.343509    1.746640    4.459817
      8          6           0       -0.333022    1.846557    3.180120
      9          6           0       -0.193738    3.239446    2.564930
     10          8           0       -0.773807    4.166283    3.111732
     11          6           0       -1.787814    1.401617    3.190556
     12          6           0       -2.451430    1.482653    1.823242
     13          8           0       -1.790992    1.893443    0.843665
     14          8           0       -3.649766    1.142404    1.725652
     15          1           0       -0.183200    1.679592    5.314266
     16          1           0        0.166206    1.176742    2.484980
     17          1           0       -2.419655    1.997760    3.866048
     18          1           0       -1.862122    0.346861    3.458263
     19          7           0        0.606872    3.283228    1.501348
     20          6           0        1.045424    4.549752    0.948367
     21          6           0       -0.049047    5.330212    0.222824
     22          8           0       -0.206683    6.470049    0.657016
     23          6           0        2.294236    4.321686    0.113289
     24          6           0        3.039480    5.523399   -0.464980
     25          6           0        4.485913    5.077941   -0.699071
     26          6           0        5.380928    6.199048   -1.227623
     27          7           0        6.726892    5.805470   -1.670315
     28          1           0        1.051975    2.461311    1.120907
     29          1           0        1.332254    5.073985    1.861499
     30          1           0        2.067396    3.736869   -0.779086
     31          1           0        2.951476    3.699285    0.718643
     32          1           0        3.063315    6.440431    0.119301
     33          1           0        2.517083    5.658201   -1.404198
     34          1           0        4.408282    4.289253   -1.442203
     35          1           0        4.864159    4.751740    0.271560
     36          1           0        5.363693    6.970027   -0.454711
     37          1           0        4.911656    6.622101   -2.114985
     38          1           0        6.677378    4.927591   -2.172088
     39          1           0        7.179993    6.509826   -2.239247
     40          1           0        7.384533    5.639151   -0.920084
     41          7           0       -0.674409    4.700935   -0.770067
     42          6           0       -1.750478    5.250287   -1.577772
     43          6           0       -3.141903    5.081112   -1.003387
     44          8           0       -4.063280    5.656824   -1.564565
     45          6           0       -1.656434    4.650823   -2.977807
     46          6           0       -2.226701    3.248341   -3.163655
     47          8           0       -2.175880    2.464657   -2.191772
     48          8           0       -2.651885    2.958677   -4.307514
     49          1           0       -0.279555    3.832020   -1.113547
     50          1           0       -1.623195    6.328322   -1.689749
     51          1           0       -0.607425    4.788723   -3.251237
     52          1           0       -2.255597    5.263610   -3.648998
     53          7           0       -3.385566    4.350494    0.092845
     54          6           0       -4.663193    4.364224    0.775839
     55          6           0       -5.622058    3.352339    0.155221
     56          8           0       -6.815064    3.551596    0.345043
     57          1           0       -2.619861    3.945740    0.605650
     58          1           0       -5.098488    5.346770    0.594674
     59          1           0       -4.456010    4.310899    1.847349
     60          7           0       -5.233752    2.321958   -0.597264
     61          6           0       -6.116144    1.380016   -1.268479
     62          6           0       -6.588911    0.216393   -0.417437
     63          8           0       -7.184818   -0.761020   -0.868724
     64          6           0       -5.557811    0.997438   -2.635409
     65          6           0       -4.470413   -0.077209   -2.550571
     66          7           0       -4.273725   -0.922620   -3.558338
     67          8           0       -3.808956   -0.166594   -1.524176
     68          1           0       -4.247357    2.183174   -0.774645
     69          1           0       -6.985665    1.996059   -1.486022
     70          1           0       -5.301155    1.861269   -3.255106
     71          1           0       -6.381318    0.515588   -3.174534
     72          1           0       -4.851738   -1.077741   -4.373653
     73          1           0       -3.440979   -1.481277   -3.490976
     74          7           0       -6.170882    0.277865    0.856719
     75          6           0       -6.572955   -0.761701    1.788460
     76          6           0       -5.718930   -2.016252    1.781798
     77          8           0       -6.167209   -3.090486    2.162936
     78          1           0       -5.539803    1.049225    1.028891
     79          1           0       -7.569064   -1.183748    1.604767
     80          1           0       -6.695649   -0.314017    2.775285
     81          7           0       -4.488407   -1.870572    1.261807
     82          6           0       -3.456725   -2.874156    1.161049
     83          6           0       -2.076618   -2.226769    1.200981
     84          8           0       -1.825604   -1.128560    0.722829
     85          6           0       -3.625178   -3.668223   -0.139866
     86          6           0       -4.928378   -4.349749   -0.448721
     87          6           0       -5.670270   -3.989717   -1.570405
     88          6           0       -5.379036   -5.414809    0.346675
     89          6           0       -6.887804   -4.615647   -1.892311
     90          6           0       -6.520647   -6.141144   -0.034852
     91          6           0       -7.326518   -5.681146   -1.089353
     92          8           0       -8.497511   -6.302626   -1.431609
     93          1           0       -4.242216   -0.953191    0.939470
     94          1           0       -3.593274   -3.631808    1.941061
     95          1           0       -2.868343   -4.460682   -0.164561
     96          1           0       -3.431653   -2.973757   -0.960636
     97          1           0       -5.284152   -3.235080   -2.242220
     98          1           0       -4.819977   -5.749634    1.203148
     99          1           0       -7.585395   -4.193518   -2.604261
    100          1           0       -6.840996   -7.010479    0.526426
    101          1           0       -8.864127   -6.947676   -0.823906
    102          7           0       -1.119534   -3.054685    1.611766
    103          6           0        0.324689   -2.877706    1.562788
    104          6           0        0.875164   -3.768463    0.469705
    105          8           0        0.577253   -4.964827    0.421106
    106          6           0        1.033613   -3.211667    2.870303
    107          6           0        0.561253   -2.267090    3.962160
    108          6           0        2.544837   -3.023802    2.755809
    109          6           0        0.972124   -2.697393    5.377760
    110          1           0       -1.433397   -3.985272    1.855072
    111          1           0        0.439782   -1.858550    1.188924
    112          1           0        0.765460   -4.226222    3.155561
    113          1           0       -0.529326   -2.227222    4.007400
    114          1           0        0.941954   -1.256383    3.908890
    115          1           0        2.889079   -3.722754    1.999593
    116          1           0        2.695758   -2.005963    2.404629
    117          1           0        3.051719   -3.152240    3.719901
    118          1           0        0.470559   -2.051401    6.101658
    119          1           0        0.700556   -3.751716    5.494178
    120          1           0        2.041133   -2.618394    5.505741
    121          7           0        1.732869   -3.249856   -0.418432
    122          6           0        2.587137   -3.933597   -1.370968
    123          6           0        4.065911   -3.826981   -1.002507
    124          8           0        4.474939   -2.968482   -0.223293
    125          6           0        2.367225   -3.318751   -2.746832
    126          8           0        2.591009   -1.928465   -2.741818
    127          1           0        1.857532   -2.245505   -0.424752
    128          1           0        2.298005   -4.979059   -1.332093
    129          1           0        1.391177   -3.639737   -3.088589
    130          1           0        3.032707   -3.806854   -3.469182
    131          1           0        1.958353   -1.491364   -2.166850
    132          7           0        4.887745   -4.662595   -1.634913
    133          6           0        6.301587   -4.663527   -1.315619
    134          6           0        6.985001   -3.306417   -1.377237
    135          8           0        7.791448   -3.007735   -0.504407
    136          6           0        6.949651   -5.692086   -2.240217
    137          1           0        4.597870   -5.335306   -2.327035
    138          1           0        6.425719   -5.094137   -0.319995
    139          1           0        6.360985   -6.599877   -2.355052
    140          1           0        7.124796   -5.279591   -3.233481
    141          1           0        7.897814   -5.989796   -1.797774
    142          7           0        6.782491   -2.499407   -2.425581
    143          6           0        7.399880   -1.195166   -2.571137
    144          6           0        7.120394   -0.272348   -1.401652
    145          8           0        7.874181    0.617708   -1.006424
    146          6           0        6.862833   -0.556124   -3.841454
    147          1           0        6.134314   -2.801196   -3.138595
    148          1           0        8.483331   -1.293808   -2.714330
    149          1           0        6.922496   -1.247035   -4.676728
    150          1           0        5.825637   -0.347561   -3.593009
    151          1           0        7.343626    0.403162   -4.016122
    152          7           0        5.963304   -0.520104   -0.765523
    153          6           0        5.545854    0.302618    0.351556
    154          6           0        6.039923   -0.167926    1.712763
    155          8           0        6.367400    0.691150    2.541465
    156          6           0        4.015691    0.260222    0.425062
    157          6           0        3.401353    0.825612   -0.846481
    158          6           0        1.886292    0.654977   -0.791049
    159          8           0        1.297606   -0.445773   -0.731910
    160          8           0        1.133979    1.649025   -0.682442
    161          1           0        5.461682   -1.377116   -0.935538
    162          1           0        5.943448    1.302144    0.231281
    163          1           0        3.599380    0.971725    1.137136
    164          1           0        3.650358   -0.758239    0.546183
    165          1           0        3.826466    0.302637   -1.693757
    166          1           0        3.600293    1.901012   -0.913090
    167          7           0        6.325031   -1.455324    1.862160
    168          6           0        7.034106   -1.943228    3.028248
    169          1           0        7.911592   -1.321649    3.205900
    170          1           0        6.377994   -1.900526    3.897725
    171          1           0        7.347833   -2.973216    2.859092
    172          1           0        6.087203   -1.987520    1.029871
    173         20           0       -1.071983    0.543047   -1.124191
    174          8           0       -0.111155    0.592330   -3.564618
    175          1           0       -0.437829   -0.060621   -4.184246
    176          1           0        0.569550    1.064706   -4.056859
 ---------------------------------------------------------------------

 SCF Done:  E(RB3LYP) =  -5333.59564022     A.U. after   20 cycles

 The electronic state is 1-A.
 Alpha  occ. eigenvalues -- -145.36695 -19.19297 -19.16142 -19.15509 -19.13236
 Alpha  occ. eigenvalues --  -19.12961 -19.12447 -19.12258 -19.11366 -19.10742
 Alpha  occ. eigenvalues --  -19.10575 -19.10268 -19.07624 -19.07167 -19.06165
 Alpha  occ. eigenvalues --  -19.05926 -19.04891 -19.04635 -19.03656 -19.03579
 Alpha  occ. eigenvalues --  -19.03279 -19.02658 -19.02031 -19.01149 -15.42504
 Alpha  occ. eigenvalues --  -14.59357 -14.41076 -14.39699 -14.36794 -14.36217
 Alpha  occ. eigenvalues --  -14.36064 -14.35957 -14.34040 -14.33602 -14.32433
 Alpha  occ. eigenvalues --  -14.31313 -14.30546 -14.29236 -14.29099 -14.28609
 Alpha  occ. eigenvalues --  -12.56116 -12.56072 -12.56053 -10.35135 -10.33354
 Alpha  occ. eigenvalues --  -10.32054 -10.30580 -10.30246 -10.29988 -10.29249
 Alpha  occ. eigenvalues --  -10.28819 -10.27680 -10.27543 -10.27310 -10.26690
 Alpha  occ. eigenvalues --  -10.26595 -10.26398 -10.25848 -10.24874 -10.24164
 Alpha  occ. eigenvalues --  -10.23809 -10.23680 -10.23574 -10.23163 -10.22979
 Alpha  occ. eigenvalues --  -10.22972 -10.22863 -10.22708 -10.22350 -10.22140
 Alpha  occ. eigenvalues --  -10.22091 -10.21984 -10.21895 -10.21030 -10.20475
 Alpha  occ. eigenvalues --  -10.20255 -10.19970 -10.19598 -10.19444 -10.19363
 Alpha  occ. eigenvalues --  -10.18900 -10.18873 -10.17907 -10.17833 -10.17665
 Alpha  occ. eigenvalues --  -10.17521 -10.17245 -10.17132 -10.17099 -10.16876
 Alpha  occ. eigenvalues --  -10.16428 -10.16186 -10.16116 -10.16029 -10.15502
 Alpha  occ. eigenvalues --  -10.15106 -10.14242  -1.79571  -1.14317  -1.08749
 Alpha  occ. eigenvalues --   -1.08594  -1.07289  -1.07106  -1.06463  -1.05936
 Alpha  occ. eigenvalues --   -1.05179  -1.04862  -1.04587  -1.04006  -1.03312
 Alpha  occ. eigenvalues --   -1.03272  -1.01477  -1.00693  -1.00070  -0.99326
 Alpha  occ. eigenvalues --   -0.98404  -0.98095  -0.98071  -0.97662  -0.97337
 Alpha  occ. eigenvalues --   -0.97048  -0.96538  -0.96321  -0.96117  -0.95752
 Alpha  occ. eigenvalues --   -0.93854  -0.93169  -0.93044  -0.90540  -0.90229
 Alpha  occ. eigenvalues --   -0.89966  -0.89573  -0.89138  -0.88733  -0.88648
 Alpha  occ. eigenvalues --   -0.87766  -0.87019  -0.86923  -0.85479  -0.84719
 Alpha  occ. eigenvalues --   -0.83636  -0.82387  -0.81913  -0.81608  -0.81432
 Alpha  occ. eigenvalues --   -0.80198  -0.78782  -0.76834  -0.76176  -0.74719
 Alpha  occ. eigenvalues --   -0.74567  -0.74425  -0.73987  -0.73919  -0.72891
 Alpha  occ. eigenvalues --   -0.72126  -0.71689  -0.71090  -0.70829  -0.70677
 Alpha  occ. eigenvalues --   -0.70209  -0.69460  -0.68861  -0.68320  -0.67430
 Alpha  occ. eigenvalues --   -0.67389  -0.67083  -0.66026  -0.64195  -0.63753
 Alpha  occ. eigenvalues --   -0.63485  -0.63379  -0.62766  -0.62697  -0.62145
 Alpha  occ. eigenvalues --   -0.61971  -0.60907  -0.60757  -0.60246  -0.59740
 Alpha  occ. eigenvalues --   -0.59257  -0.59122  -0.58448  -0.58421  -0.57865
 Alpha  occ. eigenvalues --   -0.57322  -0.57082  -0.56992  -0.56662  -0.56340
 Alpha  occ. eigenvalues --   -0.56287  -0.55845  -0.55762  -0.55287  -0.54731
 Alpha  occ. eigenvalues --   -0.54547  -0.54439  -0.54138  -0.53956  -0.52708
 Alpha  occ. eigenvalues --   -0.52386  -0.52168  -0.52111  -0.52052  -0.51962
 Alpha  occ. eigenvalues --   -0.51230  -0.50957  -0.50434  -0.50283  -0.49867
 Alpha  occ. eigenvalues --   -0.49830  -0.49576  -0.49214  -0.49016  -0.48837
 Alpha  occ. eigenvalues --   -0.48505  -0.48283  -0.47973  -0.47610  -0.47419
 Alpha  occ. eigenvalues --   -0.47258  -0.46977  -0.46939  -0.46784  -0.46698
 Alpha  occ. eigenvalues --   -0.46356  -0.46258  -0.46118  -0.46063  -0.45852
 Alpha  occ. eigenvalues --   -0.45586  -0.45377  -0.45048  -0.44769  -0.44598
 Alpha  occ. eigenvalues --   -0.44480  -0.44408  -0.44168  -0.44001  -0.43846
 Alpha  occ. eigenvalues --   -0.43781  -0.43613  -0.43506  -0.43363  -0.43244
 Alpha  occ. eigenvalues --   -0.43151  -0.43028  -0.42935  -0.42664  -0.42442
 Alpha  occ. eigenvalues --   -0.42137  -0.42022  -0.41965  -0.41851  -0.41570
 Alpha  occ. eigenvalues --   -0.41396  -0.41173  -0.41053  -0.40905  -0.40732
 Alpha  occ. eigenvalues --   -0.40426  -0.40331  -0.40266  -0.40170  -0.39937
 Alpha  occ. eigenvalues --   -0.39564  -0.39512  -0.39422  -0.39340  -0.39000
 Alpha  occ. eigenvalues --   -0.38895  -0.38856  -0.38671  -0.38537  -0.38431
 Alpha  occ. eigenvalues --   -0.38330  -0.38034  -0.37906  -0.37839  -0.37741
 Alpha  occ. eigenvalues --   -0.37477  -0.37316  -0.37212  -0.36975  -0.36820
 Alpha  occ. eigenvalues --   -0.36792  -0.36673  -0.36507  -0.36455  -0.36357
 Alpha  occ. eigenvalues --   -0.36168  -0.35757  -0.35642  -0.35474  -0.35328
 Alpha  occ. eigenvalues --   -0.35045  -0.34715  -0.34554  -0.34525  -0.34213
 Alpha  occ. eigenvalues --   -0.34093  -0.33962  -0.33929  -0.33668  -0.33420
 Alpha  occ. eigenvalues --   -0.33058  -0.32956  -0.32823  -0.32775  -0.32284
 Alpha  occ. eigenvalues --   -0.32096  -0.31940  -0.31796  -0.31527  -0.31450
 Alpha  occ. eigenvalues --   -0.31390  -0.30871  -0.30837  -0.30649  -0.30485
 Alpha  occ. eigenvalues --   -0.30219  -0.29802  -0.29552  -0.29500  -0.28855
 Alpha  occ. eigenvalues --   -0.28635  -0.28399  -0.28145  -0.28107  -0.27298
 Alpha  occ. eigenvalues --   -0.26774  -0.26563  -0.25831  -0.25765  -0.25585
 Alpha  occ. eigenvalues --   -0.24200  -0.23874  -0.23710  -0.23481  -0.23293
 Alpha  occ. eigenvalues --   -0.22644  -0.22598  -0.22090  -0.21948  -0.21580
 Alpha  occ. eigenvalues --   -0.21241  -0.21043  -0.20467  -0.20455  -0.20191
 Alpha  occ. eigenvalues --   -0.20120  -0.19526  -0.19048  -0.18919  -0.18851
 Alpha  occ. eigenvalues --   -0.17905  -0.17805  -0.17278
 Alpha virt. eigenvalues --   -0.11012  -0.04991  -0.04745  -0.03927  -0.03466
 Alpha virt. eigenvalues --   -0.02110  -0.01635  -0.01029  -0.00433  -0.00269
 Alpha virt. eigenvalues --    0.00536   0.00919   0.01443   0.01796   0.02085

 Mulliken charges:
               1
     1  C    0.078873
     2  C    0.022374
     3  O   -0.310200
     4  H    0.043910
     5  H   -0.014036
     6  H    0.030984
     7  N   -0.109110
     8  C    0.114329
     9  C    0.078305
    10  O   -0.274820
    11  C    0.069155
    12  C    0.142167
    13  O   -0.485861
    14  O   -0.372137
    15  H    0.120528
    16  H   -0.028534
    17  H    0.020858
    18  H   -0.000668
    19  N   -0.118109
    20  C    0.164163
    21  C    0.058249
    22  O   -0.266502
    23  C   -0.061172
    24  C    0.050068
    25  C   -0.075804
    26  C    0.031250
    27  N    0.088387
    28  H    0.138011
    29  H   -0.010405
    30  H    0.019942
    31  H    0.015571
    32  H    0.021612
    33  H    0.017072
    34  H    0.024623
    35  H    0.055019
    36  H    0.083721
    37  H    0.057775
    38  H    0.194376
    39  H    0.193438
    40  H    0.194151
    41  N   -0.144406
    42  C    0.159217
    43  C    0.054661
    44  O   -0.289673
    45  C    0.019183
    46  C    0.136101
    47  O   -0.485907
    48  O   -0.369532
    49  H    0.139370
    50  H    0.005536
    51  H   -0.030884
    52  H    0.019032
    53  N   -0.166827
    54  C    0.234125
    55  C    0.041879
    56  O   -0.303534
    57  H    0.152664
    58  H    0.018158
    59  H    0.033332
    60  N   -0.180321
    61  C    0.151339
    62  C    0.056048
    63  O   -0.290726
    64  C    0.059775
    65  C    0.092340
    66  N   -0.034268
    67  O   -0.323192
    68  H    0.161568
    69  H    0.019051
    70  H    0.074138
    71  H    0.002622
    72  H    0.135259
    73  H    0.104721
    74  N   -0.169175
    75  C    0.239594
    76  C    0.033375
    77  O   -0.288698
    78  H    0.162665
    79  H    0.024521
    80  H    0.023023
    81  N   -0.147402
    82  C    0.088330
    83  C    0.132074
    84  O   -0.348816
    85  C    0.153043
    86  C    0.011667
    87  C    0.026432
    88  C    0.040163
    89  C   -0.018306
    90  C   -0.051548
    91  C    0.169982
    92  O   -0.223335
    93  H    0.164931
    94  H   -0.001667
    95  H   -0.008836
    96  H   -0.052794
    97  H   -0.071762
    98  H   -0.048179
    99  H   -0.018567
   100  H   -0.054706
   101  H    0.172930
   102  N   -0.117438
   103  C    0.163149
   104  C    0.041077
   105  O   -0.294532
   106  C   -0.075991
   107  C   -0.011576
   108  C    0.068107
   109  C    0.025904
   110  H    0.130374
   111  H    0.012241
   112  H   -0.014857
   113  H   -0.004346
   114  H    0.023355
   115  H    0.008042
   116  H    0.034571
   117  H    0.010927
   118  H    0.009033
   119  H   -0.001984
   120  H    0.005306
   121  N   -0.150134
   122  C    0.076814
   123  C    0.124090
   124  O   -0.287372
   125  C    0.264347
   126  O   -0.337626
   127  H    0.137695
   128  H    0.017200
   129  H    0.004968
   130  H   -0.030445
   131  H    0.164183
   132  N   -0.118727
   133  C    0.091382
   134  C    0.048744
   135  O   -0.248891
   136  C    0.028235
   137  H    0.125073
   138  H    0.022680
   139  H    0.025611
   140  H    0.011066
   141  H    0.044709
   142  N   -0.141285
   143  C    0.105653
   144  C    0.069630
   145  O   -0.280099
   146  C    0.039092
   147  H    0.112058
   148  H    0.022187
   149  H    0.025024
   150  H    0.012474
   151  H    0.019197
   152  N   -0.184075
   153  C    0.153107
   154  C    0.069862
   155  O   -0.302942
   156  C   -0.074094
   157  C    0.122055
   158  C    0.160445
   159  O   -0.457115
   160  O   -0.425427
   161  H    0.143759
   162  H   -0.032514
   163  H    0.048349
   164  H    0.050040
   165  H   -0.014208
   166  H   -0.039737
   167  N   -0.151593
   168  C    0.161887
   169  H    0.025786
   170  H    0.022559
   171  H    0.009661
   172  H    0.130661
   173  Ca   1.287037
   174  O   -0.278590
   175  H    0.178713
   176  H    0.196144
 Sum of Mulliken charges =  -0.00000

 Dipole moment (field-independent basis, Debye):
    X=             40.8168    Y=             -2.3850    Z=            -15.0121  Tot=             43.5553
 Quadrupole moment (field-independent basis, Debye-Ang):
   XX=           -559.3604   YY=           -487.6316   ZZ=           -514.4710
   XY=            160.0686   XZ=            -93.9322   YZ=            -13.2697

 ESP charges:
               1
     1  C   -0.418538
     2  C    0.831393
     3  O   -0.645324
     4  H    0.135003
     5  H    0.066654
     6  H    0.119131
     7  N   -0.798870
     8  C    0.227832
     9  C    0.695437
    10  O   -0.552612
    11  C   -0.372614
    12  C    0.749056
    13  O   -0.601302
    14  O   -0.718053
    15  H    0.394244
    16  H   -0.030786
    17  H    0.106347
    18  H    0.087268
    19  N   -0.391374
    20  C   -0.386701
    21  C    0.583088
    22  O   -0.538355
    23  C    0.396661
    24  C   -0.288870
    25  C    0.029825
    26  C    0.049095
    27  N   -0.413463
    28  H    0.272463
    29  H    0.137381
    30  H   -0.015936
    31  H   -0.020273
    32  H    0.089363
    33  H    0.069563
    34  H    0.043428
    35  H    0.044560
    36  H    0.089535
    37  H    0.067784
    38  H    0.336726
    39  H    0.346612
    40  H    0.343880
    41  N   -0.554319
    42  C    0.330330
    43  C    0.307279
    44  O   -0.524417
    45  C   -0.343398
    46  C    0.875088
    47  O   -0.961940
    48  O   -0.697426
    49  H    0.342818
    50  H    0.021094
    51  H    0.044671
    52  H    0.083847
    53  N   -0.070664
    54  C   -0.325265
    55  C    0.626660
    56  O   -0.601512
    57  H    0.183445
    58  H    0.146708
    59  H    0.137829
    60  N   -0.284202
    61  C   -0.170759
    62  C    0.376879
    63  O   -0.479037
    64  C   -0.220102
    65  C    0.664108
    66  N   -0.871116
    67  O   -0.417566
    68  H    0.301533
    69  H    0.160761
    70  H    0.150721
    71  H    0.074152
    72  H    0.408365
    73  H    0.371456
    74  N   -0.111159
    75  C   -0.317277
    76  C    0.578493
    77  O   -0.533446
    78  H    0.216542
    79  H    0.144203
    80  H    0.124682
    81  N   -0.353682
    82  C   -0.089556
    83  C    0.735463
    84  O   -0.660692
    85  C    0.361658
    86  C   -0.298833
    87  C    0.074019
    88  C    0.153547
    89  C   -0.464905
    90  C   -0.530049
    91  C    0.626035
    92  O   -0.634312
    93  H    0.267038
    94  H    0.050347
    95  H   -0.066777
    96  H   -0.143202
    97  H    0.087715
    98  H    0.077860
    99  H    0.200755
   100  H    0.166406
   101  H    0.427752
   102  N   -0.646155
   103  C   -0.149367
   104  C    0.631545
   105  O   -0.551736
   106  C    0.251468
   107  C    0.257627
   108  C   -0.434750
   109  C   -0.393028
   110  H    0.337026
   111  H    0.115574
   112  H   -0.004171
   113  H   -0.029691
   114  H    0.017473
   115  H    0.088499
   116  H    0.076530
   117  H    0.123980
   118  H    0.084958
   119  H    0.066321
   120  H    0.088150
   121  N   -0.370190
   122  C   -0.111636
   123  C    0.706796
   124  O   -0.518369
   125  C    0.277901
   126  O   -0.591957
   127  H    0.255847
   128  H    0.071583
   129  H    0.009217
   130  H   -0.006967
   131  H    0.285600
   132  N   -0.605376
   133  C    0.230301
   134  C    0.488476
   135  O   -0.516962
   136  C   -0.240385
   137  H    0.314687
   138  H    0.057074
   139  H    0.090264
   140  H    0.043816
   141  H    0.085955
   142  N   -0.469646
   143  C    0.222461
   144  C    0.269764
   145  O   -0.519617
   146  C   -0.374068
   147  H    0.305194
   148  H    0.065190
   149  H    0.108845
   150  H    0.082268
   151  H    0.118240
   152  N    0.088814
   153  C    0.001936
   154  C    0.478208
   155  O   -0.554212
   156  C   -0.230943
   157  C   -0.104982
   158  C    0.746334
   159  O   -0.665754
   160  O   -0.701832
   161  H    0.070773
   162  H    0.023798
   163  H    0.148319
   164  H    0.062792
   165  H    0.001268
   166  H   -0.038457
   167  N   -0.104777
   168  C   -0.237218
   169  H    0.112718
   170  H    0.093173
   171  H    0.094450
   172  H    0.128116
   173  Ca   1.559313
   174  O   -0.772826
   175  H    0.397799
   176  H    0.414725
 Sum of ESP charges =   0.00000

 Normal termination of Gaussian 16 at Wed Sep 18 17:31:01 2019.
