 Gaussian 16, Revision A.03,
 Gaussian 16:  ES64L-G16RevA.03 25-Dec-2016

 ----------------------------------------------------------------------
 #b3lyp/svp scf=(tight,noincore) Test #IOP(5/87=12) Density=Current Pop
 =(MK,readradii) iop(6/33=2) iop(6/42=6)
 ----------------------------------------------------------------------

 ------------------
 holoCaM_loop3_94.0
 ------------------
 Symbolic Z-matrix:
 Charge =  0 Multiplicity = 1

                         Standard orientation:
 ---------------------------------------------------------------------
 Center     Atomic      Atomic             Coordinates (Angstroms)
 Number     Number       Type             X           Y           Z
 ---------------------------------------------------------------------
      1          6           0        1.964095    1.895191    5.802514
      2          6           0        1.598394    1.702886    4.337392
      3          8           0        2.474511    1.529059    3.502944
      4          1           0        2.922849    1.416578    6.003073
      5          1           0        2.037095    2.960812    6.022243
      6          1           0        1.195765    1.445037    6.431087
      7          7           0        0.338809    1.875756    3.913528
      8          6           0       -0.067456    2.091919    2.542791
      9          6           0        0.348340    3.524040    2.214244
     10          8           0        0.331584    4.383289    3.089863
     11          6           0       -1.566734    1.832414    2.501287
     12          6           0       -2.165234    2.378018    1.217809
     13          8           0       -2.473946    1.562726    0.326744
     14          8           0       -2.411447    3.602668    1.086239
     15          1           0       -0.334096    2.237132    4.573533
     16          1           0        0.442691    1.380128    1.893711
     17          1           0       -2.135240    2.389926    3.254733
     18          1           0       -1.775671    0.771274    2.634430
     19          7           0        0.727272    3.832960    0.980842
     20          6           0        1.045328    5.150245    0.455675
     21          6           0        0.294715    5.529772   -0.814380
     22          8           0        0.739637    6.386431   -1.555717
     23          6           0        2.544441    5.323612    0.249026
     24          6           0        3.360271    5.232496    1.535385
     25          6           0        4.863619    5.397435    1.332061
     26          6           0        5.818030    5.013598    2.451957
     27          7           0        7.119085    5.666511    2.209141
     28          1           0        0.837166    3.064993    0.338231
     29          1           0        0.758403    5.832440    1.256727
     30          1           0        2.844750    6.288208   -0.154914
     31          1           0        2.854458    4.522892   -0.430707
     32          1           0        3.159823    4.252185    1.952772
     33          1           0        3.079384    5.953792    2.307547
     34          1           0        4.972549    6.485833    1.214909
     35          1           0        5.024681    4.851691    0.405550
     36          1           0        5.920151    3.932014    2.407830
     37          1           0        5.373583    5.119766    3.437348
     38          1           0        7.685236    5.662677    3.042242
     39          1           0        7.543284    5.330223    1.358044
     40          1           0        7.008364    6.645503    1.974161
     41          7           0       -0.834490    4.878264   -1.087573
     42          6           0       -1.574422    5.141458   -2.305164
     43          6           0       -3.093465    5.094623   -2.263719
     44          8           0       -3.725862    5.449584   -3.265406
     45          6           0       -1.090710    4.210682   -3.415380
     46          6           0       -1.689170    2.812735   -3.549505
     47          8           0       -1.686969    2.255909   -4.662672
     48          8           0       -2.290012    2.283830   -2.590991
     49          1           0       -1.300736    4.220965   -0.475468
     50          1           0       -1.396094    6.178098   -2.581705
     51          1           0       -0.006495    4.171486   -3.421837
     52          1           0       -1.383016    4.687378   -4.361222
     53          7           0       -3.656327    4.744787   -1.110290
     54          6           0       -5.081015    4.761257   -0.818067
     55          6           0       -5.987216    3.662273   -1.366459
     56          8           0       -7.180769    3.829538   -1.617962
     57          1           0       -2.987461    4.391287   -0.452068
     58          1           0       -5.469855    5.722167   -1.135644
     59          1           0       -5.182316    4.708040    0.258690
     60          7           0       -5.431830    2.460264   -1.541156
     61          6           0       -6.145466    1.204117   -1.680502
     62          6           0       -6.109342    0.537485   -0.318372
     63          8           0       -7.044836   -0.232550   -0.116141
     64          6           0       -5.534496    0.331426   -2.775503
     65          6           0       -4.791685   -0.916747   -2.343536
     66          7           0       -5.198789   -2.161823   -2.604597
     67          8           0       -3.788724   -0.831873   -1.631380
     68          1           0       -4.429432    2.353334   -1.524853
     69          1           0       -7.171488    1.311452   -2.026565
     70          1           0       -4.837048    0.912532   -3.393954
     71          1           0       -6.392487    0.155903   -3.420826
     72          1           0       -6.120797   -2.255380   -3.020829
     73          1           0       -4.621790   -2.944561   -2.345769
     74          7           0       -5.141274    0.770584    0.573261
     75          6           0       -5.197309    0.339522    1.958052
     76          6           0       -4.788994   -1.078335    2.325831
     77          8           0       -4.870822   -1.588499    3.452790
     78          1           0       -4.367218    1.329671    0.252545
     79          1           0       -6.172981    0.642349    2.344006
     80          1           0       -4.535538    1.008813    2.510690
     81          7           0       -4.333515   -1.779586    1.291913
     82          6           0       -3.509645   -2.975988    1.360907
     83          6           0       -2.073353   -2.578952    1.049257
     84          8           0       -1.791286   -1.583740    0.385260
     85          6           0       -4.083663   -4.080244    0.466356
     86          6           0       -5.523389   -4.471506    0.646648
     87          6           0       -6.294034   -4.934986   -0.418618
     88          6           0       -6.104427   -4.482986    1.928858
     89          6           0       -7.647742   -5.233634   -0.233457
     90          6           0       -7.452684   -4.818038    2.135115
     91          6           0       -8.264017   -5.138177    1.033821
     92          8           0       -9.601160   -5.356831    1.129951
     93          1           0       -4.437622   -1.303707    0.405064
     94          1           0       -3.533191   -3.386944    2.364332
     95          1           0       -3.420018   -4.873852    0.797809
     96          1           0       -3.872076   -3.901927   -0.584184
     97          1           0       -5.768171   -4.972094   -1.362753
     98          1           0       -5.476153   -4.273028    2.773542
     99          1           0       -8.216220   -5.541130   -1.100739
    100          1           0       -7.845252   -4.951107    3.139846
    101          1           0       -9.993216   -5.202099    1.991258
    102          7           0       -1.086602   -3.427177    1.312008
    103          6           0        0.332358   -3.140789    1.193118
    104          6           0        0.987553   -3.995150    0.118322
    105          8           0        0.947578   -5.222355    0.096628
    106          6           0        0.963276   -3.225318    2.581281
    107          6           0        0.268788   -2.300445    3.584076
    108          6           0        2.438293   -2.876616    2.669211
    109          6           0        0.764283   -2.205930    5.027043
    110          1           0       -1.324305   -4.269921    1.824725
    111          1           0        0.448087   -2.104318    0.875574
    112          1           0        0.769825   -4.204723    3.022125
    113          1           0       -0.802827   -2.453974    3.747691
    114          1           0        0.375047   -1.297301    3.164064
    115          1           0        2.858072   -3.373384    3.552221
    116          1           0        3.094881   -3.429450    1.995887
    117          1           0        2.573231   -1.787273    2.731845
    118          1           0        1.756497   -1.777735    5.149355
    119          1           0        0.077127   -1.589219    5.600440
    120          1           0        0.663696   -3.201954    5.457877
    121          7           0        1.708516   -3.275838   -0.751220
    122          6           0        2.553534   -3.771273   -1.819766
    123          6           0        4.023480   -3.912914   -1.434284
    124          8           0        4.477493   -3.390350   -0.417525
    125          6           0        2.434465   -2.845963   -3.022190
    126          8           0        2.943088   -1.557529   -2.750456
    127          1           0        1.713336   -2.299675   -0.508977
    128          1           0        2.097536   -4.724254   -2.090308
    129          1           0        1.415732   -2.760811   -3.403676
    130          1           0        3.056805   -3.217682   -3.824449
    131          1           0        2.379950   -1.213173   -2.062855
    132          7           0        4.817696   -4.598591   -2.258643
    133          6           0        6.246348   -4.770081   -2.136797
    134          6           0        7.010903   -3.447612   -2.104729
    135          8           0        7.877045   -3.378229   -1.227526
    136          6           0        6.739973   -5.847845   -3.090819
    137          1           0        4.414511   -4.978913   -3.099950
    138          1           0        6.414311   -5.185392   -1.147703
    139          1           0        6.241779   -6.766794   -2.770294
    140          1           0        6.497328   -5.632590   -4.130910
    141          1           0        7.809908   -6.011446   -2.943265
    142          7           0        6.564672   -2.397119   -2.783804
    143          6           0        7.157932   -1.074232   -2.773125
    144          6           0        6.905248   -0.320481   -1.473467
    145          8           0        7.859418    0.223932   -0.917974
    146          6           0        6.471997   -0.271742   -3.865646
    147          1           0        5.805105   -2.603903   -3.423178
    148          1           0        8.215766   -1.268037   -2.987429
    149          1           0        6.683688   -0.728074   -4.840555
    150          1           0        5.412394   -0.158772   -3.643430
    151          1           0        6.842103    0.746763   -3.981276
    152          7           0        5.730634   -0.514302   -0.859778
    153          6           0        5.341594    0.034336    0.424529
    154          6           0        5.991635   -0.670110    1.600710
    155          8           0        6.550214    0.027739    2.447348
    156          6           0        3.831656   -0.011152    0.608155
    157          6           0        3.103437    1.061666   -0.196555
    158          6           0        1.655762    0.722386   -0.536008
    159          8           0        0.819625    1.642072   -0.629027
    160          8           0        1.284794   -0.479525   -0.613409
    161          1           0        5.059585   -1.018405   -1.433078
    162          1           0        5.582210    1.103543    0.481994
    163          1           0        3.506772    0.054928    1.640426
    164          1           0        3.605534   -1.034111    0.318632
    165          1           0        3.526240    1.332936   -1.160220
    166          1           0        3.102052    2.019580    0.338140
    167          7           0        6.184990   -1.982375    1.457272
    168          6           0        6.967753   -2.796131    2.367867
    169          1           0        7.527125   -3.539813    1.800830
    170          1           0        7.662564   -2.161256    2.917519
    171          1           0        6.302343   -3.299923    3.069271
    172          1           0        5.782909   -2.412437    0.638872
    173         20           0       -1.282795    0.212053   -1.515467
    174          8           0       -0.848502   -2.294618   -2.255935
    175          1           0       -0.787183   -2.413838   -3.207526
    176          1           0       -1.620499   -2.795958   -2.002010
 ---------------------------------------------------------------------

 SCF Done:  E(RB3LYP) =  -5333.56814232     A.U. after   20 cycles

 The electronic state is 1-A.
 Alpha  occ. eigenvalues -- -145.39034 -19.20990 -19.16180 -19.15981 -19.13599
 Alpha  occ. eigenvalues --  -19.12910 -19.12256 -19.11752 -19.10946 -19.10559
 Alpha  occ. eigenvalues --  -19.10339 -19.08903 -19.08770 -19.07683 -19.06962
 Alpha  occ. eigenvalues --  -19.06839 -19.06764 -19.06107 -19.05922 -19.05176
 Alpha  occ. eigenvalues --  -19.04768 -19.03170 -19.02960 -19.00424 -15.44783
 Alpha  occ. eigenvalues --  -14.57904 -14.39485 -14.38172 -14.37632 -14.37611
 Alpha  occ. eigenvalues --  -14.35529 -14.35239 -14.33962 -14.33260 -14.32651
 Alpha  occ. eigenvalues --  -14.32382 -14.31820 -14.30713 -14.30680 -14.28808
 Alpha  occ. eigenvalues --  -12.58402 -12.58375 -12.58324 -10.33347 -10.32101
 Alpha  occ. eigenvalues --  -10.31735 -10.30871 -10.29968 -10.29518 -10.28826
 Alpha  occ. eigenvalues --  -10.27845 -10.27709 -10.27176 -10.26725 -10.26221
 Alpha  occ. eigenvalues --  -10.25882 -10.25749 -10.25705 -10.25460 -10.25403
 Alpha  occ. eigenvalues --  -10.25328 -10.25141 -10.24894 -10.24824 -10.24719
 Alpha  occ. eigenvalues --  -10.23861 -10.23639 -10.22237 -10.22217 -10.22204
 Alpha  occ. eigenvalues --  -10.22121 -10.21566 -10.21456 -10.21320 -10.21226
 Alpha  occ. eigenvalues --  -10.21070 -10.21048 -10.20690 -10.20002 -10.19904
 Alpha  occ. eigenvalues --  -10.19872 -10.19579 -10.19427 -10.19371 -10.19298
 Alpha  occ. eigenvalues --  -10.19230 -10.18926 -10.18875 -10.18845 -10.18336
 Alpha  occ. eigenvalues --  -10.18212 -10.18071 -10.17618 -10.17432 -10.17360
 Alpha  occ. eigenvalues --  -10.17305 -10.12637  -1.81588  -1.12989  -1.09292
 Alpha  occ. eigenvalues --   -1.09171  -1.08840  -1.06896  -1.06796  -1.06149
 Alpha  occ. eigenvalues --   -1.05962  -1.05739  -1.04727  -1.04686  -1.03716
 Alpha  occ. eigenvalues --   -1.02964  -1.02398  -1.01792  -1.00744  -1.00570
 Alpha  occ. eigenvalues --   -1.00212  -0.99842  -0.99643  -0.99483  -0.97748
 Alpha  occ. eigenvalues --   -0.96935  -0.96268  -0.95954  -0.95756  -0.94316
 Alpha  occ. eigenvalues --   -0.94086  -0.92994  -0.92345  -0.91800  -0.91149
 Alpha  occ. eigenvalues --   -0.90973  -0.90460  -0.89715  -0.89538  -0.88737
 Alpha  occ. eigenvalues --   -0.87980  -0.87821  -0.87191  -0.86086  -0.85552
 Alpha  occ. eigenvalues --   -0.85051  -0.82579  -0.81661  -0.80222  -0.80158
 Alpha  occ. eigenvalues --   -0.79771  -0.78648  -0.78001  -0.77645  -0.77322
 Alpha  occ. eigenvalues --   -0.75250  -0.75076  -0.74115  -0.73546  -0.73450
 Alpha  occ. eigenvalues --   -0.72863  -0.72316  -0.72043  -0.71506  -0.70549
 Alpha  occ. eigenvalues --   -0.70095  -0.69422  -0.69110  -0.68254  -0.67887
 Alpha  occ. eigenvalues --   -0.66698  -0.66641  -0.66133  -0.65564  -0.64471
 Alpha  occ. eigenvalues --   -0.64363  -0.63107  -0.62382  -0.62355  -0.62258
 Alpha  occ. eigenvalues --   -0.61283  -0.61135  -0.60816  -0.60724  -0.60265
 Alpha  occ. eigenvalues --   -0.59991  -0.59677  -0.59576  -0.58684  -0.58434
 Alpha  occ. eigenvalues --   -0.58319  -0.57648  -0.57366  -0.56835  -0.56639
 Alpha  occ. eigenvalues --   -0.56245  -0.56022  -0.55907  -0.55837  -0.55561
 Alpha  occ. eigenvalues --   -0.55213  -0.55098  -0.54533  -0.54075  -0.53775
 Alpha  occ. eigenvalues --   -0.53324  -0.53023  -0.52860  -0.52203  -0.52112
 Alpha  occ. eigenvalues --   -0.51390  -0.51098  -0.50677  -0.50516  -0.50051
 Alpha  occ. eigenvalues --   -0.49700  -0.49542  -0.49463  -0.49240  -0.49209
 Alpha  occ. eigenvalues --   -0.49098  -0.48945  -0.48751  -0.48183  -0.47989
 Alpha  occ. eigenvalues --   -0.47908  -0.47719  -0.47301  -0.47170  -0.46765
 Alpha  occ. eigenvalues --   -0.46730  -0.46419  -0.46225  -0.45904  -0.45691
 Alpha  occ. eigenvalues --   -0.45526  -0.45377  -0.45177  -0.45135  -0.45072
 Alpha  occ. eigenvalues --   -0.44823  -0.44755  -0.44694  -0.44459  -0.44300
 Alpha  occ. eigenvalues --   -0.44140  -0.43952  -0.43722  -0.43605  -0.43304
 Alpha  occ. eigenvalues --   -0.43178  -0.42841  -0.42567  -0.42488  -0.42347
 Alpha  occ. eigenvalues --   -0.42309  -0.42179  -0.42041  -0.41838  -0.41720
 Alpha  occ. eigenvalues --   -0.41642  -0.41376  -0.41253  -0.41179  -0.41007
 Alpha  occ. eigenvalues --   -0.40946  -0.40759  -0.40601  -0.40498  -0.40443
 Alpha  occ. eigenvalues --   -0.40288  -0.40184  -0.40069  -0.39913  -0.39793
 Alpha  occ. eigenvalues --   -0.39602  -0.39455  -0.39334  -0.39190  -0.39052
 Alpha  occ. eigenvalues --   -0.38940  -0.38827  -0.38553  -0.38466  -0.38208
 Alpha  occ. eigenvalues --   -0.38140  -0.37866  -0.37822  -0.37654  -0.37609
 Alpha  occ. eigenvalues --   -0.37367  -0.37314  -0.37280  -0.37171  -0.37097
 Alpha  occ. eigenvalues --   -0.36906  -0.36781  -0.36468  -0.36452  -0.36156
 Alpha  occ. eigenvalues --   -0.35956  -0.35766  -0.35738  -0.35329  -0.35154
 Alpha  occ. eigenvalues --   -0.34899  -0.34844  -0.34449  -0.34262  -0.34077
 Alpha  occ. eigenvalues --   -0.33905  -0.33789  -0.33412  -0.33350  -0.33270
 Alpha  occ. eigenvalues --   -0.33065  -0.32998  -0.32934  -0.32200  -0.31746
 Alpha  occ. eigenvalues --   -0.31699  -0.31631  -0.30628  -0.30586  -0.30282
 Alpha  occ. eigenvalues --   -0.30138  -0.29462  -0.29333  -0.29146  -0.29109
 Alpha  occ. eigenvalues --   -0.28673  -0.28580  -0.28147  -0.27167  -0.26826
 Alpha  occ. eigenvalues --   -0.26548  -0.25872  -0.25819  -0.25672  -0.25657
 Alpha  occ. eigenvalues --   -0.25542  -0.24989  -0.24654  -0.24515  -0.24180
 Alpha  occ. eigenvalues --   -0.24125  -0.23668  -0.23244  -0.23044  -0.23022
 Alpha  occ. eigenvalues --   -0.22753  -0.22504  -0.22221  -0.22213  -0.21984
 Alpha  occ. eigenvalues --   -0.21629  -0.20925  -0.20256  -0.20228  -0.19586
 Alpha  occ. eigenvalues --   -0.19114  -0.18736  -0.16295
 Alpha virt. eigenvalues --   -0.09447  -0.04204  -0.04039  -0.03387  -0.02163
 Alpha virt. eigenvalues --   -0.01614  -0.01462  -0.00935  -0.00782  -0.00470
 Alpha virt. eigenvalues --    0.00087   0.00339   0.00692   0.01205   0.01390

 Mulliken charges:
               1
     1  C    0.052620
     2  C    0.033080
     3  O   -0.301054
     4  H    0.028220
     5  H    0.042103
     6  H    0.015266
     7  N   -0.117264
     8  C    0.080478
     9  C    0.068785
    10  O   -0.309705
    11  C    0.142133
    12  C    0.112849
    13  O   -0.458626
    14  O   -0.382598
    15  H    0.112513
    16  H    0.010868
    17  H    0.008228
    18  H    0.005657
    19  N   -0.150998
    20  C    0.163562
    21  C    0.074137
    22  O   -0.283873
    23  C    0.029498
    24  C   -0.003482
    25  C   -0.082576
    26  C    0.061087
    27  N    0.086692
    28  H    0.133227
    29  H    0.016669
    30  H    0.007705
    31  H   -0.004615
    32  H    0.032698
    33  H    0.004533
    34  H    0.006047
    35  H    0.039058
    36  H    0.102339
    37  H    0.081730
    38  H    0.195412
    39  H    0.200766
    40  H    0.171486
    41  N   -0.137797
    42  C    0.111108
    43  C    0.046754
    44  O   -0.292591
    45  C    0.069411
    46  C    0.067885
    47  O   -0.353684
    48  O   -0.472788
    49  H    0.146143
    50  H    0.016171
    51  H   -0.006447
    52  H    0.022243
    53  N   -0.141265
    54  C    0.235648
    55  C    0.038886
    56  O   -0.285549
    57  H    0.117580
    58  H    0.014282
    59  H    0.018672
    60  N   -0.170928
    61  C    0.125762
    62  C    0.017954
    63  O   -0.285070
    64  C    0.160968
    65  C    0.010709
    66  N   -0.007295
    67  O   -0.376017
    68  H    0.159172
    69  H    0.020896
    70  H    0.065824
    71  H   -0.004628
    72  H    0.141067
    73  H    0.118771
    74  N   -0.162237
    75  C    0.214097
    76  C    0.048573
    77  O   -0.304440
    78  H    0.140323
    79  H    0.032657
    80  H    0.025015
    81  N   -0.131522
    82  C    0.094504
    83  C    0.103898
    84  O   -0.343561
    85  C    0.184772
    86  C    0.013929
    87  C   -0.010672
    88  C    0.007084
    89  C   -0.012055
    90  C   -0.045166
    91  C    0.191290
    92  O   -0.196602
    93  H    0.157489
    94  H    0.012973
    95  H   -0.007535
    96  H   -0.077555
    97  H   -0.068890
    98  H   -0.021790
    99  H   -0.027856
   100  H   -0.031597
   101  H    0.179857
   102  N   -0.115775
   103  C    0.141576
   104  C    0.066517
   105  O   -0.279822
   106  C   -0.073476
   107  C   -0.051412
   108  C    0.050998
   109  C    0.040576
   110  H    0.124518
   111  H    0.022207
   112  H   -0.021862
   113  H   -0.001049
   114  H    0.009339
   115  H   -0.001604
   116  H    0.017366
   117  H    0.037667
   118  H    0.020222
   119  H    0.003763
   120  H   -0.002985
   121  N   -0.139937
   122  C    0.075000
   123  C    0.117795
   124  O   -0.265693
   125  C    0.269415
   126  O   -0.329498
   127  H    0.151248
   128  H    0.015570
   129  H   -0.026994
   130  H   -0.025790
   131  H    0.162132
   132  N   -0.124399
   133  C    0.076337
   134  C    0.067048
   135  O   -0.274667
   136  C    0.036026
   137  H    0.111656
   138  H    0.024377
   139  H    0.030485
   140  H    0.012226
   141  H    0.046503
   142  N   -0.126660
   143  C    0.100019
   144  C    0.070247
   145  O   -0.270859
   146  C    0.012586
   147  H    0.110647
   148  H    0.023680
   149  H    0.015844
   150  H    0.027952
   151  H    0.023514
   152  N   -0.143405
   153  C    0.140013
   154  C    0.064824
   155  O   -0.301558
   156  C   -0.030087
   157  C    0.071979
   158  C    0.153632
   159  O   -0.398883
   160  O   -0.435523
   161  H    0.124289
   162  H   -0.034805
   163  H    0.059448
   164  H   -0.005144
   165  H    0.012115
   166  H    0.004001
   167  N   -0.163832
   168  C    0.137426
   169  H    0.025746
   170  H    0.027015
   171  H    0.008152
   172  H    0.142270
   173  Ca   1.284012
   174  O   -0.272308
   175  H    0.183271
   176  H    0.183292
 Sum of Mulliken charges =  -0.00000

 Dipole moment (field-independent basis, Debye):
    X=             26.4559    Y=             -5.8556    Z=              5.8050  Tot=             27.7110
 Quadrupole moment (field-independent basis, Debye-Ang):
   XX=           -518.8774   YY=           -501.3129   ZZ=           -542.1446
   XY=            199.2210   XZ=             -2.4035   YZ=            125.8673

 ESP charges:
               1
     1  C   -0.432776
     2  C    0.923330
     3  O   -0.677142
     4  H    0.116664
     5  H    0.123405
     6  H    0.091263
     7  N   -0.874184
     8  C    0.399635
     9  C    0.233808
    10  O   -0.527240
    11  C   -0.364450
    12  C    0.935250
    13  O   -0.823387
    14  O   -0.677247
    15  H    0.386881
    16  H    0.008926
    17  H    0.091452
    18  H    0.082704
    19  N    0.024869
    20  C   -0.215501
    21  C    0.716202
    22  O   -0.570834
    23  C   -0.111374
    24  C    0.404276
    25  C   -0.305113
    26  C    0.303323
    27  N   -0.568679
    28  H    0.243957
    29  H    0.098410
    30  H    0.023788
    31  H    0.030892
    32  H   -0.074497
    33  H   -0.059288
    34  H    0.041508
    35  H    0.052608
    36  H    0.050757
    37  H    0.031570
    38  H    0.381697
    39  H    0.387580
    40  H    0.351299
    41  N   -0.639246
    42  C    0.243532
    43  C    0.387384
    44  O   -0.512333
    45  C   -0.304919
    46  C    0.795947
    47  O   -0.705082
    48  O   -0.769580
    49  H    0.269274
    50  H    0.046604
    51  H    0.063228
    52  H    0.082638
    53  N   -0.208644
    54  C   -0.285374
    55  C    0.589807
    56  O   -0.561291
    57  H    0.222172
    58  H    0.134168
    59  H    0.122771
    60  N   -0.514935
    61  C    0.389449
    62  C    0.265609
    63  O   -0.520671
    64  C   -0.344509
    65  C    0.596382
    66  N   -0.769420
    67  O   -0.612172
    68  H    0.403921
    69  H    0.043608
    70  H    0.136450
    71  H    0.102985
    72  H    0.372017
    73  H    0.386816
    74  N   -0.056859
    75  C   -0.376180
    76  C    0.627038
    77  O   -0.581091
    78  H    0.119553
    79  H    0.171779
    80  H    0.135649
    81  N   -0.492645
    82  C    0.465320
    83  C    0.377442
    84  O   -0.518135
    85  C   -0.127365
    86  C    0.011693
    87  C   -0.159529
    88  C   -0.151031
    89  C   -0.230160
    90  C   -0.264595
    91  C    0.389297
    92  O   -0.566221
    93  H    0.351459
    94  H   -0.039155
    95  H    0.020355
    96  H    0.026402
    97  H    0.108338
    98  H    0.165682
    99  H    0.149808
   100  H    0.130028
   101  H    0.428573
   102  N   -0.506863
   103  C   -0.255714
   104  C    0.600029
   105  O   -0.555783
   106  C    0.356491
   107  C    0.044893
   108  C   -0.588389
   109  C   -0.363190
   110  H    0.318767
   111  H    0.043159
   112  H   -0.021919
   113  H    0.019560
   114  H    0.071218
   115  H    0.131866
   116  H    0.169137
   117  H    0.163565
   118  H    0.081706
   119  H    0.103230
   120  H    0.079505
   121  N   -0.301919
   122  C   -0.560971
   123  C    0.871945
   124  O   -0.595720
   125  C    0.248236
   126  O   -0.544025
   127  H    0.641248
   128  H    0.176108
   129  H    0.011711
   130  H    0.026732
   131  H    0.280988
   132  N   -0.595687
   133  C    0.175638
   134  C    0.475961
   135  O   -0.529630
   136  C   -0.393682
   137  H    0.318508
   138  H    0.091177
   139  H    0.122472
   140  H    0.097379
   141  H    0.133924
   142  N   -0.364245
   143  C    0.042468
   144  C    0.326850
   145  O   -0.501075
   146  C   -0.267252
   147  H    0.262294
   148  H    0.118915
   149  H    0.074477
   150  H    0.066274
   151  H    0.106507
   152  N   -0.070430
   153  C   -0.142557
   154  C    0.447000
   155  O   -0.571742
   156  C    0.163967
   157  C   -0.184299
   158  C    0.730751
   159  O   -0.733169
   160  O   -0.604278
   161  H    0.202530
   162  H    0.082413
   163  H    0.090220
   164  H   -0.373741
   165  H    0.046560
   166  H    0.052913
   167  N   -0.030828
   168  C   -0.216022
   169  H    0.084912
   170  H    0.108147
   171  H    0.055996
   172  H    0.208561
   173  Ca   1.392226
   174  O   -0.608652
   175  H    0.358458
   176  H    0.327809
 Sum of ESP charges =  -0.00000

 Normal termination of Gaussian 16 at Sat Sep 14 23:28:00 2019.
