 Gaussian 09, Revision D.01,
 Gaussian 09:  ES64L-G09RevD.01 24-Apr-2013

 ----------------------------------------------------------------------
 #maxdisk=50GB #B3LYP/SVP Density=Current scf=(tight) #IOP(5/87=12)Pop=
 (MK,readradii) iop(6/33=2) iop(6/42=6)
 ----------------------------------------------------------------------

 ------------
 SOL molecule
 ------------
 Symbolic Z-matrix:
 Charge =  0 Multiplicity = 1

                         Standard orientation:
 ---------------------------------------------------------------------
 Center     Atomic      Atomic             Coordinates (Angstroms)
 Number     Number       Type             X           Y           Z
 ---------------------------------------------------------------------
      1          6           0        2.257937    2.283605    5.645508
      2          6           0        1.612086    2.122890    4.277609
      3          8           0        2.331789    1.920741    3.295131
      4          1           0        1.853715    1.535856    6.327943
      5          1           0        3.335476    2.148651    5.557402
      6          1           0        2.046604    3.280606    6.032896
      7          7           0        0.283633    2.167738    4.180654
      8          6           0       -0.382363    2.238612    2.890605
      9          6           0       -0.101384    3.557036    2.185757
     10          8           0       -0.524937    4.593747    2.692839
     11          6           0       -1.869252    1.903513    2.973479
     12          6           0       -2.419831    1.785210    1.560586
     13          8           0       -3.646235    1.556262    1.468305
     14          8           0       -1.730845    1.759806    0.519647
     15          1           0       -0.260668    2.248977    5.033846
     16          1           0       -0.053945    1.417007    2.255935
     17          1           0       -2.412983    2.693157    3.484381
     18          1           0       -2.077938    0.994586    3.537306
     19          7           0        0.617892    3.575170    1.065529
     20          6           0        1.224886    4.769322    0.511580
     21          6           0        0.377730    5.443769   -0.555353
     22          8           0        0.517103    6.626261   -0.868065
     23          6           0        2.689759    4.607733    0.098378
     24          6           0        3.523042    5.879941    0.010477
     25          6           0        4.976063    5.432922    0.187689
     26          6           0        5.911481    6.587591   -0.179234
     27          7           0        5.622673    7.810052    0.585998
     28          1           0        0.808346    2.648191    0.715046
     29          1           0        1.143024    5.538515    1.272199
     30          1           0        2.802597    3.947011   -0.761107
     31          1           0        3.229705    4.082317    0.877542
     32          1           0        3.165285    6.530095    0.805907
     33          1           0        3.422697    6.274172   -0.999430
     34          1           0        5.138705    4.547054   -0.420741
     35          1           0        5.080858    5.125170    1.224080
     36          1           0        5.818490    6.895957   -1.223390
     37          1           0        6.920892    6.231523    0.013395
     38          1           0        5.700479    7.755729    1.588542
     39          1           0        6.364351    8.454234    0.347791
     40          1           0        4.740779    8.170926    0.265634
     41          7           0       -0.643662    4.704586   -0.994520
     42          6           0       -1.690894    5.157577   -1.893743
     43          6           0       -3.065838    5.026209   -1.264003
     44          8           0       -4.075884    5.528737   -1.742200
     45          6           0       -1.518810    4.509062   -3.267466
     46          6           0       -1.623771    2.987137   -3.328520
     47          8           0       -1.560946    2.441027   -4.448126
     48          8           0       -2.065540    2.307628   -2.379675
     49          1           0       -0.714152    3.763321   -0.635282
     50          1           0       -1.495034    6.193943   -2.157912
     51          1           0       -0.525221    4.626920   -3.679523
     52          1           0       -2.154626    5.009969   -3.988251
     53          7           0       -3.113624    4.499721   -0.039002
     54          6           0       -4.359168    4.328865    0.694162
     55          6           0       -5.373220    3.347420    0.131079
     56          8           0       -6.582779    3.555593    0.202018
     57          1           0       -2.257695    4.154090    0.371880
     58          1           0       -4.910500    5.259109    0.792542
     59          1           0       -4.176781    4.113234    1.752764
     60          7           0       -4.996004    2.400743   -0.722625
     61          6           0       -5.887731    1.576071   -1.512333
     62          6           0       -6.477187    0.442622   -0.695121
     63          8           0       -7.254872   -0.406587   -1.133130
     64          6           0       -5.408847    1.228626   -2.923875
     65          6           0       -4.428995    0.066247   -2.827104
     66          7           0       -4.250435   -0.760626   -3.857394
     67          8           0       -3.830246   -0.235412   -1.799193
     68          1           0       -3.992420    2.306391   -0.775700
     69          1           0       -6.805777    2.136837   -1.743054
     70          1           0       -4.857751    1.953254   -3.509799
     71          1           0       -6.231236    0.774402   -3.488726
     72          1           0       -4.658408   -0.548564   -4.756942
     73          1           0       -3.872831   -1.688075   -3.743146
     74          7           0       -6.044148    0.334357    0.559812
     75          6           0       -6.514464   -0.580367    1.575430
     76          6           0       -5.549126   -1.690300    1.937605
     77          8           0       -5.800365   -2.478094    2.845547
     78          1           0       -5.251648    0.883137    0.854911
     79          1           0       -7.474767   -1.001994    1.267128
     80          1           0       -6.602815    0.063943    2.457960
     81          7           0       -4.503797   -1.888285    1.128475
     82          6           0       -3.516294   -2.943160    1.193871
     83          6           0       -2.065204   -2.481469    1.156743
     84          8           0       -1.713981   -1.426411    0.627975
     85          6           0       -3.764964   -3.932219    0.055088
     86          6           0       -5.192412   -4.411107   -0.040619
     87          6           0       -5.963427   -4.225170   -1.197884
     88          6           0       -5.665402   -5.254485    0.976580
     89          6           0       -7.297080   -4.662815   -1.225023
     90          6           0       -6.954971   -5.784257    0.880382
     91          6           0       -7.809000   -5.474185   -0.200076
     92          8           0       -9.112802   -5.877827   -0.256416
     93          1           0       -4.527414   -1.264607    0.330623
     94          1           0       -3.633599   -3.564415    2.086778
     95          1           0       -3.038286   -4.753415    0.012946
     96          1           0       -3.462776   -3.469925   -0.878435
     97          1           0       -5.578404   -3.684751   -2.037947
     98          1           0       -4.990944   -5.419731    1.795542
     99          1           0       -7.990221   -4.457918   -2.030612
    100          1           0       -7.287957   -6.520570    1.603751
    101          1           0       -9.248774   -6.266324    0.600778
    102          7           0       -1.204870   -3.319943    1.741368
    103          6           0        0.239347   -3.222628    1.690714
    104          6           0        0.872002   -4.131732    0.648756
    105          8           0        0.360666   -5.191642    0.302743
    106          6           0        0.819308   -3.429361    3.083914
    107          6           0        0.035550   -2.737825    4.200920
    108          6           0        2.326236   -3.233865    3.136353
    109          6           0       -0.062085   -1.246602    3.912957
    110          1           0       -1.641834   -4.207358    1.959903
    111          1           0        0.410598   -2.197549    1.388245
    112          1           0        0.715677   -4.471776    3.397652
    113          1           0        0.397766   -2.776354    5.224939
    114          1           0       -0.959952   -3.160893    4.341236
    115          1           0        2.684969   -3.293679    4.166271
    116          1           0        2.897460   -3.936322    2.532485
    117          1           0        2.490080   -2.224181    2.757019
    118          1           0       -0.413929   -0.738618    4.809147
    119          1           0        0.867837   -0.767794    3.612977
    120          1           0       -0.751865   -1.048120    3.086212
    121          7           0        1.906590   -3.621264   -0.017616
    122          6           0        2.663468   -4.224781   -1.104126
    123          6           0        4.158946   -4.176621   -0.810315
    124          8           0        4.611973   -3.413226    0.041739
    125          6           0        2.527459   -3.409728   -2.379622
    126          8           0        2.997840   -2.089683   -2.204059
    127          1           0        2.032474   -2.624512    0.059440
    128          1           0        2.444827   -5.271143   -1.313224
    129          1           0        1.467127   -3.344334   -2.634022
    130          1           0        3.062479   -3.976842   -3.143713
    131          1           0        2.248616   -1.599748   -1.861820
    132          7           0        5.012208   -5.003209   -1.407387
    133          6           0        6.436973   -5.087434   -1.141395
    134          6           0        7.174507   -3.775326   -1.294412
    135          8           0        8.056463   -3.547324   -0.476629
    136          6           0        6.916765   -6.215536   -2.046704
    137          1           0        4.678710   -5.676316   -2.083484
    138          1           0        6.507676   -5.405134   -0.093221
    139          1           0        6.224520   -7.057827   -2.019468
    140          1           0        6.920770   -5.844903   -3.080152
    141          1           0        7.907458   -6.513529   -1.723396
    142          7           0        6.792681   -2.851800   -2.188061
    143          6           0        7.454628   -1.574984   -2.394379
    144          6           0        7.182095   -0.587095   -1.262390
    145          8           0        8.026152    0.142610   -0.758704
    146          6           0        6.937393   -1.076962   -3.733574
    147          1           0        6.048252   -3.094096   -2.823685
    148          1           0        8.522544   -1.753820   -2.510888
    149          1           0        7.354976   -1.631412   -4.572150
    150          1           0        5.846807   -1.146953   -3.748484
    151          1           0        7.125214   -0.019664   -3.943917
    152          7           0        5.873609   -0.644999   -0.989422
    153          6           0        5.321928    0.101568    0.124125
    154          6           0        6.021422   -0.346096    1.396644
    155          8           0        6.541434    0.509710    2.113151
    156          6           0        3.812203   -0.086992    0.196763
    157          6           0        3.159846    0.804621   -0.853074
    158          6           0        1.644035    0.592562   -0.868814
    159          8           0        0.809928    1.517454   -1.007520
    160          8           0        1.165190   -0.559690   -0.850797
    161          1           0        5.355300   -1.269418   -1.582007
    162          1           0        5.588134    1.150510   -0.019241
    163          1           0        3.624556    0.208143    1.235552
    164          1           0        3.425516   -1.098309    0.082702
    165          1           0        3.522664    0.452863   -1.823243
    166          1           0        3.427020    1.845336   -0.686550
    167          7           0        5.927295   -1.638094    1.730832
    168          6           0        6.698633   -2.246835    2.803619
    169          1           0        6.023515   -2.748065    3.496865
    170          1           0        7.394423   -2.974363    2.384537
    171          1           0        7.255285   -1.474693    3.334822
    172          1           0        5.452522   -2.198767    1.054934
    173         20           0       -1.342492    0.109096   -1.435266
    174          8           0       -0.191683   -0.480190   -3.763394
    175          1           0        0.712475   -0.436642   -4.072591
    176          1           0       -0.710950   -0.535344   -4.557069
 ---------------------------------------------------------------------

 SCF Done:  E(RB3LYP) =  -5333.55764822     A.U. after   20 cycles

 The electronic state is 1-A.
 Alpha  occ. eigenvalues -- -145.35906 -19.17640 -19.15303 -19.15256 -19.12825
 Alpha  occ. eigenvalues --  -19.12731 -19.11688 -19.10924 -19.10467 -19.09748
 Alpha  occ. eigenvalues --  -19.09016 -19.08178 -19.07752 -19.07117 -19.07061
 Alpha  occ. eigenvalues --  -19.05754 -19.05548 -19.04722 -19.04150 -19.03866
 Alpha  occ. eigenvalues --  -19.02482 -19.02305 -19.02040 -18.99970 -15.41683
 Alpha  occ. eigenvalues --  -14.58188 -14.39197 -14.37328 -14.37100 -14.36808
 Alpha  occ. eigenvalues --  -14.36625 -14.34494 -14.34021 -14.32519 -14.32494
 Alpha  occ. eigenvalues --  -14.31536 -14.31066 -14.30005 -14.29278 -14.28390
 Alpha  occ. eigenvalues --  -12.55286 -12.55258 -12.55243 -10.34664 -10.31544
 Alpha  occ. eigenvalues --  -10.30600 -10.30107 -10.29728 -10.29519 -10.27788
 Alpha  occ. eigenvalues --  -10.27184 -10.27133 -10.26908 -10.26388 -10.26350
 Alpha  occ. eigenvalues --  -10.25966 -10.25568 -10.25450 -10.24842 -10.24282
 Alpha  occ. eigenvalues --  -10.24186 -10.23830 -10.23609 -10.23609 -10.23566
 Alpha  occ. eigenvalues --  -10.23448 -10.23109 -10.22928 -10.22308 -10.22240
 Alpha  occ. eigenvalues --  -10.21723 -10.21263 -10.20815 -10.20744 -10.20743
 Alpha  occ. eigenvalues --  -10.20618 -10.20037 -10.19655 -10.19198 -10.19131
 Alpha  occ. eigenvalues --  -10.19070 -10.18875 -10.18758 -10.18628 -10.18570
 Alpha  occ. eigenvalues --  -10.17980 -10.17940 -10.17910 -10.17892 -10.17841
 Alpha  occ. eigenvalues --  -10.17795 -10.17560 -10.17341 -10.17038 -10.16311
 Alpha  occ. eigenvalues --  -10.16093 -10.13813  -1.78666  -1.13723  -1.06914
 Alpha  occ. eigenvalues --   -1.06758  -1.06342  -1.06120  -1.05102  -1.04912
 Alpha  occ. eigenvalues --   -1.04393  -1.04306  -1.03947  -1.03800  -1.03604
 Alpha  occ. eigenvalues --   -1.03443  -1.01543  -1.01309  -1.00338  -0.99528
 Alpha  occ. eigenvalues --   -0.99189  -0.98533  -0.98293  -0.97880  -0.97385
 Alpha  occ. eigenvalues --   -0.96485  -0.96065  -0.95905  -0.94432  -0.94218
 Alpha  occ. eigenvalues --   -0.93529  -0.92744  -0.91348  -0.91181  -0.90631
 Alpha  occ. eigenvalues --   -0.90375  -0.89788  -0.88694  -0.88200  -0.87853
 Alpha  occ. eigenvalues --   -0.87711  -0.86916  -0.85828  -0.85332  -0.84894
 Alpha  occ. eigenvalues --   -0.83464  -0.82835  -0.81820  -0.81734  -0.79865
 Alpha  occ. eigenvalues --   -0.78616  -0.78121  -0.77518  -0.76944  -0.76173
 Alpha  occ. eigenvalues --   -0.75235  -0.74515  -0.74012  -0.73427  -0.72738
 Alpha  occ. eigenvalues --   -0.72499  -0.71941  -0.71686  -0.70913  -0.70819
 Alpha  occ. eigenvalues --   -0.69658  -0.69211  -0.68084  -0.67767  -0.67617
 Alpha  occ. eigenvalues --   -0.67096  -0.65833  -0.65327  -0.64505  -0.64049
 Alpha  occ. eigenvalues --   -0.63984  -0.63170  -0.63041  -0.61475  -0.61234
 Alpha  occ. eigenvalues --   -0.61206  -0.61093  -0.61052  -0.60495  -0.59825
 Alpha  occ. eigenvalues --   -0.59589  -0.58558  -0.58138  -0.57922  -0.57339
 Alpha  occ. eigenvalues --   -0.57034  -0.56979  -0.56100  -0.55963  -0.55787
 Alpha  occ. eigenvalues --   -0.55433  -0.55375  -0.55157  -0.54798  -0.54551
 Alpha  occ. eigenvalues --   -0.54427  -0.53544  -0.53451  -0.53260  -0.52999
 Alpha  occ. eigenvalues --   -0.52642  -0.52595  -0.52458  -0.51993  -0.51672
 Alpha  occ. eigenvalues --   -0.51129  -0.51041  -0.50504  -0.49871  -0.49793
 Alpha  occ. eigenvalues --   -0.49328  -0.49190  -0.48875  -0.48768  -0.48610
 Alpha  occ. eigenvalues --   -0.48385  -0.48339  -0.48233  -0.48002  -0.47557
 Alpha  occ. eigenvalues --   -0.47451  -0.47202  -0.46920  -0.46754  -0.46020
 Alpha  occ. eigenvalues --   -0.45817  -0.45760  -0.45556  -0.45395  -0.45236
 Alpha  occ. eigenvalues --   -0.45178  -0.44940  -0.44849  -0.44607  -0.44516
 Alpha  occ. eigenvalues --   -0.44414  -0.44029  -0.43964  -0.43915  -0.43691
 Alpha  occ. eigenvalues --   -0.43568  -0.43391  -0.43301  -0.42851  -0.42673
 Alpha  occ. eigenvalues --   -0.42258  -0.42183  -0.42146  -0.42104  -0.41950
 Alpha  occ. eigenvalues --   -0.41523  -0.41483  -0.41304  -0.41270  -0.41154
 Alpha  occ. eigenvalues --   -0.41039  -0.41005  -0.40821  -0.40643  -0.40551
 Alpha  occ. eigenvalues --   -0.40331  -0.40261  -0.40162  -0.40015  -0.39872
 Alpha  occ. eigenvalues --   -0.39802  -0.39655  -0.39252  -0.39217  -0.38957
 Alpha  occ. eigenvalues --   -0.38871  -0.38745  -0.38500  -0.38466  -0.38407
 Alpha  occ. eigenvalues --   -0.38375  -0.38247  -0.38141  -0.38036  -0.37959
 Alpha  occ. eigenvalues --   -0.37811  -0.37714  -0.37523  -0.37428  -0.37196
 Alpha  occ. eigenvalues --   -0.37142  -0.36957  -0.36821  -0.36780  -0.36331
 Alpha  occ. eigenvalues --   -0.36090  -0.35662  -0.35384  -0.35193  -0.35185
 Alpha  occ. eigenvalues --   -0.35086  -0.34971  -0.34937  -0.34825  -0.34713
 Alpha  occ. eigenvalues --   -0.34542  -0.34270  -0.34131  -0.34043  -0.33763
 Alpha  occ. eigenvalues --   -0.33467  -0.33332  -0.33033  -0.32827  -0.32572
 Alpha  occ. eigenvalues --   -0.31970  -0.31697  -0.31670  -0.31531  -0.31237
 Alpha  occ. eigenvalues --   -0.31128  -0.30878  -0.30257  -0.30244  -0.29750
 Alpha  occ. eigenvalues --   -0.29240  -0.29186  -0.28921  -0.28609  -0.28429
 Alpha  occ. eigenvalues --   -0.27715  -0.27298  -0.27162  -0.26740  -0.26310
 Alpha  occ. eigenvalues --   -0.26111  -0.25981  -0.25786  -0.25169  -0.24293
 Alpha  occ. eigenvalues --   -0.24062  -0.23906  -0.23846  -0.23721  -0.23660
 Alpha  occ. eigenvalues --   -0.23087  -0.22826  -0.22548  -0.21977  -0.21917
 Alpha  occ. eigenvalues --   -0.21893  -0.21246  -0.21135  -0.20983  -0.20809
 Alpha  occ. eigenvalues --   -0.20183  -0.19820  -0.19491  -0.19031  -0.18736
 Alpha  occ. eigenvalues --   -0.18234  -0.17474  -0.15789
 Alpha virt. eigenvalues --   -0.09955  -0.04344  -0.03091  -0.02434  -0.01281
 Alpha virt. eigenvalues --   -0.00735  -0.00370  -0.00241  -0.00012   0.00266
 Alpha virt. eigenvalues --    0.00502   0.00548   0.01731   0.02196   0.02526

 Mulliken charges:
               1
     1  C    0.055669
     2  C    0.032955
     3  O   -0.301415
     4  H    0.020541
     5  H    0.031919
     6  H    0.025892
     7  N   -0.116831
     8  C    0.127254
     9  C    0.034371
    10  O   -0.301383
    11  C    0.071784
    12  C    0.116059
    13  O   -0.384018
    14  O   -0.447195
    15  H    0.117084
    16  H   -0.002304
    17  H    0.004134
    18  H    0.016035
    19  N   -0.130738
    20  C    0.167710
    21  C    0.045416
    22  O   -0.311200
    23  C    0.003884
    24  C   -0.019812
    25  C   -0.045167
    26  C    0.034178
    27  N    0.075497
    28  H    0.157691
    29  H    0.003284
    30  H    0.044966
    31  H    0.018606
    32  H   -0.001822
    33  H    0.023906
    34  H    0.067809
    35  H    0.046266
    36  H    0.070027
    37  H    0.078199
    38  H    0.190811
    39  H    0.186017
    40  H    0.204496
    41  N   -0.173091
    42  C    0.155464
    43  C    0.081053
    44  O   -0.276579
    45  C    0.065997
    46  C    0.102358
    47  O   -0.396707
    48  O   -0.478886
    49  H    0.169204
    50  H    0.008226
    51  H   -0.015170
    52  H    0.019299
    53  N   -0.164476
    54  C    0.251255
    55  C    0.026137
    56  O   -0.301571
    57  H    0.139030
    58  H    0.005251
    59  H    0.015987
    60  N   -0.153846
    61  C    0.175245
    62  C    0.017769
    63  O   -0.302094
    64  C    0.118204
    65  C    0.054094
    66  N   -0.043876
    67  O   -0.387743
    68  H    0.152582
    69  H    0.031004
    70  H    0.079604
    71  H    0.019093
    72  H    0.126428
    73  H    0.123121
    74  N   -0.183601
    75  C    0.238905
    76  C    0.018641
    77  O   -0.301236
    78  H    0.145156
    79  H    0.050171
    80  H    0.029672
    81  N   -0.119532
    82  C    0.098302
    83  C    0.140423
    84  O   -0.351488
    85  C    0.106748
    86  C    0.002000
    87  C    0.028196
    88  C    0.039104
    89  C   -0.006664
    90  C   -0.041925
    91  C    0.140697
    92  O   -0.175722
    93  H    0.143862
    94  H    0.009337
    95  H    0.006565
    96  H   -0.061841
    97  H   -0.054955
    98  H   -0.037695
    99  H   -0.023149
   100  H   -0.042924
   101  H    0.164691
   102  N   -0.113935
   103  C    0.118250
   104  C    0.079840
   105  O   -0.275593
   106  C   -0.092027
   107  C    0.073501
   108  C    0.058979
   109  C   -0.065796
   110  H    0.128390
   111  H    0.030424
   112  H   -0.018420
   113  H   -0.011135
   114  H   -0.013617
   115  H    0.009444
   116  H    0.019635
   117  H    0.014717
   118  H   -0.005780
   119  H    0.032610
   120  H    0.045417
   121  N   -0.128960
   122  C    0.087661
   123  C    0.074069
   124  O   -0.282360
   125  C    0.255431
   126  O   -0.345412
   127  H    0.151137
   128  H    0.016720
   129  H    0.012163
   130  H   -0.017286
   131  H    0.167580
   132  N   -0.118764
   133  C    0.076503
   134  C    0.086587
   135  O   -0.253926
   136  C    0.034600
   137  H    0.108885
   138  H    0.030996
   139  H    0.023499
   140  H    0.009700
   141  H    0.048943
   142  N   -0.141549
   143  C    0.075067
   144  C    0.100605
   145  O   -0.242398
   146  C    0.025124
   147  H    0.106438
   148  H    0.013864
   149  H    0.021702
   150  H    0.000166
   151  H    0.023730
   152  N   -0.178029
   153  C    0.151072
   154  C    0.030760
   155  O   -0.279372
   156  C   -0.010435
   157  C    0.095644
   158  C    0.163576
   159  O   -0.393210
   160  O   -0.465062
   161  H    0.122669
   162  H   -0.029402
   163  H    0.045058
   164  H   -0.002944
   165  H    0.002015
   166  H   -0.029634
   167  N   -0.155050
   168  C    0.135695
   169  H    0.003486
   170  H    0.025155
   171  H    0.031979
   172  H    0.118101
   173  Ca   1.290460
   174  O   -0.286947
   175  H    0.185988
   176  H    0.178332
 Sum of Mulliken charges =   0.00000

 Dipole moment (field-independent basis, Debye):
    X=             29.5383    Y=              3.5770    Z=             -4.2645  Tot=             30.0582
 Quadrupole moment (field-independent basis, Debye-Ang):
   XX=           -621.7092   YY=           -380.4488   ZZ=           -514.3798
   XY=            190.7495   XZ=            -25.4679   YZ=             59.7956

 ESP charges:
               1
     1  C   -0.447854
     2  C    0.829559
     3  O   -0.641776
     4  H    0.102150
     5  H    0.133366
     6  H    0.112464
     7  N   -0.824080
     8  C    0.181203
     9  C    0.709644
    10  O   -0.612216
    11  C   -0.091114
    12  C    0.812200
    13  O   -0.799764
    14  O   -0.756565
    15  H    0.383464
    16  H    0.023742
    17  H    0.032299
    18  H    0.030419
    19  N   -0.320903
    20  C   -0.356383
    21  C    0.576114
    22  O   -0.602464
    23  C    0.254982
    24  C   -0.092782
    25  C   -0.021159
    26  C    0.020344
    27  N   -0.275083
    28  H    0.194614
    29  H    0.166484
    30  H   -0.017774
    31  H    0.020376
    32  H    0.012821
    33  H    0.032576
    34  H    0.056519
    35  H    0.043370
    36  H    0.084748
    37  H    0.067700
    38  H    0.325692
    39  H    0.297324
    40  H    0.294932
    41  N   -0.207493
    42  C   -0.120246
    43  C    0.494312
    44  O   -0.534867
    45  C   -0.115018
    46  C    0.729666
    47  O   -0.722848
    48  O   -0.753472
    49  H    0.202121
    50  H    0.131875
    51  H    0.020234
    52  H    0.069393
    53  N   -0.265143
    54  C   -0.065774
    55  C    0.533206
    56  O   -0.608287
    57  H    0.147017
    58  H    0.084044
    59  H    0.080301
    60  N   -0.211420
    61  C   -0.005709
    62  C    0.391935
    63  O   -0.546081
    64  C   -0.398853
    65  C    0.808951
    66  N   -0.790996
    67  O   -0.697745
    68  H    0.223068
    69  H    0.150485
    70  H    0.194660
    71  H    0.110429
    72  H    0.357707
    73  H    0.360670
    74  N   -0.078464
    75  C   -0.430836
    76  C    0.688296
    77  O   -0.584207
    78  H    0.235674
    79  H    0.195106
    80  H    0.135599
    81  N   -0.392626
    82  C   -0.053291
    83  C    0.707353
    84  O   -0.708448
    85  C   -0.148927
    86  C    0.235331
    87  C   -0.371593
    88  C   -0.269042
    89  C   -0.057777
    90  C   -0.140280
    91  C    0.199941
    92  O   -0.501631
    93  H    0.344302
    94  H    0.075917
    95  H    0.038428
    96  H    0.054683
    97  H    0.166591
    98  H    0.169393
    99  H    0.132776
   100  H    0.097700
   101  H    0.400583
   102  N   -0.507715
   103  C   -0.024729
   104  C    0.629213
   105  O   -0.564090
   106  C   -0.048193
   107  C   -0.025147
   108  C   -0.179607
   109  C   -0.204525
   110  H    0.309528
   111  H    0.136696
   112  H    0.037144
   113  H    0.039548
   114  H    0.031495
   115  H    0.078771
   116  H    0.063565
   117  H    0.005891
   118  H    0.064647
   119  H    0.112019
   120  H    0.083163
   121  N   -0.464153
   122  C    0.136938
   123  C    0.434473
   124  O   -0.407351
   125  C    0.035692
   126  O   -0.481374
   127  H    0.350714
   128  H    0.048073
   129  H    0.033550
   130  H    0.034770
   131  H    0.351265
   132  N   -0.445325
   133  C    0.128434
   134  C    0.517813
   135  O   -0.522797
   136  C   -0.280932
   137  H    0.280082
   138  H    0.077563
   139  H    0.094330
   140  H    0.056667
   141  H    0.106999
   142  N   -0.398026
   143  C    0.047865
   144  C    0.396778
   145  O   -0.498940
   146  C   -0.277000
   147  H    0.268485
   148  H    0.096746
   149  H    0.088962
   150  H    0.055245
   151  H    0.097844
   152  N   -0.011515
   153  C   -0.416617
   154  C    0.740690
   155  O   -0.603854
   156  C    0.214827
   157  C   -0.303002
   158  C    0.870621
   159  O   -0.750014
   160  O   -0.743978
   161  H    0.131762
   162  H    0.117419
   163  H    0.049720
   164  H   -0.192930
   165  H    0.047845
   166  H    0.105138
   167  N   -0.353579
   168  C   -0.071981
   169  H    0.032419
   170  H    0.060191
   171  H    0.085465
   172  H    0.228042
   173  Ca   1.637365
   174  O   -0.856921
   175  H    0.430745
   176  H    0.425217
 Sum of ESP charges =   0.00000

 Normal termination of Gaussian 09 at Mon Sep 16 20:11:09 2019.
