 Gaussian 16, Revision A.03,
 Gaussian 16:  ES64L-G16RevA.03 25-Dec-2016

 ----------------------------------------------------------------------
 #b3lyp/svp scf=(tight,noincore) Test #IOP(5/87=12) Density=Current Pop
 =(MK,readradii) iop(6/33=2) iop(6/42=6)
 ----------------------------------------------------------------------

 ------------------
 holoCaM_loop3_39.0
 ------------------
 Symbolic Z-matrix:
 Charge =  0 Multiplicity = 1

                         Standard orientation:
 ---------------------------------------------------------------------
 Center     Atomic      Atomic             Coordinates (Angstroms)
 Number     Number       Type             X           Y           Z
 ---------------------------------------------------------------------
      1          6           0        1.983747    3.108717    5.177737
      2          6           0        1.506672    2.628660    3.809108
      3          8           0        2.257358    2.517329    2.847352
      4          1           0        1.677883    2.392336    5.940444
      5          1           0        3.070301    3.193812    5.174626
      6          1           0        1.543532    4.081938    5.396594
      7          7           0        0.191467    2.599676    3.600553
      8          6           0       -0.483745    2.600891    2.317475
      9          6           0       -0.473601    4.004424    1.743897
     10          8           0       -0.795114    5.000620    2.402626
     11          6           0       -1.895549    2.109649    2.650480
     12          6           0       -2.742137    2.083239    1.386561
     13          8           0       -3.826332    2.688318    1.345329
     14          8           0       -2.284969    1.430358    0.416332
     15          1           0       -0.421800    2.711733    4.393740
     16          1           0       -0.094836    1.828483    1.649991
     17          1           0       -2.339755    2.810413    3.356816
     18          1           0       -1.856351    1.108481    3.060757
     19          7           0       -0.007449    4.018279    0.489620
     20          6           0        0.150181    5.232506   -0.269460
     21          6           0       -0.830298    5.381386   -1.418719
     22          8           0       -0.883334    6.443876   -2.047051
     23          6           0        1.569773    5.211975   -0.842731
     24          6           0        2.622976    5.330351    0.261964
     25          6           0        2.531579    6.650034    1.023660
     26          6           0        3.940448    6.898117    1.545621
     27          7           0        4.300913    6.133283    2.748573
     28          1           0        0.218210    3.181795   -0.034186
     29          1           0        0.054421    6.146517    0.311930
     30          1           0        1.829767    6.002693   -1.542136
     31          1           0        1.733032    4.263807   -1.355004
     32          1           0        3.604931    5.337491   -0.208795
     33          1           0        2.512327    4.530367    0.994686
     34          1           0        1.782253    6.669984    1.818841
     35          1           0        2.301253    7.418215    0.279786
     36          1           0        4.091122    7.965709    1.713390
     37          1           0        4.752970    6.750926    0.839971
     38          1           0        4.237218    5.127910    2.613419
     39          1           0        5.159065    6.433026    3.184268
     40          1           0        3.616902    6.319963    3.465427
     41          7           0       -1.732860    4.425046   -1.663865
     42          6           0       -2.685208    4.544479   -2.755317
     43          6           0       -4.167967    4.590003   -2.429201
     44          8           0       -5.052146    5.081963   -3.125335
     45          6           0       -2.539728    3.420536   -3.774036
     46          6           0       -2.328141    2.031340   -3.205913
     47          8           0       -1.410573    1.272631   -3.577032
     48          8           0       -3.000962    1.666678   -2.218323
     49          1           0       -1.780833    3.640937   -1.036592
     50          1           0       -2.509194    5.484618   -3.285842
     51          1           0       -1.663331    3.633407   -4.401742
     52          1           0       -3.350674    3.438929   -4.497935
     53          7           0       -4.501125    4.063410   -1.241344
     54          6           0       -5.842341    3.986862   -0.707227
     55          6           0       -6.512948    2.624055   -0.841556
     56          8           0       -7.691969    2.504908   -0.536084
     57          1           0       -3.849106    3.659487   -0.584596
     58          1           0       -6.489473    4.707087   -1.213880
     59          1           0       -5.721282    4.125378    0.361397
     60          7           0       -5.821502    1.547585   -1.229904
     61          6           0       -6.238697    0.162815   -1.185625
     62          6           0       -5.913106   -0.551829    0.106572
     63          8           0       -6.354102   -1.684647    0.285587
     64          6           0       -5.707087   -0.511953   -2.450607
     65          6           0       -4.321343   -1.134563   -2.352271
     66          7           0       -3.758988   -1.558799   -3.487295
     67          8           0       -3.676040   -1.388321   -1.335515
     68          1           0       -4.821239    1.668003   -1.337024
     69          1           0       -7.317691    0.105565   -1.326318
     70          1           0       -5.777885    0.165021   -3.292625
     71          1           0       -6.320941   -1.371869   -2.714474
     72          1           0       -4.127017   -1.239494   -4.372055
     73          1           0       -3.075310   -2.306365   -3.455213
     74          7           0       -5.194675    0.071654    1.048498
     75          6           0       -4.947372   -0.335572    2.422947
     76          6           0       -4.159920   -1.624605    2.628653
     77          8           0       -3.965630   -1.986530    3.782109
     78          1           0       -4.720614    0.947668    0.841942
     79          1           0       -5.858721   -0.369430    3.016997
     80          1           0       -4.407373    0.537780    2.781497
     81          7           0       -3.587946   -2.278325    1.629806
     82          6           0       -2.698527   -3.427371    1.618472
     83          6           0       -1.305089   -2.871782    1.349672
     84          8           0       -1.147383   -2.044921    0.455509
     85          6           0       -3.066946   -4.444880    0.540770
     86          6           0       -4.476249   -4.969032    0.577277
     87          6           0       -5.055951   -5.424928   -0.609738
     88          6           0       -5.138582   -5.123480    1.810428
     89          6           0       -6.337936   -5.968362   -0.600033
     90          6           0       -6.437907   -5.652186    1.868942
     91          6           0       -6.987256   -6.101502    0.649749
     92          8           0       -8.243272   -6.629491    0.637385
     93          1           0       -3.803713   -1.913240    0.711570
     94          1           0       -2.777321   -3.842975    2.621450
     95          1           0       -2.387768   -5.291672    0.697489
     96          1           0       -2.886636   -3.955615   -0.413540
     97          1           0       -4.549768   -5.321389   -1.559295
     98          1           0       -4.713158   -4.662631    2.678894
     99          1           0       -6.833103   -6.275086   -1.515200
    100          1           0       -6.956376   -5.574847    2.812821
    101          1           0       -8.607235   -6.626340    1.525372
    102          7           0       -0.307550   -3.456667    2.028072
    103          6           0        1.072898   -3.078382    1.810208
    104          6           0        1.849368   -3.934110    0.819994
    105          8           0        2.122779   -5.095678    1.126272
    106          6           0        1.755188   -2.910435    3.165632
    107          6           0        1.134585   -1.961735    4.191362
    108          6           0        3.167685   -2.400174    2.855818
    109          6           0        0.612846   -0.714304    3.494366
    110          1           0       -0.448743   -4.215625    2.672003
    111          1           0        0.977574   -2.093100    1.349956
    112          1           0        1.755959   -3.881433    3.651495
    113          1           0        1.898315   -1.776232    4.943496
    114          1           0        0.220206   -2.390399    4.596154
    115          1           0        3.759584   -2.594039    3.747430
    116          1           0        3.646604   -2.947227    2.039627
    117          1           0        3.260462   -1.318168    2.797888
    118          1           0        0.217218   -0.050275    4.263875
    119          1           0        1.349697   -0.247227    2.830522
    120          1           0       -0.312053   -0.906825    2.955481
    121          7           0        2.283904   -3.285951   -0.272237
    122          6           0        3.112458   -3.846403   -1.320756
    123          6           0        4.564565   -3.415033   -1.217766
    124          8           0        4.952404   -2.613737   -0.377287
    125          6           0        2.469190   -3.482139   -2.661061
    126          8           0        2.666907   -2.151055   -3.060089
    127          1           0        2.003465   -2.320120   -0.370338
    128          1           0        3.158928   -4.930811   -1.200338
    129          1           0        1.380343   -3.552959   -2.596282
    130          1           0        2.790464   -4.145612   -3.463300
    131          1           0        2.232632   -1.565545   -2.436324
    132          7           0        5.395220   -4.101295   -2.016550
    133          6           0        6.783718   -4.233290   -1.635038
    134          6           0        7.470335   -2.869204   -1.653163
    135          8           0        8.442203   -2.628475   -0.948237
    136          6           0        7.402369   -5.367572   -2.439510
    137          1           0        5.081706   -4.800899   -2.666676
    138          1           0        6.884597   -4.522458   -0.585893
    139          1           0        6.955659   -6.243848   -1.983450
    140          1           0        7.030065   -5.243600   -3.461479
    141          1           0        8.488994   -5.332778   -2.414305
    142          7           0        7.010627   -1.910036   -2.456259
    143          6           0        7.566320   -0.573859   -2.516573
    144          6           0        7.106685    0.321972   -1.374678
    145          8           0        7.824215    1.183783   -0.869672
    146          6           0        7.139074    0.115030   -3.810479
    147          1           0        6.145485   -2.168601   -2.921204
    148          1           0        8.624527   -0.752973   -2.375453
    149          1           0        7.725831    1.035394   -3.957600
    150          1           0        7.631586   -0.472913   -4.584918
    151          1           0        6.075982    0.263256   -3.956307
    152          7           0        5.870839    0.114173   -0.917180
    153          6           0        5.290983    0.757038    0.246044
    154          6           0        6.075971    0.459712    1.509963
    155          8           0        6.378777    1.330626    2.321761
    156          6           0        3.808051    0.408757    0.373372
    157          6           0        3.111435    1.118629   -0.778761
    158          6           0        1.655142    0.702265   -0.975864
    159          8           0        0.720825    1.520998   -0.981197
    160          8           0        1.321741   -0.498904   -1.076047
    161          1           0        5.292010   -0.477802   -1.509652
    162          1           0        5.410702    1.804573   -0.017278
    163          1           0        3.438857    0.917943    1.260460
    164          1           0        3.601411   -0.646950    0.546817
    165          1           0        3.674237    0.965515   -1.696318
    166          1           0        3.049646    2.193905   -0.610939
    167          7           0        6.349159   -0.837418    1.707508
    168          6           0        7.233443   -1.328780    2.739498
    169          1           0        6.655822   -1.886050    3.477294
    170          1           0        7.982450   -1.984587    2.295063
    171          1           0        7.728234   -0.488156    3.225854
    172          1           0        6.004269   -1.467111    0.992359
    173         20           0       -1.286453   -0.141717   -1.306502
    174          8           0       -0.885052   -2.109507   -3.110385
    175          1           0       -1.019473   -2.991458   -2.771130
    176          1           0       -0.348109   -2.223722   -3.895209
 ---------------------------------------------------------------------

 SCF Done:  E(RB3LYP) =  -5333.63436453     A.U. after   15 cycles

 The electronic state is 1-A.
 Alpha  occ. eigenvalues -- -145.36175 -19.20612 -19.15124 -19.14869 -19.14765
 Alpha  occ. eigenvalues --  -19.13838 -19.12019 -19.11645 -19.11091 -19.10643
 Alpha  occ. eigenvalues --  -19.10180 -19.10114 -19.09757 -19.08810 -19.07698
 Alpha  occ. eigenvalues --  -19.07278 -19.06361 -19.06032 -19.05575 -19.05549
 Alpha  occ. eigenvalues --  -19.04713 -19.04432 -19.04417 -19.03730 -15.41925
 Alpha  occ. eigenvalues --  -14.56736 -14.39969 -14.38305 -14.37045 -14.36351
 Alpha  occ. eigenvalues --  -14.36249 -14.35903 -14.35230 -14.34824 -14.33496
 Alpha  occ. eigenvalues --  -14.33170 -14.32618 -14.31044 -14.29797 -14.29487
 Alpha  occ. eigenvalues --  -12.55527 -12.55512 -12.55491 -10.33348 -10.32957
 Alpha  occ. eigenvalues --  -10.31382 -10.30551 -10.30316 -10.29754 -10.29060
 Alpha  occ. eigenvalues --  -10.29040 -10.28449 -10.27338 -10.27115 -10.26509
 Alpha  occ. eigenvalues --  -10.26420 -10.26387 -10.26060 -10.25805 -10.25764
 Alpha  occ. eigenvalues --  -10.25245 -10.24675 -10.24050 -10.23984 -10.23795
 Alpha  occ. eigenvalues --  -10.23720 -10.23581 -10.23563 -10.23298 -10.22854
 Alpha  occ. eigenvalues --  -10.22834 -10.22576 -10.22459 -10.22403 -10.22313
 Alpha  occ. eigenvalues --  -10.20720 -10.20486 -10.20461 -10.20433 -10.20327
 Alpha  occ. eigenvalues --  -10.19875 -10.19875 -10.19862 -10.19740 -10.19595
 Alpha  occ. eigenvalues --  -10.19268 -10.18868 -10.18273 -10.18117 -10.17982
 Alpha  occ. eigenvalues --  -10.17817 -10.17770 -10.17714 -10.17680 -10.17511
 Alpha  occ. eigenvalues --  -10.17284 -10.15465  -1.78853  -1.11994  -1.08156
 Alpha  occ. eigenvalues --   -1.07268  -1.07037  -1.06797  -1.05919  -1.05824
 Alpha  occ. eigenvalues --   -1.05359  -1.04804  -1.04654  -1.04059  -1.03840
 Alpha  occ. eigenvalues --   -1.03681  -1.03319  -1.02345  -1.02022  -1.00559
 Alpha  occ. eigenvalues --   -1.00553  -1.00276  -1.00247  -0.99987  -0.98738
 Alpha  occ. eigenvalues --   -0.97833  -0.97394  -0.97117  -0.95096  -0.94408
 Alpha  occ. eigenvalues --   -0.93993  -0.93330  -0.93184  -0.92894  -0.91720
 Alpha  occ. eigenvalues --   -0.90825  -0.90728  -0.90254  -0.89662  -0.89311
 Alpha  occ. eigenvalues --   -0.88732  -0.88298  -0.87719  -0.87051  -0.85869
 Alpha  occ. eigenvalues --   -0.83820  -0.82937  -0.82050  -0.81092  -0.80409
 Alpha  occ. eigenvalues --   -0.79001  -0.78654  -0.78333  -0.77906  -0.76708
 Alpha  occ. eigenvalues --   -0.76109  -0.74748  -0.74694  -0.74103  -0.73569
 Alpha  occ. eigenvalues --   -0.73054  -0.72743  -0.71400  -0.71025  -0.70547
 Alpha  occ. eigenvalues --   -0.69951  -0.69711  -0.68604  -0.68478  -0.68277
 Alpha  occ. eigenvalues --   -0.68091  -0.66166  -0.65759  -0.65607  -0.65435
 Alpha  occ. eigenvalues --   -0.64724  -0.63877  -0.63094  -0.62578  -0.62127
 Alpha  occ. eigenvalues --   -0.62008  -0.61298  -0.61277  -0.61061  -0.60173
 Alpha  occ. eigenvalues --   -0.59928  -0.59918  -0.59330  -0.59198  -0.58866
 Alpha  occ. eigenvalues --   -0.58209  -0.57988  -0.57665  -0.57260  -0.56306
 Alpha  occ. eigenvalues --   -0.56190  -0.55992  -0.55758  -0.55576  -0.55327
 Alpha  occ. eigenvalues --   -0.55058  -0.54585  -0.53898  -0.53807  -0.53687
 Alpha  occ. eigenvalues --   -0.53655  -0.53289  -0.52573  -0.52477  -0.52080
 Alpha  occ. eigenvalues --   -0.51842  -0.51119  -0.51025  -0.50712  -0.50476
 Alpha  occ. eigenvalues --   -0.50247  -0.50118  -0.50035  -0.49532  -0.49165
 Alpha  occ. eigenvalues --   -0.49015  -0.48860  -0.48662  -0.48461  -0.48208
 Alpha  occ. eigenvalues --   -0.48149  -0.47828  -0.47691  -0.47444  -0.47276
 Alpha  occ. eigenvalues --   -0.47126  -0.46858  -0.46734  -0.46395  -0.46304
 Alpha  occ. eigenvalues --   -0.46110  -0.45860  -0.45679  -0.45380  -0.45105
 Alpha  occ. eigenvalues --   -0.45026  -0.44957  -0.44884  -0.44807  -0.44679
 Alpha  occ. eigenvalues --   -0.44318  -0.44144  -0.44081  -0.43850  -0.43791
 Alpha  occ. eigenvalues --   -0.43694  -0.43559  -0.43439  -0.42943  -0.42770
 Alpha  occ. eigenvalues --   -0.42598  -0.42514  -0.42314  -0.42122  -0.42060
 Alpha  occ. eigenvalues --   -0.42042  -0.41906  -0.41859  -0.41724  -0.41574
 Alpha  occ. eigenvalues --   -0.41465  -0.41281  -0.41217  -0.40941  -0.40739
 Alpha  occ. eigenvalues --   -0.40542  -0.40458  -0.40380  -0.40261  -0.40147
 Alpha  occ. eigenvalues --   -0.39886  -0.39856  -0.39605  -0.39480  -0.39407
 Alpha  occ. eigenvalues --   -0.39295  -0.39215  -0.39158  -0.39041  -0.38865
 Alpha  occ. eigenvalues --   -0.38792  -0.38754  -0.38458  -0.38393  -0.38044
 Alpha  occ. eigenvalues --   -0.37943  -0.37788  -0.37659  -0.37297  -0.37263
 Alpha  occ. eigenvalues --   -0.37119  -0.36984  -0.36939  -0.36782  -0.36675
 Alpha  occ. eigenvalues --   -0.36181  -0.35770  -0.35670  -0.35649  -0.35588
 Alpha  occ. eigenvalues --   -0.35235  -0.35205  -0.35021  -0.34922  -0.34790
 Alpha  occ. eigenvalues --   -0.34578  -0.34468  -0.34084  -0.33994  -0.33646
 Alpha  occ. eigenvalues --   -0.33510  -0.33234  -0.32833  -0.32273  -0.32024
 Alpha  occ. eigenvalues --   -0.31927  -0.31813  -0.31693  -0.31215  -0.31126
 Alpha  occ. eigenvalues --   -0.30220  -0.30017  -0.29485  -0.28959  -0.28810
 Alpha  occ. eigenvalues --   -0.28473  -0.28341  -0.27913  -0.27758  -0.27656
 Alpha  occ. eigenvalues --   -0.27590  -0.27142  -0.26277  -0.26114  -0.25918
 Alpha  occ. eigenvalues --   -0.25725  -0.25428  -0.24995  -0.24928  -0.24568
 Alpha  occ. eigenvalues --   -0.24243  -0.23931  -0.23868  -0.23772  -0.23719
 Alpha  occ. eigenvalues --   -0.23254  -0.23114  -0.22959  -0.22871  -0.22636
 Alpha  occ. eigenvalues --   -0.21683  -0.21355  -0.21137  -0.20766  -0.20423
 Alpha  occ. eigenvalues --   -0.20001  -0.19525  -0.18506
 Alpha virt. eigenvalues --   -0.08521  -0.03533  -0.03230  -0.02537  -0.01786
 Alpha virt. eigenvalues --   -0.01081  -0.00570  -0.00511  -0.00199  -0.00062
 Alpha virt. eigenvalues --    0.00187   0.00492   0.00695   0.01243   0.01603

 Mulliken charges:
               1
     1  C    0.028657
     2  C    0.046683
     3  O   -0.296935
     4  H    0.043026
     5  H    0.013195
     6  H    0.033712
     7  N   -0.114096
     8  C    0.078711
     9  C    0.104138
    10  O   -0.288218
    11  C    0.078661
    12  C    0.119025
    13  O   -0.371594
    14  O   -0.459621
    15  H    0.119350
    16  H    0.017791
    17  H   -0.000491
    18  H    0.023922
    19  N   -0.168543
    20  C    0.118119
    21  C    0.067348
    22  O   -0.295755
    23  C    0.036113
    24  C   -0.014105
    25  C   -0.032512
    26  C    0.016889
    27  N    0.078270
    28  H    0.160115
    29  H    0.022767
    30  H    0.012762
    31  H    0.018400
    32  H    0.000937
    33  H    0.027340
    34  H    0.058277
    35  H    0.049147
    36  H    0.052540
    37  H    0.059681
    38  H    0.207443
    39  H    0.191402
    40  H    0.178027
    41  N   -0.131724
    42  C    0.118595
    43  C    0.063922
    44  O   -0.282746
    45  C    0.117464
    46  C    0.083051
    47  O   -0.409787
    48  O   -0.427688
    49  H    0.152658
    50  H    0.026808
    51  H   -0.007942
    52  H    0.013482
    53  N   -0.181095
    54  C    0.239174
    55  C   -0.000564
    56  O   -0.298450
    57  H    0.119092
    58  H    0.034933
    59  H    0.035140
    60  N   -0.162032
    61  C    0.171912
    62  C    0.065361
    63  O   -0.294007
    64  C    0.053795
    65  C    0.073569
    66  N   -0.038875
    67  O   -0.359726
    68  H    0.143560
    69  H    0.016873
    70  H    0.036437
    71  H    0.036919
    72  H    0.124581
    73  H    0.102541
    74  N   -0.183380
    75  C    0.215930
    76  C    0.026625
    77  O   -0.322197
    78  H    0.146301
    79  H    0.031190
    80  H    0.023554
    81  N   -0.124842
    82  C    0.068715
    83  C    0.161604
    84  O   -0.369265
    85  C    0.161526
    86  C    0.019928
    87  C   -0.010290
    88  C   -0.014371
    89  C    0.004837
    90  C   -0.031576
    91  C    0.162010
    92  O   -0.199973
    93  H    0.160164
    94  H   -0.002324
    95  H    0.008738
    96  H   -0.027101
    97  H   -0.055581
    98  H   -0.012416
    99  H   -0.027868
   100  H   -0.030390
   101  H    0.169237
   102  N   -0.114189
   103  C    0.119319
   104  C    0.073475
   105  O   -0.280446
   106  C   -0.108308
   107  C    0.079257
   108  C    0.046506
   109  C   -0.048064
   110  H    0.134251
   111  H   -0.005889
   112  H   -0.009892
   113  H    0.001497
   114  H   -0.010155
   115  H   -0.009869
   116  H    0.035902
   117  H    0.014819
   118  H   -0.007024
   119  H    0.050635
   120  H    0.023426
   121  N   -0.152211
   122  C    0.063033
   123  C    0.128528
   124  O   -0.248748
   125  C    0.261501
   126  O   -0.342236
   127  H    0.147637
   128  H    0.023597
   129  H   -0.050653
   130  H   -0.003665
   131  H    0.164840
   132  N   -0.152684
   133  C    0.063960
   134  C    0.040102
   135  O   -0.272044
   136  C    0.057795
   137  H    0.118644
   138  H    0.025452
   139  H    0.033538
   140  H    0.009530
   141  H    0.052726
   142  N   -0.134014
   143  C    0.091270
   144  C    0.058901
   145  O   -0.273019
   146  C    0.060153
   147  H    0.109588
   148  H    0.022393
   149  H    0.028782
   150  H    0.009943
   151  H    0.029812
   152  N   -0.155071
   153  C    0.136602
   154  C    0.075496
   155  O   -0.289817
   156  C   -0.012404
   157  C    0.069185
   158  C    0.180260
   159  O   -0.387388
   160  O   -0.459271
   161  H    0.108224
   162  H   -0.032469
   163  H    0.036858
   164  H    0.022757
   165  H    0.000864
   166  H   -0.001385
   167  N   -0.179801
   168  C    0.131711
   169  H    0.008081
   170  H    0.029558
   171  H    0.032049
   172  H    0.139577
   173  Ca   1.255132
   174  O   -0.258224
   175  H    0.189176
   176  H    0.198006
 Sum of Mulliken charges =  -0.00000

 Dipole moment (field-independent basis, Debye):
    X=             23.1124    Y=             -1.2393    Z=              3.7821  Tot=             23.4525
 Quadrupole moment (field-independent basis, Debye-Ang):
   XX=           -675.6603   YY=           -468.2685   ZZ=           -502.7209
   XY=            118.9820   XZ=              6.4003   YZ=            116.7926

 ESP charges:
               1
     1  C   -0.439605
     2  C    0.809648
     3  O   -0.652324
     4  H    0.121350
     5  H    0.107690
     6  H    0.114000
     7  N   -0.773042
     8  C    0.119661
     9  C    0.742654
    10  O   -0.584795
    11  C   -0.361221
    12  C    0.747846
    13  O   -0.589305
    14  O   -0.800995
    15  H    0.382574
    16  H    0.071710
    17  H    0.084270
    18  H    0.123411
    19  N   -0.385242
    20  C   -0.269817
    21  C    0.683856
    22  O   -0.581822
    23  C   -0.040354
    24  C    0.249198
    25  C   -0.241914
    26  C    0.091365
    27  N   -0.395386
    28  H    0.253453
    29  H    0.128799
    30  H    0.039575
    31  H    0.034315
    32  H   -0.048062
    33  H   -0.021205
    34  H    0.094419
    35  H    0.106710
    36  H    0.048337
    37  H    0.095885
    38  H    0.323707
    39  H    0.347028
    40  H    0.332095
    41  N   -0.425160
    42  C    0.016669
    43  C    0.385162
    44  O   -0.527808
    45  C   -0.175963
    46  C    0.669767
    47  O   -0.752903
    48  O   -0.601439
    49  H    0.308009
    50  H    0.116982
    51  H    0.049928
    52  H    0.076280
    53  N   -0.026736
    54  C   -0.388673
    55  C    0.693355
    56  O   -0.606075
    57  H    0.073121
    58  H    0.159233
    59  H    0.158368
    60  N   -0.354602
    61  C    0.038473
    62  C    0.323293
    63  O   -0.487835
    64  C   -0.257328
    65  C    0.670011
    66  N   -0.769549
    67  O   -0.481488
    68  H    0.122314
    69  H    0.127205
    70  H    0.117866
    71  H    0.094751
    72  H    0.352501
    73  H    0.323796
    74  N   -0.061950
    75  C   -0.272847
    76  C    0.622218
    77  O   -0.606142
    78  H    0.146071
    79  H    0.136715
    80  H    0.117856
    81  N   -0.404661
    82  C    0.341439
    83  C    0.610273
    84  O   -0.686988
    85  C   -0.299070
    86  C    0.252978
    87  C   -0.259785
    88  C   -0.274972
    89  C   -0.209783
    90  C   -0.297654
    91  C    0.370062
    92  O   -0.552705
    93  H    0.188791
    94  H   -0.042580
    95  H    0.058982
    96  H    0.080964
    97  H    0.137659
    98  H    0.204220
    99  H    0.161698
   100  H    0.166466
   101  H    0.404647
   102  N   -0.609477
   103  C    0.047988
   104  C    0.485225
   105  O   -0.551024
   106  C    0.338694
   107  C   -0.357904
   108  C   -0.471074
   109  C    0.076958
   110  H    0.349646
   111  H    0.062622
   112  H   -0.024380
   113  H    0.103335
   114  H    0.076473
   115  H    0.105531
   116  H    0.113934
   117  H    0.110227
   118  H    0.018514
   119  H    0.014514
   120  H    0.041437
   121  N   -0.049079
   122  C   -0.348233
   123  C    0.818053
   124  O   -0.596659
   125  C    0.326003
   126  O   -0.619613
   127  H    0.096477
   128  H    0.106835
   129  H   -0.073167
   130  H    0.021649
   131  H    0.372517
   132  N   -0.620857
   133  C    0.312554
   134  C    0.426618
   135  O   -0.538412
   136  C   -0.432966
   137  H    0.329549
   138  H    0.032274
   139  H    0.125522
   140  H    0.098368
   141  H    0.155138
   142  N   -0.359426
   143  C    0.167663
   144  C    0.230807
   145  O   -0.487510
   146  C   -0.419746
   147  H    0.195449
   148  H    0.113895
   149  H    0.137564
   150  H    0.099288
   151  H    0.133546
   152  N    0.065635
   153  C   -0.265325
   154  C    0.541059
   155  O   -0.572938
   156  C   -0.117104
   157  C    0.161315
   158  C    0.612954
   159  O   -0.639565
   160  O   -0.660606
   161  H    0.167716
   162  H    0.093768
   163  H    0.110304
   164  H    0.023344
   165  H   -0.050034
   166  H   -0.060785
   167  N   -0.158931
   168  C   -0.156637
   169  H    0.041801
   170  H    0.075861
   171  H    0.103150
   172  H    0.221487
   173  Ca   1.571648
   174  O   -0.706254
   175  H    0.370694
   176  H    0.420201
 Sum of ESP charges =   0.00000

 Normal termination of Gaussian 16 at Wed Sep 18 18:03:24 2019.
