 Gaussian 16, Revision A.03,
 Gaussian 16:  ES64L-G16RevA.03 25-Dec-2016

 ----------------------------------------------------------------------
 #b3lyp/svp scf=(tight,noincore) Test #IOP(5/87=12) Density=Current Pop
 =(MK,readradii) iop(6/33=2) iop(6/42=6)
 ----------------------------------------------------------------------

 ------------------
 holoCaM_loop3_75.0
 ------------------
 Symbolic Z-matrix:
 Charge =  0 Multiplicity = 1

                         Standard orientation:
 ---------------------------------------------------------------------
 Center     Atomic      Atomic             Coordinates (Angstroms)
 Number     Number       Type             X           Y           Z
 ---------------------------------------------------------------------
      1          6           0        2.508238    2.985179    4.982565
      2          6           0        1.839312    2.585790    3.674732
      3          8           0        2.482071    2.173530    2.704267
      4          1           0        2.964090    2.106875    5.439607
      5          1           0        3.277744    3.731037    4.784979
      6          1           0        1.763186    3.401353    5.659838
      7          7           0        0.509461    2.675661    3.622568
      8          6           0       -0.343816    2.522694    2.464372
      9          6           0       -0.415848    3.839014    1.680144
     10          8           0       -1.159209    4.753757    2.038000
     11          6           0       -1.687313    1.917863    2.874488
     12          6           0       -2.477093    1.655742    1.606048
     13          8           0       -3.703808    1.437622    1.712327
     14          8           0       -1.874398    1.685329    0.508832
     15          1           0       -0.036528    2.916082    4.435214
     16          1           0        0.221039    1.889746    1.782745
     17          1           0       -2.219280    2.682528    3.439199
     18          1           0       -1.513684    1.071158    3.539802
     19          7           0        0.370485    4.024778    0.627494
     20          6           0        0.627210    5.301729   -0.013666
     21          6           0       -0.504788    5.896093   -0.835988
     22          8           0       -0.603596    7.118649   -0.880627
     23          6           0        1.896575    5.191960   -0.851977
     24          6           0        3.184343    5.134747   -0.027309
     25          6           0        3.498581    6.464876    0.642700
     26          6           0        4.629528    6.454095    1.674855
     27          7           0        4.493005    5.444297    2.731202
     28          1           0        0.863355    3.231558    0.245419
     29          1           0        0.809919    6.045135    0.761489
     30          1           0        1.921944    6.035052   -1.541508
     31          1           0        1.753382    4.301217   -1.462118
     32          1           0        4.055958    4.925219   -0.634009
     33          1           0        3.131694    4.380666    0.763381
     34          1           0        2.578503    6.776819    1.137318
     35          1           0        3.877078    7.104400   -0.158018
     36          1           0        4.829735    7.458528    2.051063
     37          1           0        5.570444    6.278530    1.137031
     38          1           0        5.346477    5.413355    3.274275
     39          1           0        3.678729    5.622445    3.305848
     40          1           0        4.392142    4.520208    2.341734
     41          7           0       -1.220924    5.028265   -1.557531
     42          6           0       -2.403302    5.158777   -2.377744
     43          6           0       -3.807923    5.008854   -1.811032
     44          8           0       -4.861150    5.451443   -2.268991
     45          6           0       -2.121857    4.437992   -3.686238
     46          6           0       -1.907914    2.928170   -3.569332
     47          8           0       -1.692718    2.204369   -4.562863
     48          8           0       -1.891671    2.462312   -2.416591
     49          1           0       -0.968811    4.075092   -1.333923
     50          1           0       -2.468697    6.227244   -2.607964
     51          1           0       -1.176024    4.881038   -3.991048
     52          1           0       -2.963745    4.708727   -4.318558
     53          7           0       -3.722434    4.614319   -0.529379
     54          6           0       -4.828243    4.339843    0.359975
     55          6           0       -5.712751    3.242018   -0.203606
     56          8           0       -6.937108    3.354412   -0.226380
     57          1           0       -2.808169    4.289501   -0.248110
     58          1           0       -5.411739    5.211890    0.646273
     59          1           0       -4.444289    3.915393    1.290739
     60          7           0       -5.146973    2.144102   -0.709152
     61          6           0       -5.977398    1.136654   -1.345581
     62          6           0       -6.409174   -0.014698   -0.447941
     63          8           0       -7.251877   -0.860063   -0.722185
     64          6           0       -5.271261    0.654767   -2.602464
     65          6           0       -4.331292   -0.510303   -2.347963
     66          7           0       -4.386961   -1.485433   -3.258634
     67          8           0       -3.516904   -0.550570   -1.422679
     68          1           0       -4.142762    2.059254   -0.645424
     69          1           0       -6.946135    1.573477   -1.575006
     70          1           0       -4.663861    1.479616   -2.978614
     71          1           0       -6.033854    0.432778   -3.356171
     72          1           0       -4.935792   -1.554920   -4.103712
     73          1           0       -3.637919   -2.154405   -3.148126
     74          7           0       -5.908061   -0.171740    0.786248
     75          6           0       -6.186480   -1.079097    1.875324
     76          6           0       -5.222414   -2.241519    2.054911
     77          8           0       -5.594335   -3.181874    2.756342
     78          1           0       -5.125247    0.444121    0.978389
     79          1           0       -7.171604   -1.532225    1.726643
     80          1           0       -6.286765   -0.540286    2.812515
     81          7           0       -4.094899   -2.262262    1.334300
     82          6           0       -2.941457   -3.115242    1.549696
     83          6           0       -1.616229   -2.378645    1.424017
     84          8           0       -1.416047   -1.522964    0.566907
     85          6           0       -2.996683   -4.326125    0.624162
     86          6           0       -4.279728   -5.091011    0.419356
     87          6           0       -5.384437   -4.558447   -0.256213
     88          6           0       -4.301227   -6.419654    0.858041
     89          6           0       -6.610334   -5.233931   -0.343368
     90          6           0       -5.493878   -7.141140    0.741244
     91          6           0       -6.637887   -6.539569    0.174273
     92          8           0       -7.776184   -7.286368    0.198205
     93          1           0       -4.011929   -1.593455    0.578381
     94          1           0       -2.910316   -3.504417    2.569782
     95          1           0       -2.148235   -4.916921    0.957620
     96          1           0       -2.696060   -3.987099   -0.371071
     97          1           0       -5.301951   -3.597298   -0.737657
     98          1           0       -3.437923   -6.877177    1.318454
     99          1           0       -7.503785   -4.768022   -0.722412
    100          1           0       -5.506949   -8.151026    1.123158
    101          1           0       -7.699092   -8.134616    0.636191
    102          7           0       -0.647347   -2.816534    2.228766
    103          6           0        0.772370   -2.624363    2.068855
    104          6           0        1.271437   -3.595119    1.004400
    105          8           0        0.917889   -4.777153    1.005079
    106          6           0        1.529501   -2.628157    3.389476
    107          6           0        1.198759   -1.409996    4.235167
    108          6           0        3.037397   -2.826474    3.236119
    109          6           0        1.549462   -1.721328    5.685160
    110          1           0       -0.908192   -3.500946    2.937597
    111          1           0        0.866875   -1.639219    1.604138
    112          1           0        1.232866   -3.543416    3.917120
    113          1           0        0.133974   -1.172729    4.241437
    114          1           0        1.703472   -0.477714    3.981955
    115          1           0        3.292047   -3.644291    2.564309
    116          1           0        3.430526   -1.904237    2.802497
    117          1           0        3.568541   -2.956367    4.188597
    118          1           0        1.077626   -0.873330    6.194737
    119          1           0        1.098942   -2.582806    6.162536
    120          1           0        2.610739   -1.666721    5.920338
    121          7           0        2.015086   -3.155120   -0.011615
    122          6           0        2.522788   -3.916653   -1.131305
    123          6           0        4.027010   -3.762172   -1.256023
    124          8           0        4.604612   -2.976410   -0.508525
    125          6           0        1.792360   -3.682694   -2.448551
    126          8           0        1.843966   -2.313828   -2.757329
    127          1           0        2.248426   -2.173123    0.062106
    128          1           0        2.377117   -4.984102   -0.930231
    129          1           0        0.777026   -4.070123   -2.334991
    130          1           0        2.296731   -4.233231   -3.234820
    131          1           0        1.777008   -1.871072   -1.903582
    132          7           0        4.733668   -4.470729   -2.140320
    133          6           0        6.177918   -4.491709   -2.269172
    134          6           0        6.874851   -3.160659   -2.497185
    135          8           0        8.005341   -3.006073   -2.042657
    136          6           0        6.477814   -5.389946   -3.473884
    137          1           0        4.303662   -5.161049   -2.742195
    138          1           0        6.628365   -5.012151   -1.421860
    139          1           0        6.147935   -4.855166   -4.356658
    140          1           0        7.557463   -5.517882   -3.498206
    141          1           0        5.873507   -6.291592   -3.366421
    142          7           0        6.167298   -2.169255   -3.058155
    143          6           0        6.520410   -0.767432   -3.140641
    144          6           0        6.649133   -0.098064   -1.778115
    145          8           0        6.930275    1.103582   -1.802726
    146          6           0        5.484601   -0.017753   -3.967913
    147          1           0        5.232852   -2.342063   -3.406217
    148          1           0        7.497019   -0.677336   -3.618885
    149          1           0        5.539622   -0.538547   -4.916357
    150          1           0        4.477854   -0.123405   -3.553307
    151          1           0        5.729816    1.040459   -4.059874
    152          7           0        6.065522   -0.657646   -0.717518
    153          6           0        5.717547    0.148604    0.444451
    154          6           0        6.373117   -0.365433    1.721046
    155          8           0        6.311757    0.325984    2.728209
    156          6           0        4.201072    0.096348    0.568841
    157          6           0        3.584189    0.897190   -0.573047
    158          6           0        2.073804    0.781299   -0.690554
    159          8           0        1.423608    1.748581   -1.156507
    160          8           0        1.484951   -0.306970   -0.481933
    161          1           0        5.726602   -1.600141   -0.694324
    162          1           0        6.152841    1.141594    0.363273
    163          1           0        3.886772    0.601615    1.486729
    164          1           0        3.804955   -0.914151    0.437749
    165          1           0        3.952467    0.541057   -1.540384
    166          1           0        3.904876    1.930822   -0.474745
    167          7           0        6.972369   -1.564460    1.683214
    168          6           0        7.363059   -2.330712    2.848341
    169          1           0        6.933974   -1.876944    3.742037
    170          1           0        6.998330   -3.353287    2.750278
    171          1           0        8.450044   -2.338076    2.931554
    172          1           0        7.078621   -2.060260    0.817540
    173         20           0       -0.967743    0.312654   -1.407816
    174          8           0       -1.150324   -2.114851   -2.355910
    175          1           0       -1.048104   -2.084128   -3.304386
    176          1           0       -0.988739   -3.028002   -2.130641
 ---------------------------------------------------------------------

 SCF Done:  E(RB3LYP) =  -5333.60057592     A.U. after   21 cycles

 The electronic state is 1-A.
 Alpha  occ. eigenvalues -- -145.38368 -19.20590 -19.16778 -19.15305 -19.14153
 Alpha  occ. eigenvalues --  -19.13072 -19.12582 -19.12302 -19.11790 -19.11230
 Alpha  occ. eigenvalues --  -19.10955 -19.09502 -19.09446 -19.09432 -19.08972
 Alpha  occ. eigenvalues --  -19.07055 -19.06178 -19.06093 -19.05385 -19.04706
 Alpha  occ. eigenvalues --  -19.04460 -19.04262 -19.03673 -19.02160 -15.44092
 Alpha  occ. eigenvalues --  -14.57174 -14.41132 -14.38324 -14.38208 -14.37852
 Alpha  occ. eigenvalues --  -14.37625 -14.36818 -14.35525 -14.35018 -14.34710
 Alpha  occ. eigenvalues --  -14.32612 -14.32481 -14.30358 -14.29968 -14.29238
 Alpha  occ. eigenvalues --  -12.57715 -12.57679 -12.57644 -10.33975 -10.33917
 Alpha  occ. eigenvalues --  -10.32152 -10.31335 -10.30700 -10.30414 -10.30153
 Alpha  occ. eigenvalues --  -10.28852 -10.28404 -10.28267 -10.28054 -10.27674
 Alpha  occ. eigenvalues --  -10.27613 -10.27274 -10.26066 -10.26044 -10.25125
 Alpha  occ. eigenvalues --  -10.25084 -10.24845 -10.24760 -10.24406 -10.23885
 Alpha  occ. eigenvalues --  -10.23772 -10.23566 -10.23525 -10.23473 -10.23178
 Alpha  occ. eigenvalues --  -10.23056 -10.23000 -10.22834 -10.22724 -10.22623
 Alpha  occ. eigenvalues --  -10.22617 -10.21495 -10.20790 -10.20572 -10.20328
 Alpha  occ. eigenvalues --  -10.20009 -10.19390 -10.19372 -10.19135 -10.18880
 Alpha  occ. eigenvalues --  -10.18855 -10.18750 -10.18715 -10.18508 -10.18045
 Alpha  occ. eigenvalues --  -10.17852 -10.17692 -10.17636 -10.17417 -10.17183
 Alpha  occ. eigenvalues --  -10.17077 -10.14741  -1.80887  -1.12411  -1.08921
 Alpha  occ. eigenvalues --   -1.08704  -1.08386  -1.08167  -1.06582  -1.05783
 Alpha  occ. eigenvalues --   -1.05698  -1.05416  -1.05203  -1.04706  -1.04248
 Alpha  occ. eigenvalues --   -1.04180  -1.03033  -1.02992  -1.02360  -1.02268
 Alpha  occ. eigenvalues --   -0.99914  -0.99778  -0.99145  -0.98600  -0.98388
 Alpha  occ. eigenvalues --   -0.97924  -0.97830  -0.96891  -0.94950  -0.94822
 Alpha  occ. eigenvalues --   -0.94742  -0.94306  -0.93891  -0.92937  -0.91962
 Alpha  occ. eigenvalues --   -0.91498  -0.91152  -0.90105  -0.89978  -0.89888
 Alpha  occ. eigenvalues --   -0.87752  -0.87694  -0.87520  -0.86567  -0.85497
 Alpha  occ. eigenvalues --   -0.83899  -0.83245  -0.83158  -0.81523  -0.80161
 Alpha  occ. eigenvalues --   -0.79982  -0.79526  -0.78476  -0.78208  -0.76764
 Alpha  occ. eigenvalues --   -0.76267  -0.75936  -0.75334  -0.74190  -0.73764
 Alpha  occ. eigenvalues --   -0.73251  -0.72676  -0.72166  -0.71328  -0.70351
 Alpha  occ. eigenvalues --   -0.70245  -0.69885  -0.69747  -0.69082  -0.68724
 Alpha  occ. eigenvalues --   -0.68558  -0.66992  -0.66451  -0.65792  -0.65425
 Alpha  occ. eigenvalues --   -0.65000  -0.64047  -0.63428  -0.62878  -0.62707
 Alpha  occ. eigenvalues --   -0.61920  -0.61793  -0.61751  -0.60618  -0.60399
 Alpha  occ. eigenvalues --   -0.60317  -0.60259  -0.60072  -0.60021  -0.59122
 Alpha  occ. eigenvalues --   -0.58984  -0.58942  -0.58833  -0.58236  -0.56978
 Alpha  occ. eigenvalues --   -0.56661  -0.56504  -0.55902  -0.55540  -0.54966
 Alpha  occ. eigenvalues --   -0.54714  -0.54680  -0.54393  -0.54314  -0.53522
 Alpha  occ. eigenvalues --   -0.53397  -0.53113  -0.52667  -0.52475  -0.52293
 Alpha  occ. eigenvalues --   -0.52032  -0.51891  -0.51352  -0.50969  -0.50646
 Alpha  occ. eigenvalues --   -0.50505  -0.50495  -0.50399  -0.49964  -0.49879
 Alpha  occ. eigenvalues --   -0.49725  -0.49533  -0.49353  -0.48852  -0.48807
 Alpha  occ. eigenvalues --   -0.48327  -0.48186  -0.47977  -0.47759  -0.47727
 Alpha  occ. eigenvalues --   -0.47491  -0.47268  -0.47159  -0.46828  -0.46569
 Alpha  occ. eigenvalues --   -0.46507  -0.46119  -0.45822  -0.45587  -0.45561
 Alpha  occ. eigenvalues --   -0.45435  -0.45150  -0.44757  -0.44689  -0.44483
 Alpha  occ. eigenvalues --   -0.44412  -0.44377  -0.44196  -0.43921  -0.43839
 Alpha  occ. eigenvalues --   -0.43726  -0.43640  -0.43572  -0.43463  -0.43235
 Alpha  occ. eigenvalues --   -0.43057  -0.42997  -0.42914  -0.42547  -0.42453
 Alpha  occ. eigenvalues --   -0.42388  -0.42279  -0.42142  -0.41935  -0.41784
 Alpha  occ. eigenvalues --   -0.41456  -0.41292  -0.41230  -0.41031  -0.40964
 Alpha  occ. eigenvalues --   -0.40885  -0.40738  -0.40676  -0.40425  -0.40152
 Alpha  occ. eigenvalues --   -0.40080  -0.39889  -0.39849  -0.39783  -0.39651
 Alpha  occ. eigenvalues --   -0.39625  -0.39353  -0.39249  -0.39109  -0.38691
 Alpha  occ. eigenvalues --   -0.38638  -0.38497  -0.38413  -0.38252  -0.38182
 Alpha  occ. eigenvalues --   -0.37915  -0.37863  -0.37797  -0.37621  -0.37332
 Alpha  occ. eigenvalues --   -0.37153  -0.37106  -0.37018  -0.36813  -0.36458
 Alpha  occ. eigenvalues --   -0.36292  -0.36157  -0.35969  -0.35921  -0.35811
 Alpha  occ. eigenvalues --   -0.35285  -0.35239  -0.34800  -0.34668  -0.34598
 Alpha  occ. eigenvalues --   -0.34534  -0.34162  -0.34070  -0.33948  -0.33691
 Alpha  occ. eigenvalues --   -0.32979  -0.32733  -0.32551  -0.32510  -0.32407
 Alpha  occ. eigenvalues --   -0.32393  -0.31907  -0.31397  -0.31068  -0.30962
 Alpha  occ. eigenvalues --   -0.30920  -0.29982  -0.29715  -0.29629  -0.29442
 Alpha  occ. eigenvalues --   -0.29048  -0.28843  -0.28485  -0.28142  -0.27905
 Alpha  occ. eigenvalues --   -0.27704  -0.27584  -0.27257  -0.26765  -0.26531
 Alpha  occ. eigenvalues --   -0.26024  -0.25541  -0.25080  -0.25010  -0.24306
 Alpha  occ. eigenvalues --   -0.24201  -0.24052  -0.23879  -0.23653  -0.23460
 Alpha  occ. eigenvalues --   -0.23020  -0.22714  -0.22444  -0.22370  -0.22067
 Alpha  occ. eigenvalues --   -0.21045  -0.20432  -0.20349  -0.20271  -0.19751
 Alpha  occ. eigenvalues --   -0.19328  -0.18748  -0.18258
 Alpha virt. eigenvalues --   -0.08981  -0.03954  -0.03576  -0.02920  -0.02795
 Alpha virt. eigenvalues --   -0.01550  -0.01456  -0.01415  -0.00603  -0.00464
 Alpha virt. eigenvalues --    0.00073   0.00169   0.00688   0.00888   0.01283

 Mulliken charges:
               1
     1  C    0.090150
     2  C    0.009696
     3  O   -0.300398
     4  H    0.065357
     5  H   -0.046340
     6  H    0.017085
     7  N   -0.108047
     8  C    0.093667
     9  C    0.037452
    10  O   -0.290157
    11  C    0.089447
    12  C    0.178086
    13  O   -0.365762
    14  O   -0.474394
    15  H    0.120780
    16  H   -0.000051
    17  H    0.013692
    18  H    0.010662
    19  N   -0.132347
    20  C    0.066260
    21  C    0.068883
    22  O   -0.277427
    23  C    0.065855
    24  C   -0.004231
    25  C   -0.022321
    26  C    0.010986
    27  N    0.067383
    28  H    0.149769
    29  H   -0.013416
    30  H    0.013977
    31  H    0.039746
    32  H    0.020370
    33  H   -0.019120
    34  H    0.041864
    35  H    0.048200
    36  H    0.071811
    37  H    0.058227
    38  H    0.196878
    39  H    0.206831
    40  H    0.197540
    41  N   -0.164500
    42  C    0.117527
    43  C    0.091242
    44  O   -0.263440
    45  C    0.060470
    46  C    0.115353
    47  O   -0.368801
    48  O   -0.472241
    49  H    0.137005
    50  H    0.016656
    51  H    0.005211
    52  H    0.026673
    53  N   -0.187158
    54  C    0.262321
    55  C    0.009509
    56  O   -0.286538
    57  H    0.133502
    58  H    0.009135
    59  H    0.024298
    60  N   -0.164465
    61  C    0.143816
    62  C    0.013107
    63  O   -0.295202
    64  C    0.101857
    65  C    0.065173
    66  N   -0.039834
    67  O   -0.344094
    68  H    0.138961
    69  H    0.042027
    70  H    0.070630
    71  H    0.005173
    72  H    0.136999
    73  H    0.100205
    74  N   -0.173255
    75  C    0.242205
    76  C    0.029460
    77  O   -0.295178
    78  H    0.135249
    79  H    0.028825
    80  H    0.027468
    81  N   -0.158175
    82  C    0.118681
    83  C    0.118450
    84  O   -0.327500
    85  C    0.141707
    86  C    0.038112
    87  C    0.017487
    88  C   -0.024501
    89  C   -0.022552
    90  C   -0.041158
    91  C    0.187958
    92  O   -0.204206
    93  H    0.155169
    94  H   -0.015825
    95  H   -0.023724
    96  H   -0.042271
    97  H   -0.034562
    98  H   -0.042885
    99  H   -0.011561
   100  H   -0.053981
   101  H    0.169711
   102  N   -0.116032
   103  C    0.175932
   104  C    0.017895
   105  O   -0.296125
   106  C   -0.100341
   107  C    0.027128
   108  C    0.048601
   109  C    0.007165
   110  H    0.132274
   111  H    0.021011
   112  H   -0.008714
   113  H    0.002219
   114  H    0.018200
   115  H    0.022554
   116  H    0.015509
   117  H    0.013497
   118  H   -0.012802
   119  H    0.012560
   120  H    0.015589
   121  N   -0.141435
   122  C    0.049644
   123  C    0.108575
   124  O   -0.286482
   125  C    0.260689
   126  O   -0.319643
   127  H    0.170665
   128  H    0.031030
   129  H   -0.023114
   130  H   -0.017318
   131  H    0.161703
   132  N   -0.114880
   133  C    0.054470
   134  C    0.067423
   135  O   -0.261353
   136  C    0.029555
   137  H    0.120043
   138  H    0.026168
   139  H    0.011738
   140  H    0.054838
   141  H    0.025275
   142  N   -0.143288
   143  C    0.076869
   144  C    0.106194
   145  O   -0.311516
   146  C    0.032415
   147  H    0.116167
   148  H    0.023423
   149  H    0.013040
   150  H    0.034076
   151  H    0.051379
   152  N   -0.188801
   153  C    0.108444
   154  C    0.076817
   155  O   -0.297626
   156  C   -0.001822
   157  C    0.078288
   158  C    0.163108
   159  O   -0.391912
   160  O   -0.442307
   161  H    0.149088
   162  H    0.003987
   163  H    0.031344
   164  H    0.007296
   165  H    0.002246
   166  H   -0.022320
   167  N   -0.154154
   168  C    0.122519
   169  H    0.032893
   170  H    0.017482
   171  H    0.024334
   172  H    0.113771
   173  Ca   1.288596
   174  O   -0.275732
   175  H    0.182854
   176  H    0.192770
 Sum of Mulliken charges =  -0.00000

 Dipole moment (field-independent basis, Debye):
    X=             30.9320    Y=             -5.7748    Z=              7.8123  Tot=             32.4217
 Quadrupole moment (field-independent basis, Debye-Ang):
   XX=           -669.5924   YY=           -491.7284   ZZ=           -506.6738
   XY=            109.0276   XZ=             34.4952   YZ=            111.6316

 ESP charges:
               1
     1  C   -0.322646
     2  C    0.726050
     3  O   -0.614093
     4  H    0.131522
     5  H    0.030857
     6  H    0.082850
     7  N   -0.771430
     8  C    0.286374
     9  C    0.515081
    10  O   -0.554164
    11  C   -0.339944
    12  C    0.822084
    13  O   -0.641020
    14  O   -0.896098
    15  H    0.381887
    16  H    0.062870
    17  H    0.089082
    18  H    0.096092
    19  N   -0.351976
    20  C    0.131737
    21  C    0.373027
    22  O   -0.533426
    23  C   -0.442592
    24  C    0.354528
    25  C   -0.352908
    26  C    0.167768
    27  N   -0.509945
    28  H    0.279877
    29  H    0.054532
    30  H    0.153501
    31  H    0.107237
    32  H   -0.003825
    33  H   -0.080424
    34  H    0.097831
    35  H    0.127752
    36  H    0.060566
    37  H    0.063539
    38  H    0.364045
    39  H    0.394747
    40  H    0.352943
    41  N   -0.196551
    42  C    0.093303
    43  C    0.445167
    44  O   -0.505651
    45  C   -0.330644
    46  C    0.842041
    47  O   -0.712550
    48  O   -0.893294
    49  H    0.271296
    50  H    0.073469
    51  H    0.074646
    52  H    0.085809
    53  N   -0.264482
    54  C   -0.025777
    55  C    0.476054
    56  O   -0.564692
    57  H    0.151540
    58  H    0.076941
    59  H    0.075136
    60  N   -0.298693
    61  C    0.079122
    62  C    0.299993
    63  O   -0.542272
    64  C   -0.333707
    65  C    0.714923
    66  N   -0.801165
    67  O   -0.572088
    68  H    0.316686
    69  H    0.141404
    70  H    0.137856
    71  H    0.105269
    72  H    0.393483
    73  H    0.342233
    74  N    0.070688
    75  C   -0.349778
    76  C    0.631740
    77  O   -0.540892
    78  H    0.048363
    79  H    0.157594
    80  H    0.119810
    81  N   -0.463134
    82  C    0.134679
    83  C    0.489771
    84  O   -0.495725
    85  C    0.214383
    86  C   -0.013004
    87  C   -0.193432
    88  C   -0.168143
    89  C   -0.226003
    90  C   -0.297476
    91  C    0.413194
    92  O   -0.584554
    93  H    0.280012
    94  H    0.003681
    95  H   -0.054257
    96  H   -0.085287
    97  H    0.154319
    98  H    0.137828
    99  H    0.175948
   100  H    0.130583
   101  H    0.417372
   102  N   -0.479379
   103  C   -0.172954
   104  C    0.799094
   105  O   -0.595744
   106  C   -0.074612
   107  C    0.200641
   108  C   -0.159534
   109  C   -0.341803
   110  H    0.317141
   111  H    0.111036
   112  H    0.066792
   113  H    0.021380
   114  H    0.046818
   115  H    0.039196
   116  H    0.034945
   117  H    0.069414
   118  H    0.045107
   119  H    0.091816
   120  H    0.085479
   121  N   -0.366433
   122  C   -0.049403
   123  C    0.596492
   124  O   -0.462743
   125  C    0.298459
   126  O   -0.600584
   127  H    0.130969
   128  H    0.055421
   129  H   -0.058352
   130  H    0.012330
   131  H    0.381746
   132  N   -0.541628
   133  C    0.240289
   134  C    0.519815
   135  O   -0.543697
   136  C   -0.355516
   137  H    0.297670
   138  H    0.049441
   139  H    0.081489
   140  H    0.126496
   141  H    0.104072
   142  N   -0.425397
   143  C    0.144566
   144  C    0.380471
   145  O   -0.532778
   146  C   -0.333711
   147  H    0.266702
   148  H    0.083406
   149  H    0.089657
   150  H    0.085771
   151  H    0.137194
   152  N   -0.129777
   153  C   -0.376446
   154  C    0.579708
   155  O   -0.562623
   156  C    0.454839
   157  C    0.017202
   158  C    0.638263
   159  O   -0.699155
   160  O   -0.733036
   161  H    0.048657
   162  H    0.157669
   163  H   -0.085478
   164  H   -0.097362
   165  H    0.055716
   166  H   -0.063625
   167  N   -0.311258
   168  C   -0.109352
   169  H    0.082852
   170  H    0.067951
   171  H    0.068207
   172  H    0.260600
   173  Ca   1.644001
   174  O   -0.884229
   175  H    0.420587
   176  H    0.482074
 Sum of ESP charges =  -0.00000

 Normal termination of Gaussian 16 at Sat Sep 14 22:41:46 2019.
