 Gaussian 16, Revision A.03,
 Gaussian 16:  ES64L-G16RevA.03 25-Dec-2016

 ----------------------------------------------------------------------
 #b3lyp/svp scf=(tight,noincore) Test #IOP(5/87=12) Density=Current Pop
 =(MK,readradii) iop(6/33=2) iop(6/42=6)
 ----------------------------------------------------------------------

 ------------------
 holoCaM_loop3_56.0
 ------------------
 Symbolic Z-matrix:
 Charge =  0 Multiplicity = 1

                         Standard orientation:
 ---------------------------------------------------------------------
 Center     Atomic      Atomic             Coordinates (Angstroms)
 Number     Number       Type             X           Y           Z
 ---------------------------------------------------------------------
      1          6           0        2.140150    4.218788    4.588849
      2          6           0        1.523752    3.631274    3.324816
      3          8           0        2.160114    3.501500    2.282749
      4          1           0        2.505040    3.411467    5.223291
      5          1           0        2.970028    4.871614    4.319339
      6          1           0        1.386515    4.791713    5.128397
      7          7           0        0.203523    3.421575    3.329394
      8          6           0       -0.515654    3.016655    2.130134
      9          6           0       -0.653453    4.103125    1.082711
     10          8           0       -1.427839    5.046635    1.276142
     11          6           0       -1.885477    2.545164    2.599475
     12          6           0       -2.633672    1.782098    1.506939
     13          8           0       -3.686469    1.178724    1.821355
     14          8           0       -2.160308    1.855327    0.350322
     15          1           0       -0.393708    3.487736    4.135829
     16          1           0       -0.137290    2.103713    1.668314
     17          1           0       -2.418074    3.417286    2.977952
     18          1           0       -1.787502    1.905430    3.472998
     19          7           0        0.116585    4.074816   -0.011657
     20          6           0        0.181670    5.179379   -0.939453
     21          6           0       -0.933548    5.179474   -1.971339
     22          8           0       -0.884708    5.925914   -2.952839
     23          6           0        1.541520    5.248267   -1.603502
     24          6           0        2.678459    5.130413   -0.597331
     25          6           0        2.517732    6.250657    0.432873
     26          6           0        3.786162    6.540354    1.212079
     27          7           0        3.544579    7.723893    2.051347
     28          1           0        0.737270    3.286212   -0.169305
     29          1           0        0.001081    6.097781   -0.378360
     30          1           0        1.626650    6.186982   -2.163205
     31          1           0        1.666388    4.488161   -2.376579
     32          1           0        3.641348    5.284090   -1.086645
     33          1           0        2.704283    4.164812   -0.093003
     34          1           0        1.684759    6.070993    1.112046
     35          1           0        2.327724    7.202100   -0.055854
     36          1           0        4.532742    6.683239    0.430029
     37          1           0        3.935139    5.699201    1.888295
     38          1           0        2.881960    7.468740    2.769005
     39          1           0        4.349599    8.063094    2.562412
     40          1           0        3.158328    8.526105    1.566924
     41          7           0       -1.964421    4.364927   -1.752447
     42          6           0       -3.002687    4.194924   -2.757038
     43          6           0       -4.302464    3.942528   -1.999095
     44          8           0       -5.302599    4.513378   -2.436427
     45          6           0       -2.774652    3.129859   -3.823639
     46          6           0       -2.377205    1.739142   -3.345264
     47          8           0       -3.032531    1.190537   -2.432587
     48          8           0       -1.351956    1.109654   -3.703188
     49          1           0       -1.935838    3.837514   -0.891913
     50          1           0       -3.181926    5.147899   -3.259244
     51          1           0       -2.102327    3.488826   -4.588506
     52          1           0       -3.683697    2.949491   -4.407166
     53          7           0       -4.268466    3.350739   -0.800291
     54          6           0       -5.494988    3.221758   -0.043979
     55          6           0       -6.292246    1.962009   -0.334519
     56          8           0       -7.473589    1.882816    0.025839
     57          1           0       -3.404457    3.087573   -0.362533
     58          1           0       -6.100593    4.115617   -0.196160
     59          1           0       -5.220588    3.049201    1.001357
     60          7           0       -5.641380    0.980707   -0.964773
     61          6           0       -6.245419   -0.309944   -1.230585
     62          6           0       -6.393975   -1.161330    0.022839
     63          8           0       -7.034119   -2.208235   -0.036372
     64          6           0       -5.600049   -1.060879   -2.395443
     65          6           0       -4.181149   -1.569653   -2.180334
     66          7           0       -3.626830   -2.192033   -3.225261
     67          8           0       -3.504474   -1.414052   -1.154664
     68          1           0       -4.653073    1.124969   -1.086167
     69          1           0       -7.259675   -0.054911   -1.551899
     70          1           0       -5.454416   -0.373220   -3.232112
     71          1           0       -6.189271   -1.896346   -2.746032
     72          1           0       -4.081944   -2.316101   -4.114856
     73          1           0       -2.720687   -2.612953   -3.083372
     74          7           0       -5.941945   -0.714016    1.198968
     75          6           0       -6.018574   -1.236642    2.539822
     76          6           0       -4.840729   -2.094208    2.997494
     77          8           0       -4.910758   -2.774029    4.021573
     78          1           0       -5.367311    0.122749    1.115177
     79          1           0       -6.871920   -1.878341    2.719887
     80          1           0       -6.073293   -0.459139    3.304149
     81          7           0       -3.792899   -2.235953    2.178921
     82          6           0       -2.662031   -3.114578    2.366686
     83          6           0       -1.377721   -2.414457    1.929216
     84          8           0       -1.415887   -1.671415    0.952010
     85          6           0       -2.835719   -4.468416    1.688192
     86          6           0       -4.094402   -4.691358    0.879852
     87          6           0       -3.934876   -4.517460   -0.501203
     88          6           0       -5.311566   -5.033076    1.471071
     89          6           0       -5.039245   -4.681823   -1.350234
     90          6           0       -6.430484   -5.170084    0.628365
     91          6           0       -6.261967   -5.059150   -0.760085
     92          8           0       -7.368889   -5.106397   -1.568163
     93          1           0       -3.892755   -1.860873    1.244125
     94          1           0       -2.549015   -3.302018    3.437197
     95          1           0       -3.065109   -5.137223    2.519443
     96          1           0       -1.925428   -4.792372    1.198987
     97          1           0       -2.949060   -4.173856   -0.794808
     98          1           0       -5.446041   -5.192846    2.532480
     99          1           0       -5.047233   -4.653970   -2.421757
    100          1           0       -7.377353   -5.393362    1.107725
    101          1           0       -8.204947   -5.272795   -1.127348
    102          7           0       -0.225458   -2.804394    2.471561
    103          6           0        1.117740   -2.413068    2.097952
    104          6           0        1.687157   -3.517150    1.210616
    105          8           0        1.523624   -4.709844    1.471073
    106          6           0        1.930094   -2.094396    3.347004
    107          6           0        1.339731   -1.146044    4.385368
    108          6           0        3.378463   -1.699558    3.057815
    109          6           0        0.716453    0.164235    3.925158
    110          1           0       -0.282818   -3.592476    3.107672
    111          1           0        0.994693   -1.476129    1.557208
    112          1           0        1.951688   -3.054086    3.863463
    113          1           0        2.098018   -0.987136    5.157605
    114          1           0        0.549136   -1.705811    4.877121
    115          1           0        3.945633   -2.424791    2.471424
    116          1           0        3.327260   -0.698484    2.626272
    117          1           0        3.804991   -1.599327    4.047981
    118          1           0       -0.104892   -0.120232    3.266318
    119          1           0        0.450880    0.829512    4.753094
    120          1           0        1.454820    0.682201    3.320158
    121          7           0        2.432696   -3.152702    0.163597
    122          6           0        3.236058   -4.010989   -0.679524
    123          6           0        4.700467   -3.595227   -0.627092
    124          8           0        5.065146   -2.606630   -0.000766
    125          6           0        2.754953   -3.945568   -2.132163
    126          8           0        2.681336   -2.627364   -2.627155
    127          1           0        2.498721   -2.159879   -0.041694
    128          1           0        3.136768   -5.044713   -0.342247
    129          1           0        1.752689   -4.370130   -2.142820
    130          1           0        3.404328   -4.573293   -2.745656
    131          1           0        2.118231   -2.098551   -2.067272
    132          7           0        5.644696   -4.443803   -1.030143
    133          6           0        7.072385   -4.244644   -0.868464
    134          6           0        7.596162   -2.922727   -1.412517
    135          8           0        8.506026   -2.375424   -0.801446
    136          6           0        7.854495   -5.365404   -1.558104
    137          1           0        5.278198   -5.304848   -1.406015
    138          1           0        7.267156   -4.357553    0.194229
    139          1           0        7.794463   -5.253309   -2.639368
    140          1           0        8.890493   -5.463921   -1.231298
    141          1           0        7.425592   -6.359332   -1.487044
    142          7           0        6.908292   -2.242958   -2.329876
    143          6           0        7.285071   -0.906922   -2.767195
    144          6           0        6.844711    0.180037   -1.793540
    145          8           0        7.443804    1.246708   -1.898415
    146          6           0        6.767902   -0.542938   -4.155342
    147          1           0        6.075667   -2.634159   -2.742789
    148          1           0        8.371377   -0.915611   -2.887043
    149          1           0        7.052503    0.447976   -4.497820
    150          1           0        7.004990   -1.278760   -4.917611
    151          1           0        5.683087   -0.549086   -4.110178
    152          7           0        5.923730   -0.094147   -0.876415
    153          6           0        5.433063    0.839868    0.121263
    154          6           0        6.015762    0.466567    1.479096
    155          8           0        6.009450    1.351817    2.331441
    156          6           0        3.915937    0.890118    0.161317
    157          6           0        3.223570    0.783279   -1.190353
    158          6           0        1.737236    0.486816   -0.987076
    159          8           0        0.861888    1.330378   -1.241771
    160          8           0        1.345644   -0.626924   -0.580825
    161          1           0        5.490660   -0.999937   -1.006389
    162          1           0        5.787240    1.844502   -0.104721
    163          1           0        3.421203    1.618697    0.820795
    164          1           0        3.656755   -0.018336    0.711532
    165          1           0        3.559760    0.093908   -1.957193
    166          1           0        3.380319    1.697146   -1.762434
    167          7           0        6.410819   -0.771516    1.750354
    168          6           0        7.215998   -1.194913    2.872193
    169          1           0        6.592734   -1.254207    3.764490
    170          1           0        7.643968   -2.175441    2.663396
    171          1           0        8.018027   -0.475253    3.036872
    172          1           0        6.392816   -1.384833    0.946601
    173         20           0       -1.234328   -0.216688   -1.111532
    174          8           0       -0.477457   -2.344443   -2.737080
    175          1           0       -0.564992   -2.084192   -3.652835
    176          1           0       -0.431546   -3.300440   -2.749767
 ---------------------------------------------------------------------

 SCF Done:  E(RB3LYP) =  -5333.60829256     A.U. after   19 cycles

 The electronic state is 1-A.
 Alpha  occ. eigenvalues -- -145.36020 -19.20168 -19.15372 -19.14143 -19.13228
 Alpha  occ. eigenvalues --  -19.12360 -19.12028 -19.11070 -19.10970 -19.10802
 Alpha  occ. eigenvalues --  -19.09444 -19.08800 -19.08088 -19.07978 -19.07090
 Alpha  occ. eigenvalues --  -19.06707 -19.06229 -19.05834 -19.04881 -19.04842
 Alpha  occ. eigenvalues --  -19.03973 -19.03885 -19.02825 -19.02473 -15.41754
 Alpha  occ. eigenvalues --  -14.57640 -14.40148 -14.37495 -14.37423 -14.36933
 Alpha  occ. eigenvalues --  -14.36160 -14.35987 -14.34507 -14.34141 -14.33258
 Alpha  occ. eigenvalues --  -14.31785 -14.31683 -14.30718 -14.29822 -14.29446
 Alpha  occ. eigenvalues --  -12.55381 -12.55331 -12.55312 -10.32867 -10.32510
 Alpha  occ. eigenvalues --  -10.31195 -10.30248 -10.30055 -10.29779 -10.29540
 Alpha  occ. eigenvalues --  -10.27531 -10.27429 -10.27161 -10.27079 -10.27039
 Alpha  occ. eigenvalues --  -10.26497 -10.25898 -10.25277 -10.25072 -10.24968
 Alpha  occ. eigenvalues --  -10.24828 -10.24060 -10.23756 -10.23674 -10.23090
 Alpha  occ. eigenvalues --  -10.22675 -10.22667 -10.22648 -10.22426 -10.22379
 Alpha  occ. eigenvalues --  -10.22377 -10.22363 -10.22214 -10.22144 -10.21659
 Alpha  occ. eigenvalues --  -10.21341 -10.20488 -10.19765 -10.19568 -10.19512
 Alpha  occ. eigenvalues --  -10.19429 -10.18881 -10.18841 -10.18770 -10.18664
 Alpha  occ. eigenvalues --  -10.18296 -10.18294 -10.17742 -10.17567 -10.17369
 Alpha  occ. eigenvalues --  -10.17111 -10.17061 -10.16883 -10.16858 -10.16843
 Alpha  occ. eigenvalues --  -10.16513 -10.14537  -1.78618  -1.12801  -1.08243
 Alpha  occ. eigenvalues --   -1.06686  -1.06525  -1.06200  -1.05696  -1.05320
 Alpha  occ. eigenvalues --   -1.04819  -1.04614  -1.04164  -1.03930  -1.03298
 Alpha  occ. eigenvalues --   -1.03137  -1.01972  -1.01554  -1.01547  -1.00300
 Alpha  occ. eigenvalues --   -1.00206  -0.99213  -0.99125  -0.98225  -0.98147
 Alpha  occ. eigenvalues --   -0.97173  -0.96669  -0.96268  -0.93925  -0.93818
 Alpha  occ. eigenvalues --   -0.93754  -0.93285  -0.92804  -0.91801  -0.91399
 Alpha  occ. eigenvalues --   -0.90773  -0.90631  -0.89636  -0.89207  -0.88601
 Alpha  occ. eigenvalues --   -0.87947  -0.87442  -0.86795  -0.86333  -0.85717
 Alpha  occ. eigenvalues --   -0.82755  -0.82620  -0.82008  -0.80395  -0.79401
 Alpha  occ. eigenvalues --   -0.79070  -0.78605  -0.77442  -0.77219  -0.76090
 Alpha  occ. eigenvalues --   -0.75270  -0.74743  -0.74409  -0.73246  -0.72864
 Alpha  occ. eigenvalues --   -0.72451  -0.72198  -0.71702  -0.71374  -0.71088
 Alpha  occ. eigenvalues --   -0.69733  -0.69574  -0.69157  -0.68323  -0.67721
 Alpha  occ. eigenvalues --   -0.67536  -0.65903  -0.65278  -0.64953  -0.64404
 Alpha  occ. eigenvalues --   -0.64020  -0.63265  -0.62767  -0.62541  -0.61884
 Alpha  occ. eigenvalues --   -0.61285  -0.60875  -0.60426  -0.59989  -0.59588
 Alpha  occ. eigenvalues --   -0.59373  -0.59299  -0.59194  -0.58473  -0.58307
 Alpha  occ. eigenvalues --   -0.58264  -0.57459  -0.57300  -0.56209  -0.56064
 Alpha  occ. eigenvalues --   -0.55712  -0.55685  -0.55435  -0.55231  -0.54980
 Alpha  occ. eigenvalues --   -0.54711  -0.54300  -0.53985  -0.53637  -0.53504
 Alpha  occ. eigenvalues --   -0.53329  -0.52738  -0.52375  -0.52248  -0.51931
 Alpha  occ. eigenvalues --   -0.51418  -0.51245  -0.50815  -0.50447  -0.50063
 Alpha  occ. eigenvalues --   -0.49587  -0.49299  -0.49068  -0.48745  -0.48516
 Alpha  occ. eigenvalues --   -0.48434  -0.48231  -0.48003  -0.47909  -0.47760
 Alpha  occ. eigenvalues --   -0.47429  -0.47307  -0.47112  -0.47074  -0.46974
 Alpha  occ. eigenvalues --   -0.46487  -0.46274  -0.46145  -0.45981  -0.45524
 Alpha  occ. eigenvalues --   -0.45469  -0.45398  -0.45285  -0.44904  -0.44817
 Alpha  occ. eigenvalues --   -0.44624  -0.44521  -0.44328  -0.44267  -0.44072
 Alpha  occ. eigenvalues --   -0.43763  -0.43613  -0.43493  -0.43348  -0.43215
 Alpha  occ. eigenvalues --   -0.43111  -0.42920  -0.42810  -0.42509  -0.42474
 Alpha  occ. eigenvalues --   -0.42382  -0.42153  -0.41838  -0.41810  -0.41717
 Alpha  occ. eigenvalues --   -0.41413  -0.41404  -0.41272  -0.41209  -0.41147
 Alpha  occ. eigenvalues --   -0.40940  -0.40788  -0.40496  -0.40286  -0.40260
 Alpha  occ. eigenvalues --   -0.40084  -0.39973  -0.39870  -0.39710  -0.39526
 Alpha  occ. eigenvalues --   -0.39456  -0.39198  -0.39114  -0.38886  -0.38812
 Alpha  occ. eigenvalues --   -0.38674  -0.38472  -0.38430  -0.38359  -0.38185
 Alpha  occ. eigenvalues --   -0.38136  -0.37921  -0.37913  -0.37485  -0.37443
 Alpha  occ. eigenvalues --   -0.37395  -0.37093  -0.37010  -0.36951  -0.36744
 Alpha  occ. eigenvalues --   -0.36621  -0.36532  -0.36451  -0.35888  -0.35786
 Alpha  occ. eigenvalues --   -0.35456  -0.35308  -0.35089  -0.34941  -0.34782
 Alpha  occ. eigenvalues --   -0.34737  -0.34539  -0.34275  -0.34214  -0.33950
 Alpha  occ. eigenvalues --   -0.33468  -0.33122  -0.32853  -0.32807  -0.32527
 Alpha  occ. eigenvalues --   -0.32496  -0.32237  -0.31575  -0.31506  -0.31460
 Alpha  occ. eigenvalues --   -0.31405  -0.31098  -0.30960  -0.30668  -0.30354
 Alpha  occ. eigenvalues --   -0.29706  -0.29283  -0.28833  -0.28672  -0.28513
 Alpha  occ. eigenvalues --   -0.28426  -0.28104  -0.27351  -0.27192  -0.26957
 Alpha  occ. eigenvalues --   -0.26692  -0.26558  -0.26484  -0.26385  -0.26225
 Alpha  occ. eigenvalues --   -0.24636  -0.24335  -0.24016  -0.23977  -0.23895
 Alpha  occ. eigenvalues --   -0.23733  -0.23680  -0.23619  -0.23309  -0.22828
 Alpha  occ. eigenvalues --   -0.22576  -0.22285  -0.22264  -0.21863  -0.21629
 Alpha  occ. eigenvalues --   -0.20931  -0.20395  -0.20282  -0.19673  -0.19459
 Alpha  occ. eigenvalues --   -0.19183  -0.18628  -0.17213
 Alpha virt. eigenvalues --   -0.09810  -0.04159  -0.03554  -0.03497  -0.02003
 Alpha virt. eigenvalues --   -0.01202  -0.00807  -0.00232   0.00047   0.00372
 Alpha virt. eigenvalues --    0.00618   0.00813   0.01543   0.01982   0.02633

 Mulliken charges:
               1
     1  C    0.063677
     2  C    0.054831
     3  O   -0.298363
     4  H    0.060568
     5  H   -0.014678
     6  H    0.017350
     7  N   -0.111527
     8  C    0.110197
     9  C    0.063686
    10  O   -0.299911
    11  C    0.013075
    12  C    0.172152
    13  O   -0.350366
    14  O   -0.465831
    15  H    0.121742
    16  H    0.003407
    17  H    0.016835
    18  H   -0.000811
    19  N   -0.155018
    20  C    0.129747
    21  C    0.057629
    22  O   -0.302341
    23  C    0.037690
    24  C    0.064754
    25  C   -0.120227
    26  C    0.066739
    27  N    0.075578
    28  H    0.147327
    29  H    0.001658
    30  H    0.010600
    31  H    0.026033
    32  H   -0.004468
    33  H    0.055365
    34  H    0.046401
    35  H   -0.008808
    36  H    0.075507
    37  H    0.092342
    38  H    0.185449
    39  H    0.183737
    40  H    0.182297
    41  N   -0.143272
    42  C    0.167436
    43  C    0.059583
    44  O   -0.295464
    45  C    0.141676
    46  C    0.071903
    47  O   -0.444031
    48  O   -0.400213
    49  H    0.160407
    50  H    0.014729
    51  H   -0.009120
    52  H    0.005338
    53  N   -0.185311
    54  C    0.240692
    55  C   -0.006410
    56  O   -0.302149
    57  H    0.136272
    58  H    0.026254
    59  H    0.020719
    60  N   -0.173287
    61  C    0.171083
    62  C    0.048655
    63  O   -0.294002
    64  C    0.075568
    65  C    0.100936
    66  N   -0.039292
    67  O   -0.369890
    68  H    0.152356
    69  H    0.026870
    70  H    0.040707
    71  H    0.036926
    72  H    0.122205
    73  H    0.071972
    74  N   -0.155588
    75  C    0.260347
    76  C    0.004315
    77  O   -0.315995
    78  H    0.152813
    79  H    0.024292
    80  H    0.031036
    81  N   -0.125553
    82  C    0.127047
    83  C    0.120392
    84  O   -0.383235
    85  C    0.168278
    86  C   -0.101776
    87  C    0.040925
    88  C    0.012366
    89  C   -0.009591
    90  C   -0.024884
    91  C    0.202980
    92  O   -0.221639
    93  H    0.159487
    94  H   -0.004245
    95  H   -0.009778
    96  H   -0.002481
    97  H   -0.064232
    98  H   -0.018837
    99  H   -0.058623
   100  H   -0.040948
   101  H    0.175072
   102  N   -0.120363
   103  C    0.141118
   104  C    0.076723
   105  O   -0.292546
   106  C   -0.107353
   107  C    0.036152
   108  C    0.069640
   109  C   -0.022097
   110  H    0.129652
   111  H    0.018267
   112  H   -0.025597
   113  H   -0.009432
   114  H   -0.017050
   115  H    0.023863
   116  H    0.032157
   117  H   -0.005244
   118  H    0.044781
   119  H    0.003728
   120  H    0.028174
   121  N   -0.135577
   122  C    0.051295
   123  C    0.075628
   124  O   -0.295077
   125  C    0.270778
   126  O   -0.335009
   127  H    0.151426
   128  H    0.029215
   129  H   -0.018208
   130  H   -0.012005
   131  H    0.173216
   132  N   -0.112181
   133  C    0.112878
   134  C    0.081125
   135  O   -0.268044
   136  C    0.027007
   137  H    0.116423
   138  H    0.028430
   139  H    0.004798
   140  H    0.055520
   141  H    0.007002
   142  N   -0.145236
   143  C    0.087622
   144  C    0.055633
   145  O   -0.289474
   146  C    0.047435
   147  H    0.113843
   148  H    0.032156
   149  H    0.044770
   150  H    0.009553
   151  H   -0.001934
   152  N   -0.157574
   153  C    0.188106
   154  C    0.040462
   155  O   -0.309708
   156  C   -0.031742
   157  C    0.126483
   158  C    0.116159
   159  O   -0.383617
   160  O   -0.448415
   161  H    0.138718
   162  H    0.005894
   163  H    0.035213
   164  H   -0.007314
   165  H   -0.017735
   166  H   -0.015810
   167  N   -0.146779
   168  C    0.144498
   169  H    0.016104
   170  H    0.015267
   171  H    0.024088
   172  H    0.138282
   173  Ca   1.257185
   174  O   -0.255135
   175  H    0.196065
   176  H    0.187907
 Sum of Mulliken charges =  -0.00000

 Dipole moment (field-independent basis, Debye):
    X=             25.4484    Y=              5.1243    Z=              6.1756  Tot=             26.6836
 Quadrupole moment (field-independent basis, Debye-Ang):
   XX=           -673.3240   YY=           -366.2406   ZZ=           -529.8441
   XY=             91.2312   XZ=             21.0562   YZ=            134.5929

 ESP charges:
               1
     1  C   -0.516620
     2  C    0.855771
     3  O   -0.626017
     4  H    0.150745
     5  H    0.136558
     6  H    0.116819
     7  N   -0.733148
     8  C    0.170083
     9  C    0.455747
    10  O   -0.572153
    11  C    0.059324
    12  C    0.507756
    13  O   -0.647555
    14  O   -0.635762
    15  H    0.359410
    16  H   -0.022454
    17  H    0.015621
    18  H   -0.020525
    19  N    0.124447
    20  C   -0.179481
    21  C    0.646224
    22  O   -0.578670
    23  C   -0.092590
    24  C   -0.101247
    25  C    0.169741
    26  C   -0.029224
    27  N   -0.268523
    28  H    0.152865
    29  H    0.053722
    30  H    0.049441
    31  H    0.074455
    32  H    0.048187
    33  H    0.044100
    34  H   -0.037486
    35  H   -0.008632
    36  H    0.090805
    37  H    0.057561
    38  H    0.289155
    39  H    0.308031
    40  H    0.298323
    41  N   -0.348579
    42  C    0.138375
    43  C    0.407869
    44  O   -0.542579
    45  C   -0.224944
    46  C    0.747387
    47  O   -0.694671
    48  O   -0.764939
    49  H   -0.046077
    50  H    0.073608
    51  H    0.066313
    52  H    0.067889
    53  N   -0.073880
    54  C   -0.511706
    55  C    0.713198
    56  O   -0.606617
    57  H    0.328498
    58  H    0.186296
    59  H    0.172261
    60  N   -0.309270
    61  C    0.015983
    62  C    0.286679
    63  O   -0.458999
    64  C   -0.260199
    65  C    0.935841
    66  N   -0.869966
    67  O   -0.897618
    68  H    0.107107
    69  H    0.121674
    70  H    0.101809
    71  H    0.103287
    72  H    0.376740
    73  H    0.353191
    74  N   -0.035741
    75  C   -0.345227
    76  C    0.773348
    77  O   -0.619448
    78  H    0.198831
    79  H    0.145375
    80  H    0.125399
    81  N   -0.889606
    82  C    0.543208
    83  C    0.437903
    84  O   -0.574707
    85  C   -0.372977
    86  C    0.269608
    87  C   -0.375847
    88  C   -0.245306
    89  C   -0.131604
    90  C   -0.262170
    91  C    0.291294
    92  O   -0.562251
    93  H    0.622283
    94  H    0.000509
    95  H    0.052852
    96  H    0.102364
    97  H    0.182001
    98  H    0.193847
    99  H    0.129820
   100  H    0.154209
   101  H    0.424116
   102  N   -0.571308
   103  C    0.215142
   104  C    0.490716
   105  O   -0.570522
   106  C    0.155976
   107  C   -0.106043
   108  C   -0.341689
   109  C   -0.168586
   110  H    0.287218
   111  H    0.023873
   112  H   -0.010382
   113  H    0.045557
   114  H    0.013543
   115  H    0.054360
   116  H    0.079635
   117  H    0.097576
   118  H    0.097136
   119  H    0.064437
   120  H    0.065203
   121  N   -0.039754
   122  C   -0.165669
   123  C    0.437519
   124  O   -0.366413
   125  C    0.233082
   126  O   -0.584683
   127  H    0.034709
   128  H    0.095185
   129  H   -0.010511
   130  H    0.024762
   131  H    0.363054
   132  N   -0.378882
   133  C   -0.039052
   134  C    0.594413
   135  O   -0.546712
   136  C   -0.255541
   137  H    0.280996
   138  H    0.135022
   139  H    0.066957
   140  H    0.110603
   141  H    0.089048
   142  N   -0.499191
   143  C    0.137346
   144  C    0.360759
   145  O   -0.536321
   146  C   -0.260508
   147  H    0.302543
   148  H    0.098898
   149  H    0.111842
   150  H    0.070326
   151  H    0.061172
   152  N   -0.095534
   153  C   -0.026173
   154  C    0.426712
   155  O   -0.574497
   156  C    0.019634
   157  C   -0.158962
   158  C    0.850894
   159  O   -0.776951
   160  O   -0.793887
   161  H    0.127677
   162  H    0.070708
   163  H    0.020574
   164  H    0.062469
   165  H    0.039060
   166  H    0.039991
   167  N   -0.048487
   168  C   -0.192788
   169  H    0.062445
   170  H    0.086683
   171  H    0.096527
   172  H    0.076521
   173  Ca   1.695267
   174  O   -0.763671
   175  H    0.412834
   176  H    0.405265
 Sum of ESP charges =   0.00000

 Normal termination of Gaussian 16 at Wed Sep 18 20:21:11 2019.
