 Gaussian 16, Revision A.03,
 Gaussian 16:  ES64L-G16RevA.03 25-Dec-2016

 ----------------------------------------------------------------------
 #b3lyp/svp scf=(tight,noincore) Test #IOP(5/87=12) Density=Current Pop
 =(MK,readradii) iop(6/33=2) iop(6/42=6)
 ----------------------------------------------------------------------

 ------------------
 holoCaM_loop3_93.0
 ------------------
 Symbolic Z-matrix:
 Charge =  0 Multiplicity = 1

                         Standard orientation:
 ---------------------------------------------------------------------
 Center     Atomic      Atomic             Coordinates (Angstroms)
 Number     Number       Type             X           Y           Z
 ---------------------------------------------------------------------
      1          6           0        1.215916    4.011492    5.985496
      2          6           0        1.073611    3.691472    4.503965
      3          8           0        1.938655    3.936499    3.653281
      4          1           0        1.339615    3.084638    6.546692
      5          1           0        2.087972    4.647012    6.137827
      6          1           0        0.321788    4.529951    6.333542
      7          7           0       -0.098258    3.237226    4.061943
      8          6           0       -0.498985    2.913770    2.705737
      9          6           0       -0.608401    4.185420    1.879036
     10          8           0       -1.258993    5.156263    2.272475
     11          6           0       -1.752640    2.034861    2.787997
     12          6           0       -2.255499    1.717592    1.395311
     13          8           0       -3.159537    0.856975    1.269404
     14          8           0       -1.796138    2.184612    0.330990
     15          1           0       -0.748709    3.093120    4.816891
     16          1           0        0.271078    2.253010    2.299045
     17          1           0       -2.523851    2.554356    3.357609
     18          1           0       -1.357432    1.095630    3.186189
     19          7           0        0.042624    4.199873    0.713979
     20          6           0        0.346158    5.372147   -0.065854
     21          6           0       -0.765283    5.704627   -1.053505
     22          8           0       -0.739047    6.769665   -1.650838
     23          6           0        1.741779    5.328186   -0.699344
     24          6           0        2.871445    5.107633    0.294644
     25          6           0        4.224696    4.987390   -0.400376
     26          6           0        4.656405    6.302739   -1.046042
     27          7           0        5.303834    6.076303   -2.348794
     28          1           0        0.452703    3.306704    0.445119
     29          1           0        0.505178    6.237926    0.565049
     30          1           0        1.921834    6.267477   -1.222327
     31          1           0        1.668685    4.616712   -1.525456
     32          1           0        2.659840    4.249239    0.947088
     33          1           0        2.878481    5.987269    0.928513
     34          1           0        4.119814    4.207180   -1.151890
     35          1           0        4.990850    4.856070    0.362751
     36          1           0        5.408392    6.774913   -0.423252
     37          1           0        3.877501    7.058032   -1.163263
     38          1           0        5.897706    6.861754   -2.559705
     39          1           0        5.882619    5.248644   -2.303095
     40          1           0        4.781565    5.805593   -3.166627
     41          7           0       -1.729026    4.797310   -1.255927
     42          6           0       -2.981991    4.983567   -1.968097
     43          6           0       -4.269603    4.507212   -1.292123
     44          8           0       -5.365845    4.876145   -1.704848
     45          6           0       -2.976345    4.290470   -3.329525
     46          6           0       -2.678950    2.805066   -3.402531
     47          8           0       -2.350756    2.327821   -4.517441
     48          8           0       -2.745994    2.127942   -2.359263
     49          1           0       -1.531271    3.944501   -0.759026
     50          1           0       -3.109854    6.058734   -2.080197
     51          1           0       -2.207036    4.773492   -3.926646
     52          1           0       -3.922914    4.538282   -3.800796
     53          7           0       -4.095778    3.884053   -0.127323
     54          6           0       -5.192729    3.497925    0.726436
     55          6           0       -6.108279    2.387432    0.234019
     56          8           0       -7.235174    2.272035    0.715880
     57          1           0       -3.162574    3.728245    0.240716
     58          1           0       -5.867744    4.334073    0.902249
     59          1           0       -4.756430    3.247773    1.696625
     60          7           0       -5.697544    1.511529   -0.688906
     61          6           0       -6.447288    0.423859   -1.288037
     62          6           0       -6.649658   -0.697180   -0.283837
     63          8           0       -7.179818   -1.753373   -0.634387
     64          6           0       -5.665667    0.004348   -2.533219
     65          6           0       -4.416853   -0.843593   -2.415067
     66          7           0       -4.185327   -1.671022   -3.442080
     67          8           0       -3.750067   -0.838284   -1.380722
     68          1           0       -4.698015    1.638670   -0.806707
     69          1           0       -7.457905    0.741013   -1.521633
     70          1           0       -5.397399    0.929120   -3.053439
     71          1           0       -6.321506   -0.623235   -3.133565
     72          1           0       -4.703130   -1.649804   -4.316111
     73          1           0       -3.354357   -2.218261   -3.314728
     74          7           0       -6.159634   -0.543774    0.947034
     75          6           0       -6.245044   -1.590920    1.935108
     76          6           0       -5.140950   -2.648235    1.954172
     77          8           0       -5.337829   -3.663937    2.612722
     78          1           0       -5.591649    0.255359    1.200173
     79          1           0       -7.177747   -2.152686    1.978512
     80          1           0       -6.323700   -1.061805    2.883765
     81          7           0       -4.001022   -2.400278    1.318499
     82          6           0       -2.848930   -3.283614    1.298478
     83          6           0       -1.545189   -2.528477    1.427811
     84          8           0       -1.402940   -1.482001    0.793105
     85          6           0       -2.678252   -4.113390    0.030234
     86          6           0       -3.852102   -4.979576   -0.341785
     87          6           0       -4.682338   -4.694117   -1.433902
     88          6           0       -4.298221   -5.946570    0.567776
     89          6           0       -5.946906   -5.275894   -1.613354
     90          6           0       -5.515583   -6.604339    0.363890
     91          6           0       -6.351269   -6.298003   -0.734103
     92          8           0       -7.552007   -6.928173   -0.889389
     93          1           0       -4.006792   -1.623370    0.663228
     94          1           0       -2.972044   -3.986188    2.116117
     95          1           0       -1.784143   -4.721602    0.137693
     96          1           0       -2.356659   -3.443485   -0.781188
     97          1           0       -4.365187   -3.879823   -2.068598
     98          1           0       -3.645948   -6.150752    1.398890
     99          1           0       -6.469010   -5.012421   -2.524721
    100          1           0       -5.790997   -7.403987    1.045953
    101          1           0       -7.709531   -7.491714   -0.124531
    102          7           0       -0.572762   -3.091450    2.167978
    103          6           0        0.830956   -2.767508    2.051191
    104          6           0        1.513909   -3.799270    1.173044
    105          8           0        1.300251   -5.005514    1.221256
    106          6           0        1.481376   -2.469583    3.408502
    107          6           0        0.784581   -1.484855    4.336612
    108          6           0        2.982842   -2.216721    3.271895
    109          6           0        1.026734   -0.004335    4.096147
    110          1           0       -0.707446   -3.994845    2.589212
    111          1           0        0.878020   -1.808665    1.533789
    112          1           0        1.445506   -3.449713    3.890953
    113          1           0        1.056004   -1.675729    5.380976
    114          1           0       -0.286260   -1.639880    4.268303
    115          1           0        3.364283   -1.813918    4.213093
    116          1           0        3.474498   -3.185391    3.186733
    117          1           0        3.171819   -1.625617    2.371572
    118          1           0        0.787849    0.218802    3.051138
    119          1           0        0.384705    0.621519    4.719608
    120          1           0        2.041783    0.375696    4.232719
    121          7           0        2.357712   -3.370404    0.229343
    122          6           0        3.275871   -4.120755   -0.598943
    123          6           0        4.739191   -3.827271   -0.317585
    124          8           0        5.015211   -2.866892    0.404762
    125          6           0        2.821668   -3.846208   -2.027482
    126          8           0        2.643583   -2.479399   -2.333290
    127          1           0        2.414093   -2.367057    0.082660
    128          1           0        3.153724   -5.201210   -0.495030
    129          1           0        1.950172   -4.408827   -2.350210
    130          1           0        3.600600   -4.300022   -2.643207
    131          1           0        2.676168   -2.295533   -3.276016
    132          7           0        5.736321   -4.620621   -0.708132
    133          6           0        7.128684   -4.303497   -0.498232
    134          6           0        7.610620   -3.014055   -1.146366
    135          8           0        8.420063   -2.305648   -0.537464
    136          6           0        7.978246   -5.503468   -0.920148
    137          1           0        5.514614   -5.482363   -1.198486
    138          1           0        7.356083   -4.179963    0.563713
    139          1           0        9.033077   -5.244645   -0.808599
    140          1           0        7.815151   -6.373989   -0.287699
    141          1           0        7.752249   -5.671600   -1.971650
    142          7           0        6.974304   -2.598882   -2.246790
    143          6           0        7.192686   -1.261182   -2.768391
    144          6           0        6.798006   -0.122520   -1.845853
    145          8           0        7.397151    0.949447   -1.877653
    146          6           0        6.517176   -1.189951   -4.135400
    147          1           0        6.335780   -3.186284   -2.754476
    148          1           0        8.243370   -1.157963   -3.052658
    149          1           0        5.459700   -1.356865   -3.969018
    150          1           0        6.569670   -0.182222   -4.569251
    151          1           0        6.954368   -1.914122   -4.816091
    152          7           0        5.753101   -0.310948   -1.035748
    153          6           0        5.378558    0.708938   -0.077338
    154          6           0        6.224334    0.606608    1.191477
    155          8           0        6.668767    1.637422    1.684530
    156          6           0        3.866691    0.727333    0.079568
    157          6           0        3.028022    0.844061   -1.195740
    158          6           0        1.548907    0.768264   -0.842226
    159          8           0        0.817981    1.286608   -1.709616
    160          8           0        1.038745    0.136347    0.108834
    161          1           0        5.392003   -1.250107   -0.957088
    162          1           0        5.570163    1.678468   -0.520619
    163          1           0        3.555957    1.528244    0.745440
    164          1           0        3.643872   -0.200243    0.581718
    165          1           0        3.350880    0.103964   -1.929101
    166          1           0        3.394020    1.767514   -1.658104
    167          7           0        6.455984   -0.625092    1.655325
    168          6           0        6.863672   -0.891181    3.020897
    169          1           0        6.179024   -1.609766    3.470155
    170          1           0        7.873501   -1.300762    3.025561
    171          1           0        6.843734    0.036140    3.593908
    172          1           0        6.034338   -1.360513    1.118416
    173         20           0       -1.357260    0.183805   -1.176743
    174          8           0       -0.094048   -2.077795   -1.679657
    175          1           0       -0.577173   -2.716968   -2.209042
    176          1           0        0.825081   -2.324765   -1.775613
 ---------------------------------------------------------------------

 SCF Done:  E(RB3LYP) =  -5333.55873756     A.U. after   20 cycles

 The electronic state is 1-A.
 Alpha  occ. eigenvalues -- -145.35393 -19.22111 -19.18239 -19.16376 -19.14944
 Alpha  occ. eigenvalues --  -19.13338 -19.12680 -19.12186 -19.11473 -19.10695
 Alpha  occ. eigenvalues --  -19.08224 -19.07736 -19.07552 -19.06860 -19.06560
 Alpha  occ. eigenvalues --  -19.05844 -19.05595 -19.05187 -19.04921 -19.04011
 Alpha  occ. eigenvalues --  -19.03855 -19.03245 -19.01570 -18.98857 -15.41136
 Alpha  occ. eigenvalues --  -14.57132 -14.42713 -14.40144 -14.38513 -14.37874
 Alpha  occ. eigenvalues --  -14.36895 -14.36446 -14.33797 -14.33660 -14.32654
 Alpha  occ. eigenvalues --  -14.32320 -14.31394 -14.30137 -14.30046 -14.29470
 Alpha  occ. eigenvalues --  -12.54766 -12.54702 -12.54690 -10.35163 -10.33333
 Alpha  occ. eigenvalues --  -10.32194 -10.31094 -10.30994 -10.30956 -10.29911
 Alpha  occ. eigenvalues --  -10.29845 -10.29658 -10.28094 -10.26852 -10.26847
 Alpha  occ. eigenvalues --  -10.26573 -10.26321 -10.25528 -10.25521 -10.24908
 Alpha  occ. eigenvalues --  -10.24276 -10.24034 -10.24032 -10.23920 -10.23838
 Alpha  occ. eigenvalues --  -10.23822 -10.23152 -10.22943 -10.22724 -10.22569
 Alpha  occ. eigenvalues --  -10.22466 -10.21440 -10.21400 -10.21304 -10.21212
 Alpha  occ. eigenvalues --  -10.21172 -10.20015 -10.20014 -10.19616 -10.19242
 Alpha  occ. eigenvalues --  -10.19017 -10.18910 -10.18885 -10.18818 -10.18594
 Alpha  occ. eigenvalues --  -10.18460 -10.18233 -10.17959 -10.17674 -10.17600
 Alpha  occ. eigenvalues --  -10.17588 -10.17499 -10.17437 -10.17422 -10.17312
 Alpha  occ. eigenvalues --  -10.16800 -10.11605  -1.78100  -1.12606  -1.10307
 Alpha  occ. eigenvalues --   -1.09586  -1.06198  -1.06196  -1.05975  -1.05786
 Alpha  occ. eigenvalues --   -1.05548  -1.04822  -1.04071  -1.03863  -1.03796
 Alpha  occ. eigenvalues --   -1.03484  -1.02065  -1.00976  -1.00869  -0.99989
 Alpha  occ. eigenvalues --   -0.99406  -0.99355  -0.98850  -0.98626  -0.98386
 Alpha  occ. eigenvalues --   -0.97375  -0.96595  -0.96449  -0.95411  -0.94779
 Alpha  occ. eigenvalues --   -0.93859  -0.93381  -0.92723  -0.91722  -0.90409
 Alpha  occ. eigenvalues --   -0.90283  -0.90016  -0.89579  -0.88373  -0.88262
 Alpha  occ. eigenvalues --   -0.87564  -0.87334  -0.86863  -0.85684  -0.84628
 Alpha  occ. eigenvalues --   -0.84572  -0.83409  -0.82576  -0.81534  -0.80618
 Alpha  occ. eigenvalues --   -0.80311  -0.79255  -0.78183  -0.77314  -0.76409
 Alpha  occ. eigenvalues --   -0.75393  -0.74825  -0.73241  -0.72819  -0.72633
 Alpha  occ. eigenvalues --   -0.72432  -0.72412  -0.71926  -0.71404  -0.71036
 Alpha  occ. eigenvalues --   -0.70376  -0.69842  -0.69524  -0.69292  -0.68086
 Alpha  occ. eigenvalues --   -0.67634  -0.66938  -0.66704  -0.65800  -0.64479
 Alpha  occ. eigenvalues --   -0.64423  -0.64183  -0.64080  -0.63393  -0.61707
 Alpha  occ. eigenvalues --   -0.61327  -0.61039  -0.61009  -0.60743  -0.60691
 Alpha  occ. eigenvalues --   -0.60386  -0.59995  -0.59880  -0.58823  -0.58309
 Alpha  occ. eigenvalues --   -0.57969  -0.57837  -0.57554  -0.57184  -0.57138
 Alpha  occ. eigenvalues --   -0.56660  -0.56143  -0.55894  -0.55666  -0.55327
 Alpha  occ. eigenvalues --   -0.55023  -0.54893  -0.54682  -0.54041  -0.53656
 Alpha  occ. eigenvalues --   -0.53603  -0.53188  -0.53102  -0.52616  -0.52409
 Alpha  occ. eigenvalues --   -0.51963  -0.51602  -0.51049  -0.50959  -0.50753
 Alpha  occ. eigenvalues --   -0.50298  -0.50047  -0.49698  -0.49379  -0.49153
 Alpha  occ. eigenvalues --   -0.49096  -0.48858  -0.48334  -0.48101  -0.48023
 Alpha  occ. eigenvalues --   -0.47962  -0.47451  -0.47261  -0.46954  -0.46885
 Alpha  occ. eigenvalues --   -0.46673  -0.46434  -0.46338  -0.45976  -0.45841
 Alpha  occ. eigenvalues --   -0.45429  -0.45268  -0.45100  -0.45081  -0.44906
 Alpha  occ. eigenvalues --   -0.44725  -0.44618  -0.44461  -0.44378  -0.44208
 Alpha  occ. eigenvalues --   -0.44123  -0.43940  -0.43783  -0.43685  -0.43525
 Alpha  occ. eigenvalues --   -0.43477  -0.43317  -0.42985  -0.42799  -0.42644
 Alpha  occ. eigenvalues --   -0.42302  -0.42193  -0.42133  -0.41987  -0.41726
 Alpha  occ. eigenvalues --   -0.41651  -0.41389  -0.41364  -0.41262  -0.41175
 Alpha  occ. eigenvalues --   -0.41026  -0.40834  -0.40709  -0.40663  -0.40418
 Alpha  occ. eigenvalues --   -0.40323  -0.39817  -0.39798  -0.39750  -0.39500
 Alpha  occ. eigenvalues --   -0.39293  -0.39185  -0.38893  -0.38826  -0.38668
 Alpha  occ. eigenvalues --   -0.38648  -0.38565  -0.38465  -0.38252  -0.38070
 Alpha  occ. eigenvalues --   -0.38012  -0.37913  -0.37817  -0.37633  -0.37482
 Alpha  occ. eigenvalues --   -0.37284  -0.36978  -0.36917  -0.36783  -0.36666
 Alpha  occ. eigenvalues --   -0.36631  -0.36484  -0.35885  -0.35784  -0.35673
 Alpha  occ. eigenvalues --   -0.35577  -0.35400  -0.35235  -0.35086  -0.34947
 Alpha  occ. eigenvalues --   -0.34879  -0.34684  -0.34597  -0.34052  -0.33988
 Alpha  occ. eigenvalues --   -0.33698  -0.33496  -0.33153  -0.33068  -0.32878
 Alpha  occ. eigenvalues --   -0.32674  -0.32449  -0.32102  -0.32072  -0.31882
 Alpha  occ. eigenvalues --   -0.31766  -0.31568  -0.31240  -0.31162  -0.30848
 Alpha  occ. eigenvalues --   -0.30375  -0.29558  -0.29280  -0.28866  -0.28752
 Alpha  occ. eigenvalues --   -0.28636  -0.28586  -0.28190  -0.27702  -0.26979
 Alpha  occ. eigenvalues --   -0.26461  -0.25860  -0.25560  -0.24898  -0.24814
 Alpha  occ. eigenvalues --   -0.24632  -0.24581  -0.24180  -0.23806  -0.23489
 Alpha  occ. eigenvalues --   -0.23321  -0.22955  -0.22836  -0.22744  -0.22690
 Alpha  occ. eigenvalues --   -0.22390  -0.22234  -0.21479  -0.20848  -0.20675
 Alpha  occ. eigenvalues --   -0.20603  -0.19784  -0.19169  -0.18772  -0.18622
 Alpha  occ. eigenvalues --   -0.18413  -0.17786  -0.15125
 Alpha virt. eigenvalues --   -0.09052  -0.05894  -0.04586  -0.03618  -0.02915
 Alpha virt. eigenvalues --   -0.02649  -0.02442  -0.01384  -0.00781  -0.00044
 Alpha virt. eigenvalues --    0.00045   0.00099   0.00204   0.00409   0.01791

 Mulliken charges:
               1
     1  C    0.049472
     2  C    0.020860
     3  O   -0.311111
     4  H    0.030563
     5  H    0.031538
     6  H    0.034174
     7  N   -0.102273
     8  C    0.067355
     9  C    0.091834
    10  O   -0.283752
    11  C    0.104218
    12  C    0.072752
    13  O   -0.376866
    14  O   -0.454390
    15  H    0.103335
    16  H   -0.006934
    17  H    0.023748
    18  H    0.025853
    19  N   -0.146153
    20  C    0.170857
    21  C    0.057227
    22  O   -0.299819
    23  C   -0.052811
    24  C    0.040534
    25  C   -0.006033
    26  C    0.032362
    27  N    0.067692
    28  H    0.152014
    29  H    0.000787
    30  H   -0.019736
    31  H    0.002745
    32  H    0.055836
    33  H    0.002775
    34  H    0.026691
    35  H    0.062715
    36  H    0.059976
    37  H    0.082607
    38  H    0.186495
    39  H    0.186693
    40  H    0.188244
    41  N   -0.142739
    42  C    0.146658
    43  C    0.060529
    44  O   -0.281766
    45  C    0.052559
    46  C    0.107758
    47  O   -0.391488
    48  O   -0.450002
    49  H    0.160956
    50  H    0.009601
    51  H   -0.012521
    52  H    0.016605
    53  N   -0.162404
    54  C    0.243823
    55  C   -0.021403
    56  O   -0.304705
    57  H    0.144499
    58  H    0.017845
    59  H    0.013296
    60  N   -0.184817
    61  C    0.200017
    62  C    0.038444
    63  O   -0.296093
    64  C    0.055832
    65  C    0.091504
    66  N   -0.032072
    67  O   -0.347999
    68  H    0.162314
    69  H    0.030928
    70  H    0.086367
    71  H    0.009548
    72  H    0.150169
    73  H    0.116712
    74  N   -0.133508
    75  C    0.206224
    76  C    0.037344
    77  O   -0.301994
    78  H    0.154376
    79  H    0.025814
    80  H    0.021719
    81  N   -0.129668
    82  C    0.114477
    83  C    0.150988
    84  O   -0.335048
    85  C    0.142868
    86  C    0.011236
    87  C   -0.003664
    88  C    0.015253
    89  C    0.013369
    90  C   -0.025645
    91  C    0.175145
    92  O   -0.194055
    93  H    0.171519
    94  H   -0.009266
    95  H   -0.015673
    96  H   -0.081287
    97  H   -0.095674
    98  H   -0.041942
    99  H   -0.029811
   100  H   -0.044303
   101  H    0.173755
   102  N   -0.121950
   103  C    0.105323
   104  C    0.058172
   105  O   -0.276185
   106  C   -0.086915
   107  C    0.071834
   108  C    0.062235
   109  C   -0.040421
   110  H    0.125466
   111  H    0.044602
   112  H   -0.027504
   113  H   -0.005862
   114  H   -0.008776
   115  H    0.014803
   116  H   -0.002795
   117  H    0.027765
   118  H    0.053462
   119  H   -0.000540
   120  H    0.010511
   121  N   -0.144037
   122  C    0.132974
   123  C    0.089312
   124  O   -0.286630
   125  C    0.201998
   126  O   -0.308503
   127  H    0.153379
   128  H    0.031420
   129  H    0.017320
   130  H   -0.029258
   131  H    0.204524
   132  N   -0.105134
   133  C    0.086429
   134  C    0.064304
   135  O   -0.246479
   136  C    0.025759
   137  H    0.123004
   138  H    0.036064
   139  H    0.048536
   140  H    0.042540
   141  H    0.003630
   142  N   -0.145330
   143  C    0.100542
   144  C    0.085234
   145  O   -0.281020
   146  C    0.026001
   147  H    0.103078
   148  H    0.023049
   149  H   -0.021183
   150  H    0.034420
   151  H    0.031530
   152  N   -0.176196
   153  C    0.149656
   154  C    0.073488
   155  O   -0.273951
   156  C   -0.002201
   157  C    0.087864
   158  C    0.136231
   159  O   -0.434128
   160  O   -0.384211
   161  H    0.118022
   162  H   -0.039719
   163  H    0.016340
   164  H   -0.012522
   165  H   -0.026344
   166  H   -0.038267
   167  N   -0.155775
   168  C    0.128393
   169  H    0.014633
   170  H    0.022699
   171  H    0.036388
   172  H    0.117028
   173  Ca   1.270132
   174  O   -0.289752
   175  H    0.168844
   176  H    0.160074
 Sum of Mulliken charges =  -0.00000

 Dipole moment (field-independent basis, Debye):
    X=             34.5537    Y=             -8.5498    Z=             -9.2849  Tot=             36.7868
 Quadrupole moment (field-independent basis, Debye-Ang):
   XX=           -610.8487   YY=           -471.3480   ZZ=           -515.3009
   XY=             87.3223   XZ=            -82.0560   YZ=             12.5811

 ESP charges:
               1
     1  C   -0.424150
     2  C    0.825595
     3  O   -0.660544
     4  H    0.099193
     5  H    0.125771
     6  H    0.111678
     7  N   -0.771250
     8  C    0.296576
     9  C    0.744865
    10  O   -0.596931
    11  C   -0.587550
    12  C    1.146597
    13  O   -0.916806
    14  O   -0.818559
    15  H    0.349586
    16  H   -0.015309
    17  H    0.152671
    18  H    0.156843
    19  N   -0.395592
    20  C   -0.327486
    21  C    0.680124
    22  O   -0.597537
    23  C    0.105373
    24  C    0.066476
    25  C   -0.285708
    26  C    0.143714
    27  N   -0.381607
    28  H    0.271359
    29  H    0.136856
    30  H    0.002970
    31  H   -0.005358
    32  H    0.053579
    33  H    0.039681
    34  H    0.093391
    35  H    0.113042
    36  H    0.077255
    37  H    0.060602
    38  H    0.321181
    39  H    0.321087
    40  H    0.339272
    41  N   -0.493860
    42  C    0.120662
    43  C    0.343188
    44  O   -0.507623
    45  C   -0.285038
    46  C    0.904697
    47  O   -0.747391
    48  O   -0.916695
    49  H    0.391973
    50  H    0.095976
    51  H    0.060286
    52  H    0.071812
    53  N   -0.046120
    54  C   -0.269206
    55  C    0.577083
    56  O   -0.599903
    57  H    0.038968
    58  H    0.125222
    59  H    0.110394
    60  N   -0.363286
    61  C    0.032807
    62  C    0.395430
    63  O   -0.519644
    64  C   -0.388807
    65  C    0.757530
    66  N   -0.791676
    67  O   -0.642069
    68  H    0.355682
    69  H    0.135941
    70  H    0.159277
    71  H    0.109495
    72  H    0.403764
    73  H    0.336607
    74  N   -0.084254
    75  C   -0.450961
    76  C    0.804304
    77  O   -0.590646
    78  H    0.249645
    79  H    0.174380
    80  H    0.132394
    81  N   -0.811370
    82  C    0.412421
    83  C    0.447691
    84  O   -0.520727
    85  C    0.128158
    86  C   -0.024257
    87  C   -0.393449
    88  C   -0.157662
    89  C    0.049526
    90  C   -0.151874
    91  C    0.199173
    92  O   -0.525507
    93  H    0.547260
    94  H   -0.009468
    95  H   -0.043477
    96  H   -0.039107
    97  H    0.177168
    98  H    0.120076
    99  H    0.091911
   100  H    0.102248
   101  H    0.414178
   102  N   -0.587454
   103  C    0.295543
   104  C    0.380250
   105  O   -0.535137
   106  C    0.116129
   107  C   -0.191255
   108  C   -0.137190
   109  C    0.020315
   110  H    0.281983
   111  H    0.122585
   112  H   -0.025344
   113  H    0.045335
   114  H    0.043394
   115  H    0.068551
   116  H    0.030280
   117  H   -0.034796
   118  H    0.062596
   119  H    0.013320
   120  H   -0.001573
   121  N   -0.275952
   122  C    0.011460
   123  C    0.529785
   124  O   -0.460534
   125  C    0.121059
   126  O   -0.459349
   127  H    0.392117
   128  H    0.084133
   129  H    0.043450
   130  H   -0.018684
   131  H    0.385631
   132  N   -0.527095
   133  C    0.253309
   134  C    0.430180
   135  O   -0.508696
   136  C   -0.367532
   137  H    0.304282
   138  H    0.070240
   139  H    0.130414
   140  H    0.122951
   141  H    0.071822
   142  N   -0.355611
   143  C    0.094988
   144  C    0.299159
   145  O   -0.513541
   146  C   -0.326512
   147  H    0.255959
   148  H    0.103817
   149  H    0.049184
   150  H    0.123434
   151  H    0.106274
   152  N    0.227935
   153  C   -0.326839
   154  C    0.600994
   155  O   -0.556757
   156  C    0.191115
   157  C   -0.375893
   158  C    0.880853
   159  O   -0.750318
   160  O   -0.877070
   161  H   -0.084109
   162  H    0.065805
   163  H    0.046441
   164  H   -0.091941
   165  H    0.053627
   166  H    0.081843
   167  N   -0.262138
   168  C   -0.117116
   169  H    0.049712
   170  H    0.065987
   171  H    0.091064
   172  H    0.223085
   173  Ca   1.570054
   174  O   -0.841707
   175  H    0.411450
   176  H    0.332057
 Sum of ESP charges =   0.00000

 Normal termination of Gaussian 16 at Sat Sep 14 23:27:48 2019.
