 Gaussian 09, Revision D.01,
 Gaussian 09:  ES64L-G09RevD.01 24-Apr-2013

 ----------------------------------------------------------------------
 #maxdisk=50GB #B3LYP/SVP Density=Current scf=(tight) #IOP(5/87=12)Pop=
 (MK,readradii) iop(6/33=2) iop(6/42=6)
 ----------------------------------------------------------------------

 ------------
 SOL molecule
 ------------
 Symbolic Z-matrix:
 Charge =  0 Multiplicity = 1

                         Standard orientation:
 ---------------------------------------------------------------------
 Center     Atomic      Atomic             Coordinates (Angstroms)
 Number     Number       Type             X           Y           Z
 ---------------------------------------------------------------------
      1          6           0        2.047880    2.937548    5.371042
      2          6           0        1.520367    2.344869    4.076646
      3          8           0        2.276231    2.016685    3.159060
      4          1           0        3.045516    2.545841    5.569235
      5          1           0        2.094976    4.022474    5.281767
      6          1           0        1.383420    2.668352    6.191547
      7          7           0        0.209897    2.374497    3.818403
      8          6           0       -0.413373    2.237538    2.516989
      9          6           0       -0.440349    3.548122    1.753679
     10          8           0       -1.130237    4.523525    2.049048
     11          6           0       -1.846094    1.756126    2.745360
     12          6           0       -2.815178    1.650355    1.576006
     13          8           0       -2.269263    1.708547    0.456591
     14          8           0       -4.040623    1.511647    1.780077
     15          1           0       -0.342293    2.491239    4.655934
     16          1           0        0.160014    1.411241    2.108505
     17          1           0       -2.273197    2.462147    3.450213
     18          1           0       -1.773198    0.788456    3.234441
     19          7           0        0.366800    3.621457    0.689286
     20          6           0        0.582622    4.856784   -0.051988
     21          6           0       -0.489592    5.286987   -1.031877
     22          8           0       -0.435265    6.479965   -1.336429
     23          6           0        1.937454    4.610097   -0.715220
     24          6           0        3.184201    4.555672    0.155905
     25          6           0        3.556970    5.956537    0.655826
     26          6           0        4.661512    5.920528    1.713602
     27          7           0        5.053757    7.215575    2.286486
     28          1           0        0.667353    2.742106    0.287653
     29          1           0        0.729215    5.733782    0.579111
     30          1           0        2.017728    5.391045   -1.469392
     31          1           0        1.873131    3.672852   -1.251442
     32          1           0        4.048046    4.243026   -0.428067
     33          1           0        3.097252    3.862521    0.988481
     34          1           0        2.666910    6.459170    1.024816
     35          1           0        4.043975    6.493382   -0.153879
     36          1           0        5.615708    5.652391    1.248187
     37          1           0        4.357087    5.296518    2.551002
     38          1           0        5.695635    7.153788    3.067175
     39          1           0        5.426025    7.840652    1.590141
     40          1           0        4.282548    7.661150    2.757548
     41          7           0       -1.375497    4.422693   -1.551366
     42          6           0       -2.395613    4.884216   -2.476438
     43          6           0       -3.788252    4.591113   -1.937691
     44          8           0       -4.801541    4.897591   -2.550811
     45          6           0       -2.028150    4.141744   -3.751391
     46          6           0       -2.298571    2.647999   -3.799319
     47          8           0       -2.036985    2.060018   -4.868549
     48          8           0       -2.442202    2.028724   -2.725229
     49          1           0       -1.476133    3.471934   -1.229917
     50          1           0       -2.412316    5.964046   -2.661607
     51          1           0       -0.965475    4.315239   -3.935571
     52          1           0       -2.578814    4.628239   -4.558604
     53          7           0       -3.933444    4.251128   -0.645898
     54          6           0       -5.216962    4.146374    0.019014
     55          6           0       -6.130757    2.997332   -0.371476
     56          8           0       -7.350935    3.012938   -0.193083
     57          1           0       -3.093150    4.031119   -0.136680
     58          1           0       -5.734008    5.102556    0.027928
     59          1           0       -4.971785    4.003690    1.073352
     60          7           0       -5.469173    1.962149   -0.899493
     61          6           0       -6.130464    0.799313   -1.441809
     62          6           0       -6.491133   -0.252588   -0.406810
     63          8           0       -7.356278   -1.092302   -0.653600
     64          6           0       -5.406911    0.259635   -2.671206
     65          6           0       -4.372048   -0.797059   -2.293906
     66          7           0       -4.120681   -1.822927   -3.103232
     67          8           0       -3.641559   -0.625665   -1.316557
     68          1           0       -4.457515    1.986237   -0.827597
     69          1           0       -7.106573    1.182164   -1.763578
     70          1           0       -4.943439    1.101886   -3.176981
     71          1           0       -6.112422   -0.178848   -3.379223
     72          1           0       -4.866770   -2.006481   -3.759631
     73          1           0       -3.597889   -2.613768   -2.756016
     74          7           0       -5.973529   -0.172153    0.817533
     75          6           0       -6.162787   -1.159029    1.869558
     76          6           0       -5.014934   -2.090449    2.228432
     77          8           0       -5.134869   -2.874842    3.171854
     78          1           0       -5.292371    0.562170    0.934546
     79          1           0       -7.035630   -1.764397    1.627534
     80          1           0       -6.330348   -0.630565    2.806814
     81          7           0       -3.915418   -2.041416    1.467406
     82          6           0       -3.007403   -3.161780    1.350383
     83          6           0       -1.599264   -2.588579    1.247990
     84          8           0       -1.428565   -1.551961    0.615705
     85          6           0       -3.454191   -4.019751    0.180098
     86          6           0       -4.876059   -4.524093    0.210589
     87          6           0       -5.856467   -4.005830   -0.649646
     88          6           0       -5.259334   -5.523727    1.114984
     89          6           0       -7.212086   -4.332778   -0.548146
     90          6           0       -6.598289   -5.906935    1.240089
     91          6           0       -7.562293   -5.287212    0.432166
     92          8           0       -8.830284   -5.793266    0.417727
     93          1           0       -3.890509   -1.357829    0.732091
     94          1           0       -3.062430   -3.725338    2.282893
     95          1           0       -2.804556   -4.894318    0.128064
     96          1           0       -3.345587   -3.455823   -0.746989
     97          1           0       -5.649440   -3.267803   -1.417667
     98          1           0       -4.541737   -5.930474    1.816491
     99          1           0       -7.981016   -3.946180   -1.202124
    100          1           0       -6.931132   -6.677716    1.925664
    101          1           0       -9.000682   -6.242442    1.246766
    102          7           0       -0.585422   -3.309834    1.736371
    103          6           0        0.770847   -2.826337    1.617776
    104          6           0        1.535717   -3.767638    0.689861
    105          8           0        1.398031   -4.989815    0.805737
    106          6           0        1.423145   -2.696556    2.983267
    107          6           0        0.673257   -1.564313    3.694810
    108          6           0        2.938834   -2.732582    3.132221
    109          6           0        1.213434   -1.436809    5.117080
    110          1           0       -0.714501   -4.130564    2.311558
    111          1           0        0.726768   -1.857127    1.120495
    112          1           0        1.123020   -3.628206    3.448727
    113          1           0       -0.380159   -1.816778    3.811329
    114          1           0        0.823349   -0.619522    3.180181
    115          1           0        3.267624   -2.746586    4.163095
    116          1           0        3.392705   -3.608701    2.672419
    117          1           0        3.255395   -1.798806    2.651750
    118          1           0        2.135741   -0.862244    5.149093
    119          1           0        0.368489   -0.943000    5.594175
    120          1           0        1.406409   -2.359603    5.670716
    121          7           0        2.394411   -3.248206   -0.194976
    122          6           0        3.098251   -3.831216   -1.318857
    123          6           0        4.589010   -3.546858   -1.185148
    124          8           0        4.998739   -2.703102   -0.403868
    125          6           0        2.464545   -3.473110   -2.661532
    126          8           0        2.565530   -2.083913   -2.887212
    127          1           0        2.535803   -2.259459   -0.073372
    128          1           0        2.917075   -4.885565   -1.153557
    129          1           0        1.382987   -3.645069   -2.604399
    130          1           0        2.770424   -3.907249   -3.607185
    131          1           0        2.041906   -1.600376   -2.246267
    132          7           0        5.489865   -4.333249   -1.789009
    133          6           0        6.888110   -4.352029   -1.439783
    134          6           0        7.596777   -3.005027   -1.525669
    135          8           0        8.359668   -2.662946   -0.621912
    136          6           0        7.602784   -5.373036   -2.327356
    137          1           0        5.102474   -5.046716   -2.394148
    138          1           0        6.909103   -4.673105   -0.389702
    139          1           0        6.958743   -6.004544   -2.928777
    140          1           0        8.394903   -4.906973   -2.919584
    141          1           0        8.088126   -6.087764   -1.670617
    142          7           0        7.310632   -2.254650   -2.585459
    143          6           0        7.753083   -0.874662   -2.625083
    144          6           0        7.259331    0.001495   -1.476145
    145          8           0        7.965581    0.758019   -0.815553
    146          6           0        7.349648   -0.346515   -4.004649
    147          1           0        6.526947   -2.552045   -3.139259
    148          1           0        8.838476   -0.898809   -2.559221
    149          1           0        7.723386    0.677042   -4.023416
    150          1           0        7.884450   -0.774707   -4.852021
    151          1           0        6.285910   -0.451591   -4.165023
    152          7           0        6.042485   -0.145599   -0.950740
    153          6           0        5.512072    0.541042    0.204503
    154          6           0        6.221303    0.231693    1.516865
    155          8           0        6.494827    1.156388    2.273716
    156          6           0        3.990058    0.436270    0.275176
    157          6           0        3.313114    0.829317   -1.029953
    158          6           0        1.830557    0.479505   -1.037374
    159          8           0        1.021712    1.400142   -0.780085
    160          8           0        1.386644   -0.686832   -1.182280
    161          1           0        5.378934   -0.804322   -1.357537
    162          1           0        5.742565    1.576933   -0.022660
    163          1           0        3.559687    1.076251    1.053704
    164          1           0        3.765499   -0.570793    0.626169
    165          1           0        3.828334    0.395117   -1.886294
    166          1           0        3.509108    1.904252   -1.029552
    167          7           0        6.469798   -1.065585    1.731857
    168          6           0        7.216617   -1.670925    2.803643
    169          1           0        8.010493   -2.291323    2.387941
    170          1           0        7.655060   -0.891894    3.427332
    171          1           0        6.551704   -2.288704    3.407087
    172          1           0        6.088601   -1.675578    1.021577
    173         20           0       -1.187922    0.235530   -1.385886
    174          8           0       -1.024501   -2.250705   -2.351717
    175          1           0       -1.324835   -3.143569   -2.513868
    176          1           0       -0.698291   -1.950962   -3.197850
 ---------------------------------------------------------------------

 SCF Done:  E(RB3LYP) =  -5333.57214513     A.U. after   18 cycles

 The electronic state is 1-A.
 Alpha  occ. eigenvalues -- -145.39292 -19.20569 -19.14202 -19.14090 -19.12606
 Alpha  occ. eigenvalues --  -19.12401 -19.11946 -19.11881 -19.11306 -19.11303
 Alpha  occ. eigenvalues --  -19.10220 -19.09832 -19.08557 -19.08066 -19.07247
 Alpha  occ. eigenvalues --  -19.06934 -19.06176 -19.05934 -19.04861 -19.04806
 Alpha  occ. eigenvalues --  -19.04487 -19.04217 -19.04131 -19.01553 -15.45002
 Alpha  occ. eigenvalues --  -14.58146 -14.39636 -14.37631 -14.37553 -14.37482
 Alpha  occ. eigenvalues --  -14.36235 -14.35580 -14.34545 -14.33052 -14.32691
 Alpha  occ. eigenvalues --  -14.32358 -14.32096 -14.30160 -14.29642 -14.29567
 Alpha  occ. eigenvalues --  -12.58631 -12.58588 -12.58556 -10.34097 -10.32339
 Alpha  occ. eigenvalues --  -10.31286 -10.30616 -10.30499 -10.29902 -10.29085
 Alpha  occ. eigenvalues --  -10.29022 -10.27909 -10.26463 -10.26407 -10.26231
 Alpha  occ. eigenvalues --  -10.26153 -10.26148 -10.25906 -10.25520 -10.25011
 Alpha  occ. eigenvalues --  -10.25001 -10.24814 -10.23573 -10.23433 -10.23179
 Alpha  occ. eigenvalues --  -10.23053 -10.23029 -10.22918 -10.22669 -10.22401
 Alpha  occ. eigenvalues --  -10.22201 -10.22147 -10.22130 -10.22014 -10.21229
 Alpha  occ. eigenvalues --  -10.20804 -10.20619 -10.20158 -10.19925 -10.19864
 Alpha  occ. eigenvalues --  -10.19745 -10.19729 -10.19628 -10.19275 -10.18799
 Alpha  occ. eigenvalues --  -10.18650 -10.18611 -10.18501 -10.18067 -10.17870
 Alpha  occ. eigenvalues --  -10.17818 -10.17622 -10.17520 -10.17398 -10.16787
 Alpha  occ. eigenvalues --  -10.16341 -10.14226  -1.81841  -1.13622  -1.09685
 Alpha  occ. eigenvalues --   -1.09535  -1.09138  -1.08044  -1.07125  -1.06654
 Alpha  occ. eigenvalues --   -1.05475  -1.04942  -1.04342  -1.03091  -1.03084
 Alpha  occ. eigenvalues --   -1.03077  -1.02565  -1.01108  -1.01018  -0.99922
 Alpha  occ. eigenvalues --   -0.99833  -0.99617  -0.99166  -0.98289  -0.98064
 Alpha  occ. eigenvalues --   -0.97761  -0.96764  -0.96432  -0.96422  -0.94491
 Alpha  occ. eigenvalues --   -0.94376  -0.92999  -0.92500  -0.92014  -0.91226
 Alpha  occ. eigenvalues --   -0.90429  -0.90268  -0.89998  -0.89568  -0.89411
 Alpha  occ. eigenvalues --   -0.87962  -0.87836  -0.87528  -0.86324  -0.85516
 Alpha  occ. eigenvalues --   -0.83358  -0.82659  -0.81831  -0.80890  -0.80210
 Alpha  occ. eigenvalues --   -0.78691  -0.78098  -0.77934  -0.77487  -0.76234
 Alpha  occ. eigenvalues --   -0.75372  -0.74694  -0.73775  -0.73477  -0.73283
 Alpha  occ. eigenvalues --   -0.73237  -0.72718  -0.72628  -0.71126  -0.70889
 Alpha  occ. eigenvalues --   -0.69501  -0.69409  -0.68927  -0.68332  -0.67993
 Alpha  occ. eigenvalues --   -0.67605  -0.66570  -0.65449  -0.64952  -0.64694
 Alpha  occ. eigenvalues --   -0.64435  -0.62987  -0.62365  -0.62262  -0.61800
 Alpha  occ. eigenvalues --   -0.61202  -0.61102  -0.60653  -0.60278  -0.59723
 Alpha  occ. eigenvalues --   -0.59554  -0.59427  -0.59219  -0.59100  -0.57845
 Alpha  occ. eigenvalues --   -0.57496  -0.57318  -0.57294  -0.57163  -0.56462
 Alpha  occ. eigenvalues --   -0.56348  -0.56170  -0.56039  -0.55833  -0.55545
 Alpha  occ. eigenvalues --   -0.54971  -0.54612  -0.53785  -0.53714  -0.53346
 Alpha  occ. eigenvalues --   -0.52827  -0.52819  -0.52567  -0.52321  -0.52028
 Alpha  occ. eigenvalues --   -0.51296  -0.50839  -0.50527  -0.50433  -0.50004
 Alpha  occ. eigenvalues --   -0.49824  -0.49509  -0.49383  -0.49217  -0.48928
 Alpha  occ. eigenvalues --   -0.48758  -0.48693  -0.48264  -0.48140  -0.48004
 Alpha  occ. eigenvalues --   -0.47809  -0.47729  -0.47665  -0.47391  -0.47170
 Alpha  occ. eigenvalues --   -0.46583  -0.46559  -0.46454  -0.46199  -0.46005
 Alpha  occ. eigenvalues --   -0.45875  -0.45696  -0.45527  -0.45239  -0.45102
 Alpha  occ. eigenvalues --   -0.44810  -0.44667  -0.44462  -0.44378  -0.44293
 Alpha  occ. eigenvalues --   -0.43968  -0.43871  -0.43648  -0.43374  -0.43270
 Alpha  occ. eigenvalues --   -0.43107  -0.42996  -0.42841  -0.42720  -0.42661
 Alpha  occ. eigenvalues --   -0.42506  -0.42378  -0.42079  -0.41900  -0.41799
 Alpha  occ. eigenvalues --   -0.41760  -0.41658  -0.41303  -0.41274  -0.41074
 Alpha  occ. eigenvalues --   -0.40942  -0.40836  -0.40525  -0.40502  -0.40388
 Alpha  occ. eigenvalues --   -0.40291  -0.40153  -0.39752  -0.39560  -0.39476
 Alpha  occ. eigenvalues --   -0.39281  -0.39194  -0.39122  -0.38990  -0.38850
 Alpha  occ. eigenvalues --   -0.38752  -0.38580  -0.38453  -0.38415  -0.38320
 Alpha  occ. eigenvalues --   -0.38269  -0.38032  -0.37916  -0.37781  -0.37702
 Alpha  occ. eigenvalues --   -0.37528  -0.37439  -0.37226  -0.37150  -0.36927
 Alpha  occ. eigenvalues --   -0.36761  -0.36644  -0.36543  -0.36227  -0.35947
 Alpha  occ. eigenvalues --   -0.35892  -0.35790  -0.35446  -0.35284  -0.35212
 Alpha  occ. eigenvalues --   -0.34833  -0.34628  -0.34529  -0.34324  -0.33932
 Alpha  occ. eigenvalues --   -0.33845  -0.33459  -0.33387  -0.32930  -0.32853
 Alpha  occ. eigenvalues --   -0.32712  -0.32585  -0.32490  -0.32175  -0.31704
 Alpha  occ. eigenvalues --   -0.31481  -0.31068  -0.30970  -0.30875  -0.30454
 Alpha  occ. eigenvalues --   -0.30260  -0.30098  -0.29958  -0.29262  -0.29160
 Alpha  occ. eigenvalues --   -0.28273  -0.28177  -0.27806  -0.27477  -0.27227
 Alpha  occ. eigenvalues --   -0.26675  -0.26029  -0.25879  -0.25794  -0.25587
 Alpha  occ. eigenvalues --   -0.25557  -0.24468  -0.24307  -0.24151  -0.23899
 Alpha  occ. eigenvalues --   -0.23584  -0.23553  -0.23462  -0.23318  -0.22913
 Alpha  occ. eigenvalues --   -0.22658  -0.22422  -0.22166  -0.21753  -0.21608
 Alpha  occ. eigenvalues --   -0.20990  -0.20842  -0.20710  -0.20201  -0.19825
 Alpha  occ. eigenvalues --   -0.19387  -0.19048  -0.17711
 Alpha virt. eigenvalues --   -0.10536  -0.04261  -0.03873  -0.03539  -0.02386
 Alpha virt. eigenvalues --   -0.01038  -0.00939  -0.00794  -0.00529   0.00129
 Alpha virt. eigenvalues --    0.00285   0.00457   0.00937   0.01008   0.01452

 Mulliken charges:
               1
     1  C    0.058871
     2  C    0.024973
     3  O   -0.305533
     4  H    0.035853
     5  H    0.025451
     6  H    0.019005
     7  N   -0.141908
     8  C    0.154611
     9  C    0.072975
    10  O   -0.286788
    11  C    0.020936
    12  C    0.191470
    13  O   -0.480503
    14  O   -0.368207
    15  H    0.112050
    16  H    0.000644
    17  H    0.007104
    18  H    0.006986
    19  N   -0.152291
    20  C    0.144607
    21  C    0.095987
    22  O   -0.311511
    23  C    0.035511
    24  C    0.028674
    25  C   -0.022162
    26  C    0.020629
    27  N    0.078280
    28  H    0.147421
    29  H   -0.015432
    30  H   -0.008864
    31  H    0.008704
    32  H    0.017779
    33  H    0.040254
    34  H    0.034116
    35  H    0.008585
    36  H    0.069032
    37  H    0.084256
    38  H    0.188732
    39  H    0.188729
    40  H    0.178247
    41  N   -0.182088
    42  C    0.118540
    43  C    0.065192
    44  O   -0.279417
    45  C    0.082405
    46  C    0.108718
    47  O   -0.359583
    48  O   -0.484268
    49  H    0.140040
    50  H    0.037619
    51  H    0.005647
    52  H    0.011849
    53  N   -0.172738
    54  C    0.222318
    55  C    0.062541
    56  O   -0.284976
    57  H    0.129328
    58  H    0.010356
    59  H    0.021657
    60  N   -0.184231
    61  C    0.142128
    62  C    0.014033
    63  O   -0.305467
    64  C    0.146060
    65  C    0.036070
    66  N   -0.011962
    67  O   -0.368799
    68  H    0.151395
    69  H    0.030370
    70  H    0.085554
    71  H   -0.006629
    72  H    0.137751
    73  H    0.103869
    74  N   -0.154342
    75  C    0.242592
    76  C    0.026934
    77  O   -0.304510
    78  H    0.142534
    79  H    0.049184
    80  H    0.022505
    81  N   -0.160390
    82  C    0.116751
    83  C    0.143743
    84  O   -0.348854
    85  C    0.209312
    86  C    0.005796
    87  C   -0.016239
    88  C    0.001458
    89  C    0.016373
    90  C   -0.024220
    91  C    0.141750
    92  O   -0.207472
    93  H    0.155000
    94  H   -0.005024
    95  H   -0.011728
    96  H   -0.078479
    97  H   -0.078388
    98  H   -0.037396
    99  H   -0.015086
   100  H   -0.046834
   101  H    0.170447
   102  N   -0.120052
   103  C    0.140440
   104  C    0.058792
   105  O   -0.299446
   106  C   -0.133869
   107  C    0.004520
   108  C    0.086169
   109  C    0.024143
   110  H    0.132691
   111  H    0.014684
   112  H   -0.028519
   113  H    0.012574
   114  H    0.023784
   115  H    0.012283
   116  H    0.023627
   117  H    0.015643
   118  H    0.019643
   119  H   -0.000764
   120  H    0.006889
   121  N   -0.141487
   122  C    0.090559
   123  C    0.102636
   124  O   -0.284838
   125  C    0.280878
   126  O   -0.377386
   127  H    0.135140
   128  H    0.010578
   129  H   -0.042750
   130  H   -0.002742
   131  H    0.164363
   132  N   -0.128490
   133  C    0.076037
   134  C    0.051582
   135  O   -0.252103
   136  C    0.056854
   137  H    0.119728
   138  H    0.026324
   139  H    0.003940
   140  H    0.041248
   141  H    0.029234
   142  N   -0.122013
   143  C    0.114029
   144  C    0.071115
   145  O   -0.271213
   146  C    0.027546
   147  H    0.109309
   148  H    0.019468
   149  H    0.024175
   150  H    0.022316
   151  H    0.022883
   152  N   -0.155820
   153  C    0.134343
   154  C    0.079885
   155  O   -0.287504
   156  C   -0.058342
   157  C    0.105881
   158  C    0.192764
   159  O   -0.426897
   160  O   -0.432668
   161  H    0.116621
   162  H   -0.032486
   163  H    0.046638
   164  H    0.012028
   165  H    0.001347
   166  H   -0.016122
   167  N   -0.162739
   168  C    0.133195
   169  H    0.031268
   170  H    0.027558
   171  H    0.007547
   172  H    0.132371
   173  Ca   1.283009
   174  O   -0.263626
   175  H    0.191288
   176  H    0.184332
 Sum of Mulliken charges =   0.00000

 Dipole moment (field-independent basis, Debye):
    X=             31.5101    Y=              2.6744    Z=              5.8516  Tot=             32.1602
 Quadrupole moment (field-independent basis, Debye-Ang):
   XX=           -652.7075   YY=           -398.6046   ZZ=           -530.7816
   XY=            156.8564   XZ=              0.8910   YZ=            118.4236

 ESP charges:
               1
     1  C   -0.479662
     2  C    0.843948
     3  O   -0.651940
     4  H    0.133107
     5  H    0.142391
     6  H    0.103343
     7  N   -0.849172
     8  C    0.400353
     9  C    0.537183
    10  O   -0.575248
    11  C   -0.343550
    12  C    0.696718
    13  O   -0.630035
    14  O   -0.622579
    15  H    0.375677
    16  H   -0.047019
    17  H    0.084219
    18  H    0.061577
    19  N   -0.261477
    20  C   -0.048169
    21  C    0.535764
    22  O   -0.579770
    23  C   -0.012840
    24  C   -0.091736
    25  C   -0.097943
    26  C    0.067541
    27  N   -0.362035
    28  H    0.219970
    29  H    0.079685
    30  H    0.036804
    31  H    0.006198
    32  H    0.076176
    33  H    0.044875
    34  H    0.057793
    35  H    0.053832
    36  H    0.087828
    37  H    0.094630
    38  H    0.322792
    39  H    0.327799
    40  H    0.316863
    41  N   -0.393260
    42  C    0.155224
    43  C    0.390341
    44  O   -0.513954
    45  C   -0.322572
    46  C    0.820947
    47  O   -0.691479
    48  O   -0.861612
    49  H    0.234764
    50  H    0.105556
    51  H    0.102673
    52  H    0.066877
    53  N   -0.296677
    54  C   -0.061863
    55  C    0.441493
    56  O   -0.545829
    57  H    0.191737
    58  H    0.087217
    59  H    0.083285
    60  N   -0.176972
    61  C   -0.234583
    62  C    0.445859
    63  O   -0.551095
    64  C   -0.121905
    65  C    0.616319
    66  N   -0.824882
    67  O   -0.630918
    68  H    0.320385
    69  H    0.180015
    70  H    0.134036
    71  H    0.056429
    72  H    0.384481
    73  H    0.375811
    74  N   -0.022705
    75  C   -0.385230
    76  C    0.792229
    77  O   -0.594018
    78  H    0.115387
    79  H    0.156837
    80  H    0.124978
    81  N   -0.855114
    82  C    0.391355
    83  C    0.733431
    84  O   -0.736410
    85  C   -0.233171
    86  C    0.101115
    87  C   -0.294982
    88  C   -0.152592
    89  C   -0.114906
    90  C   -0.261366
    91  C    0.333233
    92  O   -0.553076
    93  H    0.533504
    94  H    0.010502
    95  H    0.036798
    96  H    0.078569
    97  H    0.140514
    98  H    0.136304
    99  H    0.153425
   100  H    0.132099
   101  H    0.403844
   102  N   -0.800512
   103  C    0.080311
   104  C    0.821363
   105  O   -0.608087
   106  C   -0.047142
   107  C    0.291357
   108  C   -0.226819
   109  C   -0.424031
   110  H    0.369331
   111  H    0.028978
   112  H    0.023654
   113  H    0.008771
   114  H    0.072078
   115  H    0.106663
   116  H    0.075190
   117  H   -0.011886
   118  H    0.097028
   119  H    0.070302
   120  H    0.098497
   121  N   -0.478652
   122  C   -0.263182
   123  C    0.689069
   124  O   -0.521987
   125  C    0.110547
   126  O   -0.566206
   127  H    0.302771
   128  H    0.130389
   129  H    0.031704
   130  H    0.074122
   131  H    0.306240
   132  N   -0.463350
   133  C    0.205241
   134  C    0.576037
   135  O   -0.542687
   136  C   -0.370369
   137  H    0.260656
   138  H    0.041039
   139  H    0.113195
   140  H    0.098050
   141  H    0.113292
   142  N   -0.530416
   143  C    0.279676
   144  C    0.198639
   145  O   -0.479648
   146  C   -0.464328
   147  H    0.273346
   148  H    0.082962
   149  H    0.129670
   150  H    0.135045
   151  H    0.127412
   152  N    0.157868
   153  C   -0.602421
   154  C    0.713793
   155  O   -0.615899
   156  C    0.079471
   157  C    0.014803
   158  C    0.631452
   159  O   -0.702577
   160  O   -0.561999
   161  H    0.144848
   162  H    0.168200
   163  H    0.104119
   164  H   -0.032701
   165  H   -0.050832
   166  H    0.009580
   167  N   -0.175960
   168  C   -0.171834
   169  H    0.083360
   170  H    0.099399
   171  H    0.051365
   172  H    0.197341
   173  Ca   1.576265
   174  O   -0.690065
   175  H    0.389074
   176  H    0.369736
 Sum of ESP charges =   0.00000

 Normal termination of Gaussian 09 at Mon Sep 16 17:43:38 2019.
