 Gaussian 16, Revision A.03,
 Gaussian 16:  ES64L-G16RevA.03 25-Dec-2016

 ----------------------------------------------------------------------
 #b3lyp/svp scf=(tight,noincore) Test #IOP(5/87=12) Density=Current Pop
 =(MK,readradii) iop(6/33=2) iop(6/42=6)
 ----------------------------------------------------------------------

 ------------------
 holoCaM_loop3_40.0
 ------------------
 Symbolic Z-matrix:
 Charge =  0 Multiplicity = 1

                         Standard orientation:
 ---------------------------------------------------------------------
 Center     Atomic      Atomic             Coordinates (Angstroms)
 Number     Number       Type             X           Y           Z
 ---------------------------------------------------------------------
      1          6           0        2.445783    3.395391    4.983108
      2          6           0        1.912303    2.785129    3.691373
      3          8           0        2.689657    2.526095    2.770112
      4          1           0        3.370048    3.934419    4.774562
      5          1           0        1.707496    4.084807    5.391317
      6          1           0        2.642330    2.603372    5.705907
      7          7           0        0.591506    2.773948    3.531776
      8          6           0       -0.117321    2.507314    2.293644
      9          6           0       -0.222890    3.773793    1.467031
     10          8           0       -0.847324    4.765588    1.827065
     11          6           0       -1.430005    1.819910    2.654389
     12          6           0       -2.348357    1.409441    1.507418
     13          8           0       -3.575390    1.298602    1.750532
     14          8           0       -1.932587    1.526707    0.337853
     15          1           0       -0.016242    2.974131    4.325482
     16          1           0        0.517361    1.878111    1.678029
     17          1           0       -2.012814    2.543718    3.213796
     18          1           0       -1.208023    0.933804    3.257248
     19          7           0        0.487231    3.824740    0.332954
     20          6           0        0.909539    5.063016   -0.278136
     21          6           0       -0.131358    5.636695   -1.226779
     22          8           0       -0.122328    6.832072   -1.519340
     23          6           0        2.199265    4.808188   -1.053939
     24          6           0        3.392873    4.432725   -0.178709
     25          6           0        3.709629    5.534092    0.835813
     26          6           0        4.757326    5.006529    1.811420
     27          7           0        5.125317    5.966261    2.866123
     28          1           0        0.928350    2.998651   -0.045450
     29          1           0        1.116226    5.745683    0.545664
     30          1           0        2.395292    5.593424   -1.778837
     31          1           0        2.084967    3.940986   -1.715223
     32          1           0        4.260101    4.260311   -0.807191
     33          1           0        3.159031    3.519391    0.366854
     34          1           0        2.833385    5.638088    1.476033
     35          1           0        3.983004    6.440161    0.303831
     36          1           0        5.606522    4.697281    1.206415
     37          1           0        4.273153    4.170706    2.309795
     38          1           0        5.462457    6.843282    2.486424
     39          1           0        4.220092    6.293458    3.157858
     40          1           0        5.657171    5.568625    3.623498
     41          7           0       -1.005020    4.776887   -1.772255
     42          6           0       -2.220249    5.160224   -2.447808
     43          6           0       -3.452637    4.962638   -1.572834
     44          8           0       -4.534678    5.438142   -1.924093
     45          6           0       -2.318050    4.611927   -3.870097
     46          6           0       -2.123809    3.100301   -3.918664
     47          8           0       -2.161881    2.322727   -2.942586
     48          8           0       -1.887478    2.609796   -5.045630
     49          1           0       -0.821061    3.809612   -1.543917
     50          1           0       -2.162256    6.217810   -2.713607
     51          1           0       -1.576220    5.060036   -4.530616
     52          1           0       -3.316163    4.860910   -4.233384
     53          7           0       -3.259933    4.158513   -0.531658
     54          6           0       -4.250525    4.030309    0.516002
     55          6           0       -5.425838    3.138126    0.146477
     56          8           0       -6.503140    3.328786    0.711429
     57          1           0       -2.404295    3.633507   -0.387259
     58          1           0       -4.701226    5.007711    0.738160
     59          1           0       -3.791892    3.661384    1.435594
     60          7           0       -5.206119    2.129119   -0.701419
     61          6           0       -6.169258    1.146479   -1.162594
     62          6           0       -6.544088    0.094796   -0.126030
     63          8           0       -7.312431   -0.831457   -0.373021
     64          6           0       -5.628590    0.485560   -2.427175
     65          6           0       -4.604870   -0.597064   -2.098354
     66          7           0       -4.716390   -1.808494   -2.642596
     67          8           0       -3.675249   -0.316259   -1.340690
     68          1           0       -4.246672    1.955689   -0.958290
     69          1           0       -7.126917    1.640516   -1.335849
     70          1           0       -5.203335    1.196088   -3.130317
     71          1           0       -6.460819   -0.008109   -2.919500
     72          1           0       -5.518627   -1.979812   -3.226519
     73          1           0       -4.072570   -2.562645   -2.445989
     74          7           0       -5.989576    0.141201    1.090055
     75          6           0       -6.086148   -0.708727    2.263979
     76          6           0       -5.186871   -1.930539    2.350435
     77          8           0       -5.403909   -2.854413    3.128606
     78          1           0       -5.191390    0.765744    1.066713
     79          1           0       -7.108458   -0.987930    2.483815
     80          1           0       -5.795892   -0.079779    3.102952
     81          7           0       -4.139201   -1.929789    1.532334
     82          6           0       -3.109975   -2.946451    1.372362
     83          6           0       -1.742866   -2.299009    1.229426
     84          8           0       -1.475105   -1.469985    0.363329
     85          6           0       -3.403960   -3.866239    0.189880
     86          6           0       -4.675641   -4.680843    0.164440
     87          6           0       -5.381808   -4.741370   -1.037460
     88          6           0       -5.143373   -5.396120    1.275839
     89          6           0       -6.478993   -5.590865   -1.191871
     90          6           0       -6.318035   -6.151426    1.176433
     91          6           0       -7.003902   -6.225761   -0.047765
     92          8           0       -8.134086   -6.990516   -0.082887
     93          1           0       -4.118662   -1.026301    1.072239
     94          1           0       -3.146305   -3.623436    2.220461
     95          1           0       -2.682013   -4.682787    0.236146
     96          1           0       -3.328598   -3.354181   -0.771690
     97          1           0       -4.910781   -4.270307   -1.891470
     98          1           0       -4.648215   -5.365217    2.236705
     99          1           0       -6.769467   -5.821636   -2.214843
    100          1           0       -6.767576   -6.562139    2.066448
    101          1           0       -8.401891   -7.352996    0.767811
    102          7           0       -0.767661   -2.808149    1.984113
    103          6           0        0.627744   -2.405488    1.892957
    104          6           0        1.162075   -3.526126    1.019424
    105          8           0        0.812574   -4.699253    1.077924
    106          6           0        1.265945   -2.171492    3.252937
    107          6           0        0.483281   -1.239426    4.174126
    108          6           0        2.711407   -1.691025    3.168138
    109          6           0        0.940196   -1.367904    5.624926
    110          1           0       -1.013552   -3.618759    2.531333
    111          1           0        0.688504   -1.445969    1.389934
    112          1           0        1.264215   -3.163090    3.699512
    113          1           0       -0.594981   -1.437674    4.158344
    114          1           0        0.687332   -0.197326    3.938774
    115          1           0        3.232017   -2.395275    2.513083
    116          1           0        2.721904   -0.657298    2.829026
    117          1           0        3.257727   -1.717965    4.103772
    118          1           0        0.943050   -2.440772    5.771711
    119          1           0        1.904109   -0.862095    5.718363
    120          1           0        0.194133   -0.869735    6.251678
    121          7           0        2.014274   -3.057859    0.092611
    122          6           0        2.778604   -3.980104   -0.725780
    123          6           0        4.264694   -3.831064   -0.487615
    124          8           0        4.665077   -2.914647    0.228747
    125          6           0        2.425187   -3.541907   -2.157555
    126          8           0        2.813443   -2.256185   -2.577885
    127          1           0        2.135686   -2.060969    0.007349
    128          1           0        2.463081   -5.011799   -0.557998
    129          1           0        1.345726   -3.609864   -2.232692
    130          1           0        2.862606   -4.276085   -2.829453
    131          1           0        2.276104   -1.625187   -2.090024
    132          7           0        5.074093   -4.746535   -1.035964
    133          6           0        6.515740   -4.703343   -0.835497
    134          6           0        7.204919   -3.480045   -1.414095
    135          8           0        8.156948   -2.991660   -0.809429
    136          6           0        7.062840   -6.020419   -1.387394
    137          1           0        4.668596   -5.477249   -1.593933
    138          1           0        6.727617   -4.829932    0.225109
    139          1           0        8.134488   -6.004369   -1.228924
    140          1           0        6.500272   -6.867570   -0.998225
    141          1           0        6.936384   -6.046048   -2.468806
    142          7           0        6.656533   -2.956429   -2.497745
    143          6           0        7.057108   -1.657991   -3.013398
    144          6           0        6.776220   -0.576197   -1.992700
    145          8           0        7.674348    0.240677   -1.806471
    146          6           0        6.371482   -1.354791   -4.345609
    147          1           0        6.043294   -3.552085   -3.041466
    148          1           0        8.127614   -1.642882   -3.227617
    149          1           0        5.292858   -1.527038   -4.346429
    150          1           0        6.606337   -0.330580   -4.636015
    151          1           0        6.833600   -1.942881   -5.143793
    152          7           0        5.650919   -0.608772   -1.274901
    153          6           0        5.296253    0.370214   -0.271159
    154          6           0        6.071796    0.226851    1.039444
    155          8           0        6.353565    1.222709    1.701769
    156          6           0        3.797886    0.491847    0.002521
    157          6           0        3.034821    0.920740   -1.235858
    158          6           0        1.544217    0.622378   -1.121061
    159          8           0        0.754972    1.586539   -1.091290
    160          8           0        1.187860   -0.570721   -1.141644
    161          1           0        4.953739   -1.313222   -1.477861
    162          1           0        5.487394    1.383376   -0.616945
    163          1           0        3.656823    1.187223    0.829233
    164          1           0        3.537077   -0.522018    0.307738
    165          1           0        3.530382    0.431716   -2.078399
    166          1           0        3.182915    2.002083   -1.353613
    167          7           0        6.357518   -1.029341    1.391358
    168          6           0        7.020434   -1.498552    2.590434
    169          1           0        6.982157   -0.721469    3.353838
    170          1           0        6.517198   -2.393303    2.958156
    171          1           0        8.060268   -1.733407    2.362718
    172          1           0        5.887570   -1.647502    0.749855
    173         20           0       -1.234103    0.227729   -1.926165
    174          8           0       -1.608208   -2.193032   -2.794706
    175          1           0       -1.384829   -3.115282   -2.657026
    176          1           0       -1.588507   -2.081987   -3.742483
 ---------------------------------------------------------------------

 SCF Done:  E(RB3LYP) =  -5333.57760665     A.U. after   18 cycles

 The electronic state is 1-A.
 Alpha  occ. eigenvalues -- -145.39285 -19.22615 -19.16054 -19.14946 -19.14933
 Alpha  occ. eigenvalues --  -19.13285 -19.12971 -19.12023 -19.11977 -19.11591
 Alpha  occ. eigenvalues --  -19.11316 -19.11196 -19.09200 -19.08692 -19.07940
 Alpha  occ. eigenvalues --  -19.06193 -19.06075 -19.04859 -19.04812 -19.04343
 Alpha  occ. eigenvalues --  -19.04292 -19.03780 -19.03417 -19.00333 -15.45062
 Alpha  occ. eigenvalues --  -14.56625 -14.40555 -14.38265 -14.38076 -14.37169
 Alpha  occ. eigenvalues --  -14.36829 -14.36674 -14.35973 -14.33081 -14.33025
 Alpha  occ. eigenvalues --  -14.32333 -14.31498 -14.29912 -14.29867 -14.29566
 Alpha  occ. eigenvalues --  -12.58678 -12.58638 -12.58607 -10.32988 -10.31834
 Alpha  occ. eigenvalues --  -10.31344 -10.31115 -10.30339 -10.30321 -10.30021
 Alpha  occ. eigenvalues --  -10.29735 -10.28191 -10.27227 -10.27075 -10.26547
 Alpha  occ. eigenvalues --  -10.26482 -10.26387 -10.25436 -10.25084 -10.24953
 Alpha  occ. eigenvalues --  -10.24609 -10.24347 -10.24339 -10.24110 -10.23735
 Alpha  occ. eigenvalues --  -10.23725 -10.23651 -10.22998 -10.22816 -10.22788
 Alpha  occ. eigenvalues --  -10.22632 -10.22431 -10.22325 -10.22218 -10.21563
 Alpha  occ. eigenvalues --  -10.21484 -10.21014 -10.20827 -10.20665 -10.20189
 Alpha  occ. eigenvalues --  -10.20021 -10.19987 -10.19550 -10.19214 -10.19133
 Alpha  occ. eigenvalues --  -10.19058 -10.18893 -10.18729 -10.18581 -10.18359
 Alpha  occ. eigenvalues --  -10.18223 -10.18130 -10.17980 -10.17826 -10.17584
 Alpha  occ. eigenvalues --  -10.16776 -10.14166  -1.81956  -1.12022  -1.10173
 Alpha  occ. eigenvalues --   -1.09697  -1.09258  -1.08178  -1.08052  -1.07243
 Alpha  occ. eigenvalues --   -1.05665  -1.05339  -1.04767  -1.04426  -1.04251
 Alpha  occ. eigenvalues --   -1.03867  -1.03486  -1.02395  -1.02006  -1.00459
 Alpha  occ. eigenvalues --   -0.99410  -0.99146  -0.99110  -0.98145  -0.98042
 Alpha  occ. eigenvalues --   -0.97544  -0.97417  -0.96927  -0.96029  -0.94749
 Alpha  occ. eigenvalues --   -0.94603  -0.94224  -0.93566  -0.92740  -0.91942
 Alpha  occ. eigenvalues --   -0.91382  -0.89925  -0.89773  -0.88994  -0.88660
 Alpha  occ. eigenvalues --   -0.87787  -0.86805  -0.86325  -0.86120  -0.85758
 Alpha  occ. eigenvalues --   -0.84245  -0.83435  -0.82562  -0.81064  -0.80385
 Alpha  occ. eigenvalues --   -0.79434  -0.79271  -0.78709  -0.78278  -0.76457
 Alpha  occ. eigenvalues --   -0.75640  -0.75455  -0.74459  -0.73650  -0.73638
 Alpha  occ. eigenvalues --   -0.73508  -0.73271  -0.72135  -0.71335  -0.69853
 Alpha  occ. eigenvalues --   -0.69790  -0.69547  -0.69305  -0.68301  -0.68183
 Alpha  occ. eigenvalues --   -0.68035  -0.66497  -0.65968  -0.65609  -0.65220
 Alpha  occ. eigenvalues --   -0.64823  -0.63281  -0.62721  -0.62515  -0.61907
 Alpha  occ. eigenvalues --   -0.61767  -0.61702  -0.61306  -0.61221  -0.60355
 Alpha  occ. eigenvalues --   -0.60244  -0.60193  -0.60063  -0.59016  -0.58695
 Alpha  occ. eigenvalues --   -0.58537  -0.58446  -0.58298  -0.56616  -0.56270
 Alpha  occ. eigenvalues --   -0.55999  -0.55880  -0.55716  -0.55204  -0.55170
 Alpha  occ. eigenvalues --   -0.55081  -0.54900  -0.54310  -0.54247  -0.54129
 Alpha  occ. eigenvalues --   -0.53544  -0.53413  -0.53056  -0.52710  -0.52264
 Alpha  occ. eigenvalues --   -0.51960  -0.51512  -0.50998  -0.50915  -0.50621
 Alpha  occ. eigenvalues --   -0.50321  -0.49985  -0.49622  -0.49454  -0.49375
 Alpha  occ. eigenvalues --   -0.49082  -0.48743  -0.48684  -0.48625  -0.48553
 Alpha  occ. eigenvalues --   -0.48226  -0.48163  -0.48058  -0.47699  -0.47387
 Alpha  occ. eigenvalues --   -0.47136  -0.47066  -0.47021  -0.46742  -0.46580
 Alpha  occ. eigenvalues --   -0.46246  -0.46107  -0.45856  -0.45581  -0.45330
 Alpha  occ. eigenvalues --   -0.45235  -0.44968  -0.44816  -0.44806  -0.44693
 Alpha  occ. eigenvalues --   -0.44276  -0.44258  -0.44005  -0.43897  -0.43798
 Alpha  occ. eigenvalues --   -0.43541  -0.43462  -0.43393  -0.43305  -0.43162
 Alpha  occ. eigenvalues --   -0.43047  -0.42814  -0.42742  -0.42628  -0.42148
 Alpha  occ. eigenvalues --   -0.42116  -0.42027  -0.41771  -0.41729  -0.41498
 Alpha  occ. eigenvalues --   -0.41325  -0.41262  -0.41144  -0.40784  -0.40633
 Alpha  occ. eigenvalues --   -0.40525  -0.40368  -0.40303  -0.40194  -0.40091
 Alpha  occ. eigenvalues --   -0.39871  -0.39774  -0.39557  -0.39508  -0.39417
 Alpha  occ. eigenvalues --   -0.39285  -0.39140  -0.39080  -0.39050  -0.38897
 Alpha  occ. eigenvalues --   -0.38496  -0.38361  -0.38020  -0.37924  -0.37830
 Alpha  occ. eigenvalues --   -0.37669  -0.37654  -0.37485  -0.37396  -0.37040
 Alpha  occ. eigenvalues --   -0.36948  -0.36860  -0.36693  -0.36576  -0.36418
 Alpha  occ. eigenvalues --   -0.36081  -0.35913  -0.35726  -0.35614  -0.35472
 Alpha  occ. eigenvalues --   -0.35311  -0.35146  -0.34736  -0.34511  -0.34250
 Alpha  occ. eigenvalues --   -0.33938  -0.33932  -0.33868  -0.33531  -0.33175
 Alpha  occ. eigenvalues --   -0.33056  -0.32910  -0.32885  -0.32299  -0.32229
 Alpha  occ. eigenvalues --   -0.32016  -0.31847  -0.31679  -0.30926  -0.30686
 Alpha  occ. eigenvalues --   -0.30348  -0.29979  -0.29931  -0.29686  -0.29636
 Alpha  occ. eigenvalues --   -0.29050  -0.28864  -0.28781  -0.28394  -0.27890
 Alpha  occ. eigenvalues --   -0.27583  -0.27293  -0.26948  -0.26888  -0.26386
 Alpha  occ. eigenvalues --   -0.26030  -0.24991  -0.24742  -0.24355  -0.24159
 Alpha  occ. eigenvalues --   -0.24106  -0.23896  -0.23372  -0.23309  -0.23172
 Alpha  occ. eigenvalues --   -0.22464  -0.22125  -0.21679  -0.21541  -0.21383
 Alpha  occ. eigenvalues --   -0.20973  -0.20063  -0.19889  -0.19732  -0.19272
 Alpha  occ. eigenvalues --   -0.19139  -0.18283  -0.16290
 Alpha virt. eigenvalues --   -0.09159  -0.05186  -0.03189  -0.03049  -0.02629
 Alpha virt. eigenvalues --   -0.01517  -0.00989  -0.00966  -0.00853  -0.00414
 Alpha virt. eigenvalues --    0.00165   0.00491   0.00697   0.01160   0.01349

 Mulliken charges:
               1
     1  C    0.060250
     2  C    0.048270
     3  O   -0.299081
     4  H   -0.029360
     5  H    0.028422
     6  H    0.055885
     7  N   -0.124905
     8  C    0.144494
     9  C    0.054665
    10  O   -0.276898
    11  C    0.053896
    12  C    0.160248
    13  O   -0.394773
    14  O   -0.437959
    15  H    0.130106
    16  H   -0.015985
    17  H    0.015752
    18  H    0.005860
    19  N   -0.166559
    20  C    0.098238
    21  C    0.077958
    22  O   -0.289165
    23  C    0.039808
    24  C   -0.005426
    25  C   -0.052663
    26  C   -0.003313
    27  N    0.096723
    28  H    0.161466
    29  H   -0.007032
    30  H    0.014414
    31  H    0.008331
    32  H    0.022278
    33  H    0.033024
    34  H    0.024272
    35  H    0.029685
    36  H    0.079964
    37  H    0.090452
    38  H    0.182287
    39  H    0.171020
    40  H    0.206950
    41  N   -0.151519
    42  C    0.116390
    43  C    0.091064
    44  O   -0.283819
    45  C    0.075572
    46  C    0.084655
    47  O   -0.483979
    48  O   -0.375766
    49  H    0.134328
    50  H    0.015188
    51  H    0.008191
    52  H    0.027915
    53  N   -0.174143
    54  C    0.222877
    55  C    0.034476
    56  O   -0.295247
    57  H    0.150407
    58  H    0.012638
    59  H    0.036060
    60  N   -0.161525
    61  C    0.142402
    62  C    0.001727
    63  O   -0.296172
    64  C    0.118355
    65  C    0.019798
    66  N   -0.014500
    67  O   -0.357574
    68  H    0.144120
    69  H    0.036645
    70  H    0.068892
    71  H   -0.006144
    72  H    0.136104
    73  H    0.120700
    74  N   -0.164510
    75  C    0.245657
    76  C   -0.000373
    77  O   -0.302551
    78  H    0.173061
    79  H    0.025107
    80  H    0.028384
    81  N   -0.150001
    82  C    0.168308
    83  C    0.114698
    84  O   -0.322165
    85  C    0.164332
    86  C   -0.018251
    87  C    0.018168
    88  C    0.026877
    89  C   -0.034443
    90  C   -0.051220
    91  C    0.192904
    92  O   -0.208816
    93  H    0.153063
    94  H   -0.014897
    95  H    0.000672
    96  H   -0.066082
    97  H   -0.102951
    98  H   -0.025037
    99  H   -0.025773
   100  H   -0.036921
   101  H    0.176166
   102  N   -0.129980
   103  C    0.113562
   104  C    0.094989
   105  O   -0.279889
   106  C   -0.049397
   107  C   -0.020302
   108  C    0.032285
   109  C    0.030024
   110  H    0.126902
   111  H    0.022449
   112  H   -0.029280
   113  H    0.015987
   114  H    0.003320
   115  H    0.019090
   116  H    0.023842
   117  H    0.006003
   118  H    0.007947
   119  H    0.009968
   120  H    0.012454
   121  N   -0.156116
   122  C    0.051656
   123  C    0.123326
   124  O   -0.281494
   125  C    0.271319
   126  O   -0.332835
   127  H    0.152170
   128  H    0.032689
   129  H   -0.024998
   130  H   -0.026151
   131  H    0.175010
   132  N   -0.128694
   133  C    0.075738
   134  C    0.070464
   135  O   -0.249772
   136  C    0.032932
   137  H    0.119304
   138  H    0.026603
   139  H    0.046105
   140  H    0.032727
   141  H   -0.006790
   142  N   -0.125497
   143  C    0.120776
   144  C    0.053492
   145  O   -0.259234
   146  C    0.018189
   147  H    0.110075
   148  H    0.017977
   149  H    0.027159
   150  H    0.032468
   151  H    0.016517
   152  N   -0.147836
   153  C    0.105259
   154  C    0.054604
   155  O   -0.311247
   156  C   -0.056021
   157  C    0.087553
   158  C    0.176922
   159  O   -0.404779
   160  O   -0.438185
   161  H    0.121194
   162  H   -0.021746
   163  H    0.058744
   164  H   -0.010524
   165  H    0.009440
   166  H   -0.018363
   167  N   -0.147542
   168  C    0.145933
   169  H    0.017605
   170  H    0.010392
   171  H    0.033535
   172  H    0.137833
   173  Ca   1.304472
   174  O   -0.275141
   175  H    0.202782
   176  H    0.186911
 Sum of Mulliken charges =  -0.00000

 Dipole moment (field-independent basis, Debye):
    X=             28.2725    Y=             -7.1198    Z=              7.6120  Tot=             30.1325
 Quadrupole moment (field-independent basis, Debye-Ang):
   XX=           -652.8544   YY=           -482.0499   ZZ=           -511.3354
   XY=            123.6599   XZ=             41.8071   YZ=            123.7374

 ESP charges:
               1
     1  C   -0.513129
     2  C    0.903069
     3  O   -0.639966
     4  H    0.122680
     5  H    0.119668
     6  H    0.143053
     7  N   -0.747770
     8  C    0.311394
     9  C    0.396664
    10  O   -0.520597
    11  C   -0.344895
    12  C    0.939579
    13  O   -0.742963
    14  O   -0.897121
    15  H    0.365060
    16  H    0.014907
    17  H    0.106642
    18  H    0.030369
    19  N    0.030296
    20  C   -0.237750
    21  C    0.647256
    22  O   -0.579265
    23  C   -0.022315
    24  C    0.072890
    25  C   -0.274085
    26  C    0.294829
    27  N   -0.523815
    28  H    0.171855
    29  H    0.075986
    30  H    0.066449
    31  H    0.004266
    32  H    0.033283
    33  H   -0.012360
    34  H    0.092038
    35  H    0.082309
    36  H    0.047893
    37  H   -0.010017
    38  H    0.354676
    39  H    0.322930
    40  H    0.387161
    41  N   -0.564464
    42  C    0.382382
    43  C    0.183539
    44  O   -0.512497
    45  C   -0.364498
    46  C    0.899360
    47  O   -0.933796
    48  O   -0.728398
    49  H    0.324430
    50  H    0.043864
    51  H    0.091653
    52  H    0.107517
    53  N    0.409470
    54  C   -0.415097
    55  C    0.688746
    56  O   -0.594510
    57  H   -0.377693
    58  H    0.125608
    59  H    0.203023
    60  N   -0.504228
    61  C    0.058885
    62  C    0.379542
    63  O   -0.521626
    64  C   -0.318740
    65  C    0.416563
    66  N   -0.735211
    67  O   -0.242284
    68  H    0.353435
    69  H    0.126686
    70  H    0.170870
    71  H    0.092430
    72  H    0.384884
    73  H    0.369076
    74  N   -0.139557
    75  C   -0.289266
    76  C    0.633038
    77  O   -0.584103
    78  H    0.264335
    79  H    0.145620
    80  H    0.115421
    81  N   -0.380116
    82  C    0.166874
    83  C    0.461215
    84  O   -0.519458
    85  C    0.327836
    86  C   -0.258025
    87  C    0.065678
    88  C    0.096325
    89  C   -0.391428
    90  C   -0.521425
    91  C    0.568419
    92  O   -0.592690
    93  H    0.164740
    94  H   -0.003937
    95  H   -0.065092
    96  H   -0.114250
    97  H    0.036665
    98  H    0.106041
    99  H    0.166531
   100  H    0.195593
   101  H    0.414141
   102  N   -0.559760
   103  C   -0.080152
   104  C    0.600328
   105  O   -0.548756
   106  C    0.005325
   107  C    0.427740
   108  C   -0.231074
   109  C   -0.438909
   110  H    0.324115
   111  H    0.157830
   112  H    0.021500
   113  H   -0.050643
   114  H   -0.065021
   115  H    0.059211
   116  H    0.030668
   117  H    0.074681
   118  H    0.081179
   119  H    0.093026
   120  H    0.096890
   121  N   -0.253404
   122  C   -0.081348
   123  C    0.418773
   124  O   -0.357986
   125  C    0.211630
   126  O   -0.539835
   127  H    0.193557
   128  H    0.086475
   129  H   -0.009161
   130  H    0.000064
   131  H    0.330964
   132  N   -0.384621
   133  C    0.064536
   134  C    0.586428
   135  O   -0.529115
   136  C   -0.328932
   137  H    0.290522
   138  H    0.097045
   139  H    0.121670
   140  H    0.110719
   141  H    0.066376
   142  N   -0.553673
   143  C    0.294375
   144  C    0.192443
   145  O   -0.481593
   146  C   -0.354365
   147  H    0.310661
   148  H    0.062027
   149  H    0.085248
   150  H    0.119537
   151  H    0.089821
   152  N    0.299545
   153  C   -0.609351
   154  C    0.653771
   155  O   -0.620837
   156  C    0.159034
   157  C   -0.154188
   158  C    0.669641
   159  O   -0.650760
   160  O   -0.666586
   161  H    0.041761
   162  H    0.169105
   163  H    0.097679
   164  H   -0.085586
   165  H    0.016570
   166  H    0.055395
   167  N   -0.072249
   168  C   -0.221420
   169  H    0.092972
   170  H    0.084225
   171  H    0.096162
   172  H    0.035875
   173  Ca   1.611329
   174  O   -0.872990
   175  H    0.452214
   176  H    0.422470
 Sum of ESP charges =  -0.00000

 Normal termination of Gaussian 16 at Wed Sep 18 18:32:07 2019.
