 Gaussian 16, Revision A.03,
 Gaussian 16:  ES64L-G16RevA.03 25-Dec-2016

 ----------------------------------------------------------------------
 #b3lyp/svp scf=(tight,noincore) Test #IOP(5/87=12) Density=Current Pop
 =(MK,readradii) iop(6/33=2) iop(6/42=6)
 ----------------------------------------------------------------------

 ------------------
 holoCaM_loop3_60.0
 ------------------
 Symbolic Z-matrix:
 Charge =  0 Multiplicity = 1

                         Standard orientation:
 ---------------------------------------------------------------------
 Center     Atomic      Atomic             Coordinates (Angstroms)
 Number     Number       Type             X           Y           Z
 ---------------------------------------------------------------------
      1          6           0        1.951474    2.321883    5.834924
      2          6           0        1.574204    2.331275    4.363299
      3          8           0        2.304118    1.795114    3.531219
      4          1           0        1.791823    1.324218    6.243283
      5          1           0        3.001720    2.594915    5.943062
      6          1           0        1.332113    3.038790    6.374130
      7          7           0        0.387837    2.836940    4.015540
      8          6           0       -0.152622    2.893202    2.675340
      9          6           0        0.020607    4.236581    1.994366
     10          8           0       -0.396179    5.257400    2.541739
     11          6           0       -1.602323    2.402175    2.794335
     12          6           0       -2.250723    2.327629    1.416213
     13          8           0       -2.222214    1.258190    0.778415
     14          8           0       -2.876855    3.293510    0.947882
     15          1           0       -0.148751    3.299024    4.737449
     16          1           0        0.437137    2.170224    2.108695
     17          1           0       -2.162801    3.098369    3.412217
     18          1           0       -1.679880    1.405566    3.233034
     19          7           0        0.394369    4.125034    0.719274
     20          6           0        0.720098    5.294170   -0.071625
     21          6           0       -0.011944    5.531396   -1.393155
     22          8           0        0.169071    6.542183   -2.059220
     23          6           0        2.234093    5.246689   -0.251244
     24          6           0        3.126323    5.280412    0.987663
     25          6           0        4.574663    5.027497    0.572278
     26          6           0        5.634618    5.222096    1.656956
     27          7           0        6.994971    5.287208    1.091181
     28          1           0        0.565089    3.175154    0.414014
     29          1           0        0.538140    6.162562    0.554623
     30          1           0        2.606351    6.011752   -0.938414
     31          1           0        2.455662    4.342304   -0.829166
     32          1           0        2.805073    4.447511    1.623882
     33          1           0        3.009507    6.278469    1.400502
     34          1           0        4.728957    5.667333   -0.286094
     35          1           0        4.658045    4.056877    0.091399
     36          1           0        5.558573    4.371199    2.327098
     37          1           0        5.407480    6.049099    2.322519
     38          1           0        7.053717    4.821790    0.195617
     39          1           0        7.046940    6.246644    0.782342
     40          1           0        7.774175    5.106911    1.712900
     41          7           0       -0.938915    4.626549   -1.717001
     42          6           0       -1.623200    4.631772   -2.993883
     43          6           0       -3.136025    4.671770   -2.820796
     44          8           0       -3.912509    4.957074   -3.730726
     45          6           0       -1.213351    3.458222   -3.872806
     46          6           0       -1.342593    2.091893   -3.203595
     47          8           0       -0.280450    1.486883   -2.948025
     48          8           0       -2.453775    1.653177   -2.838900
     49          1           0       -1.033899    3.829137   -1.111516
     50          1           0       -1.307486    5.495021   -3.573991
     51          1           0       -0.171073    3.615769   -4.142128
     52          1           0       -1.814628    3.306744   -4.771594
     53          7           0       -3.643555    4.477299   -1.601905
     54          6           0       -5.006834    4.584910   -1.112015
     55          6           0       -5.856820    3.330156   -1.051885
     56          8           0       -6.987351    3.421730   -0.578479
     57          1           0       -2.978884    4.255088   -0.876141
     58          1           0       -5.464601    5.336991   -1.749294
     59          1           0       -4.939083    4.919250   -0.074264
     60          7           0       -5.401546    2.116428   -1.402014
     61          6           0       -6.163116    0.895690   -1.273142
     62          6           0       -6.098879    0.239931    0.101942
     63          8           0       -6.820226   -0.706272    0.398183
     64          6           0       -5.936594   -0.022237   -2.477716
     65          6           0       -4.735311   -0.942749   -2.310453
     66          7           0       -4.600047   -1.998241   -3.128830
     67          8           0       -3.869115   -0.806508   -1.453924
     68          1           0       -4.514058    2.157832   -1.887555
     69          1           0       -7.185830    1.198181   -1.496650
     70          1           0       -5.849414    0.586957   -3.374255
     71          1           0       -6.744132   -0.760445   -2.527031
     72          1           0       -5.251421   -2.210789   -3.874776
     73          1           0       -3.778194   -2.565574   -3.020711
     74          7           0       -5.103497    0.638839    0.895091
     75          6           0       -4.860132    0.200544    2.252210
     76          6           0       -3.969234   -1.027799    2.394947
     77          8           0       -3.266433   -1.183032    3.387657
     78          1           0       -4.425792    1.312194    0.551421
     79          1           0       -5.781176    0.188035    2.836438
     80          1           0       -4.160957    0.940802    2.631909
     81          7           0       -3.946603   -1.912046    1.390858
     82          6           0       -3.233382   -3.172087    1.415585
     83          6           0       -1.768393   -2.923416    1.086995
     84          8           0       -1.577790   -2.407773   -0.005380
     85          6           0       -3.847675   -4.157090    0.428107
     86          6           0       -5.336478   -4.316749    0.527984
     87          6           0       -5.911993   -4.957467   -0.586630
     88          6           0       -6.096998   -4.160633    1.698042
     89          6           0       -7.242457   -5.364685   -0.618826
     90          6           0       -7.444814   -4.513753    1.707946
     91          6           0       -8.002616   -5.071988    0.532645
     92          8           0       -9.355067   -5.251542    0.526633
     93          1           0       -4.560255   -1.721763    0.603632
     94          1           0       -3.377927   -3.574943    2.417640
     95          1           0       -3.392807   -5.113618    0.671314
     96          1           0       -3.568522   -3.881017   -0.588336
     97          1           0       -5.270142   -5.030503   -1.444414
     98          1           0       -5.694931   -3.697364    2.586763
     99          1           0       -7.635375   -5.865592   -1.493416
    100          1           0       -8.008084   -4.534495    2.625985
    101          1           0       -9.777932   -4.911518    1.316867
    102          7           0       -0.886479   -3.293563    2.021136
    103          6           0        0.521099   -2.982194    1.840103
    104          6           0        1.049328   -3.763475    0.655547
    105          8           0        0.622275   -4.913408    0.579518
    106          6           0        1.329144   -3.039805    3.137926
    107          6           0        0.478456   -2.355995    4.207941
    108          6           0        2.766805   -2.538724    3.081811
    109          6           0        0.102556   -0.888376    4.036497
    110          1           0       -1.287354   -3.938230    2.672445
    111          1           0        0.586088   -1.946259    1.507213
    112          1           0        1.392517   -4.101389    3.354775
    113          1           0        1.087867   -2.436438    5.113561
    114          1           0       -0.426415   -2.900020    4.469945
    115          1           0        3.300877   -2.705170    4.026513
    116          1           0        3.281110   -3.090733    2.290498
    117          1           0        2.830829   -1.465000    2.935122
    118          1           0        0.974422   -0.272908    3.809233
    119          1           0       -0.750962   -0.563889    3.450651
    120          1           0       -0.242401   -0.375184    4.933235
    121          7           0        1.898656   -3.192275   -0.198721
    122          6           0        2.545775   -3.901987   -1.290850
    123          6           0        4.051189   -4.052977   -1.139089
    124          8           0        4.564471   -3.530951   -0.144639
    125          6           0        2.177301   -3.273877   -2.627527
    126          8           0        2.583434   -1.918915   -2.621680
    127          1           0        2.038260   -2.202547   -0.051926
    128          1           0        2.172019   -4.917803   -1.327227
    129          1           0        1.103058   -3.234832   -2.818781
    130          1           0        2.679779   -3.838045   -3.422341
    131          1           0        2.041128   -1.384971   -2.044352
    132          7           0        4.724193   -4.715964   -2.081062
    133          6           0        6.163899   -4.855472   -2.061402
    134          6           0        6.903418   -3.534098   -1.865488
    135          8           0        7.833643   -3.389197   -1.083960
    136          6           0        6.633611   -5.439544   -3.390473
    137          1           0        4.216238   -5.157693   -2.829699
    138          1           0        6.434621   -5.526877   -1.243830
    139          1           0        6.020231   -6.324072   -3.558924
    140          1           0        6.424038   -4.751153   -4.216545
    141          1           0        7.700612   -5.588350   -3.564732
    142          7           0        6.503053   -2.484157   -2.588698
    143          6           0        6.957878   -1.110251   -2.641760
    144          6           0        6.660732   -0.200522   -1.455760
    145          8           0        7.368189    0.774647   -1.205861
    146          6           0        6.374111   -0.505048   -3.914217
    147          1           0        5.890356   -2.675610   -3.367188
    148          1           0        8.026885   -0.942311   -2.780401
    149          1           0        6.930098   -0.957313   -4.735761
    150          1           0        5.319898   -0.778340   -3.973773
    151          1           0        6.439305    0.561195   -4.067437
    152          7           0        5.670853   -0.586777   -0.654792
    153          6           0        5.322212    0.167235    0.531933
    154          6           0        5.800504   -0.496764    1.822220
    155          8           0        6.179425    0.237560    2.733146
    156          6           0        3.805245    0.243797    0.677707
    157          6           0        3.127249    1.048554   -0.426824
    158          6           0        1.642663    0.707234   -0.424321
    159          8           0        0.714419    1.485632   -0.134907
    160          8           0        1.268564   -0.461775   -0.698673
    161          1           0        5.064775   -1.322946   -0.991875
    162          1           0        5.597559    1.223007    0.504912
    163          1           0        3.590014    0.718256    1.642053
    164          1           0        3.317519   -0.735477    0.670916
    165          1           0        3.508644    0.894610   -1.437635
    166          1           0        3.168873    2.122242   -0.240649
    167          7           0        5.900995   -1.826605    1.817122
    168          6           0        6.446902   -2.649486    2.888127
    169          1           0        5.833845   -3.543123    3.007292
    170          1           0        7.467479   -2.939787    2.639498
    171          1           0        6.446833   -2.082705    3.818955
    172          1           0        5.584352   -2.298597    0.984320
    173         20           0       -1.295136   -0.024016   -1.184790
    174          8           0       -0.723566   -1.475891   -3.185756
    175          1           0       -0.392704   -1.374351   -4.084878
    176          1           0       -1.278551   -2.248133   -3.227393
 ---------------------------------------------------------------------

 SCF Done:  E(RB3LYP) =  -5333.62858022     A.U. after   15 cycles

 The electronic state is 1-A.
 Alpha  occ. eigenvalues -- -145.34151 -19.18610 -19.14783 -19.13311 -19.12121
 Alpha  occ. eigenvalues --  -19.11721 -19.11683 -19.10759 -19.09725 -19.08508
 Alpha  occ. eigenvalues --  -19.08391 -19.07935 -19.07869 -19.07308 -19.07284
 Alpha  occ. eigenvalues --  -19.07056 -19.07027 -19.06401 -19.05244 -19.04453
 Alpha  occ. eigenvalues --  -19.04385 -19.03941 -19.03751 -19.02573 -15.39936
 Alpha  occ. eigenvalues --  -14.57602 -14.39805 -14.37307 -14.37154 -14.36059
 Alpha  occ. eigenvalues --  -14.35435 -14.34872 -14.33896 -14.33007 -14.32892
 Alpha  occ. eigenvalues --  -14.32619 -14.32360 -14.31173 -14.30943 -14.29267
 Alpha  occ. eigenvalues --  -12.53534 -12.53517 -12.53497 -10.33549 -10.31715
 Alpha  occ. eigenvalues --  -10.30540 -10.30048 -10.28931 -10.28327 -10.27356
 Alpha  occ. eigenvalues --  -10.27112 -10.27061 -10.26746 -10.26262 -10.26092
 Alpha  occ. eigenvalues --  -10.26007 -10.25576 -10.25295 -10.25134 -10.25083
 Alpha  occ. eigenvalues --  -10.24587 -10.24455 -10.24291 -10.23762 -10.23543
 Alpha  occ. eigenvalues --  -10.23083 -10.22837 -10.22805 -10.22378 -10.22172
 Alpha  occ. eigenvalues --  -10.22143 -10.22086 -10.21794 -10.21075 -10.20577
 Alpha  occ. eigenvalues --  -10.20550 -10.20354 -10.20114 -10.19967 -10.19709
 Alpha  occ. eigenvalues --  -10.19634 -10.18838 -10.18756 -10.18701 -10.18559
 Alpha  occ. eigenvalues --  -10.18383 -10.18230 -10.18177 -10.18165 -10.18123
 Alpha  occ. eigenvalues --  -10.18005 -10.17806 -10.16780 -10.16692 -10.15261
 Alpha  occ. eigenvalues --  -10.15080 -10.14399  -1.76965  -1.12789  -1.06309
 Alpha  occ. eigenvalues --   -1.05538  -1.05267  -1.04989  -1.04668  -1.04150
 Alpha  occ. eigenvalues --   -1.04094  -1.03669  -1.03588  -1.03161  -1.02668
 Alpha  occ. eigenvalues --   -1.01686  -1.01139  -1.00704  -1.00673  -1.00244
 Alpha  occ. eigenvalues --   -1.00017  -0.99728  -0.99569  -0.99390  -0.98571
 Alpha  occ. eigenvalues --   -0.97973  -0.96987  -0.96674  -0.94042  -0.93239
 Alpha  occ. eigenvalues --   -0.92358  -0.92215  -0.91495  -0.91443  -0.90861
 Alpha  occ. eigenvalues --   -0.90358  -0.89978  -0.89612  -0.89506  -0.89245
 Alpha  occ. eigenvalues --   -0.88726  -0.87879  -0.87191  -0.87175  -0.85632
 Alpha  occ. eigenvalues --   -0.83896  -0.82292  -0.80756  -0.80508  -0.79779
 Alpha  occ. eigenvalues --   -0.78276  -0.77758  -0.77240  -0.76981  -0.76759
 Alpha  occ. eigenvalues --   -0.75110  -0.74213  -0.73714  -0.73158  -0.72828
 Alpha  occ. eigenvalues --   -0.72644  -0.71673  -0.71134  -0.70541  -0.70307
 Alpha  occ. eigenvalues --   -0.69472  -0.69201  -0.68884  -0.68582  -0.67279
 Alpha  occ. eigenvalues --   -0.66844  -0.65956  -0.65857  -0.64495  -0.63837
 Alpha  occ. eigenvalues --   -0.63691  -0.63011  -0.62480  -0.62002  -0.61977
 Alpha  occ. eigenvalues --   -0.61260  -0.60679  -0.60106  -0.59945  -0.59323
 Alpha  occ. eigenvalues --   -0.59099  -0.58338  -0.58190  -0.58055  -0.57706
 Alpha  occ. eigenvalues --   -0.57283  -0.56919  -0.56674  -0.56444  -0.56325
 Alpha  occ. eigenvalues --   -0.56188  -0.55389  -0.55183  -0.55042  -0.54452
 Alpha  occ. eigenvalues --   -0.54314  -0.53939  -0.53867  -0.53686  -0.53366
 Alpha  occ. eigenvalues --   -0.53010  -0.52872  -0.52340  -0.52039  -0.51590
 Alpha  occ. eigenvalues --   -0.51154  -0.50400  -0.49909  -0.49573  -0.49351
 Alpha  occ. eigenvalues --   -0.49217  -0.48987  -0.48820  -0.48534  -0.48491
 Alpha  occ. eigenvalues --   -0.48299  -0.47887  -0.47801  -0.47744  -0.47495
 Alpha  occ. eigenvalues --   -0.47182  -0.47138  -0.46449  -0.46175  -0.45811
 Alpha  occ. eigenvalues --   -0.45670  -0.45427  -0.45342  -0.45223  -0.45179
 Alpha  occ. eigenvalues --   -0.45019  -0.44942  -0.44708  -0.44647  -0.44566
 Alpha  occ. eigenvalues --   -0.44489  -0.44466  -0.44071  -0.43997  -0.43866
 Alpha  occ. eigenvalues --   -0.43815  -0.43474  -0.43366  -0.42927  -0.42707
 Alpha  occ. eigenvalues --   -0.42527  -0.42425  -0.42201  -0.42180  -0.42143
 Alpha  occ. eigenvalues --   -0.41980  -0.41897  -0.41683  -0.41612  -0.41323
 Alpha  occ. eigenvalues --   -0.41181  -0.40992  -0.40787  -0.40698  -0.40636
 Alpha  occ. eigenvalues --   -0.40551  -0.40420  -0.40267  -0.39971  -0.39685
 Alpha  occ. eigenvalues --   -0.39601  -0.39584  -0.39512  -0.39351  -0.39293
 Alpha  occ. eigenvalues --   -0.39204  -0.39081  -0.38959  -0.38863  -0.38776
 Alpha  occ. eigenvalues --   -0.38662  -0.38481  -0.38155  -0.37950  -0.37780
 Alpha  occ. eigenvalues --   -0.37589  -0.37491  -0.37386  -0.37263  -0.37144
 Alpha  occ. eigenvalues --   -0.37066  -0.36949  -0.36818  -0.36630  -0.36468
 Alpha  occ. eigenvalues --   -0.36148  -0.36064  -0.35933  -0.35640  -0.35501
 Alpha  occ. eigenvalues --   -0.35405  -0.35353  -0.35212  -0.35068  -0.34970
 Alpha  occ. eigenvalues --   -0.34899  -0.34707  -0.34282  -0.33845  -0.33679
 Alpha  occ. eigenvalues --   -0.33493  -0.33465  -0.33179  -0.33019  -0.32715
 Alpha  occ. eigenvalues --   -0.32677  -0.32503  -0.32187  -0.31692  -0.31650
 Alpha  occ. eigenvalues --   -0.31349  -0.30800  -0.30549  -0.29536  -0.29407
 Alpha  occ. eigenvalues --   -0.29267  -0.28637  -0.28108  -0.27990  -0.27684
 Alpha  occ. eigenvalues --   -0.27541  -0.27278  -0.26903  -0.26376  -0.26085
 Alpha  occ. eigenvalues --   -0.25842  -0.25497  -0.25275  -0.25234  -0.25184
 Alpha  occ. eigenvalues --   -0.25006  -0.24651  -0.24103  -0.24037  -0.24005
 Alpha  occ. eigenvalues --   -0.23546  -0.23498  -0.23254  -0.23016  -0.22775
 Alpha  occ. eigenvalues --   -0.22527  -0.22320  -0.22278  -0.22055  -0.21584
 Alpha  occ. eigenvalues --   -0.21243  -0.20907  -0.20768  -0.20727  -0.20667
 Alpha  occ. eigenvalues --   -0.19550  -0.19094  -0.18099
 Alpha virt. eigenvalues --   -0.09284  -0.03857  -0.02693  -0.02224  -0.01414
 Alpha virt. eigenvalues --   -0.00574   0.00186   0.00358   0.00400   0.00444
 Alpha virt. eigenvalues --    0.00864   0.01141   0.01489   0.02584   0.02773

 Mulliken charges:
               1
     1  C    0.079632
     2  C    0.019204
     3  O   -0.308111
     4  H    0.044189
     5  H    0.023727
     6  H   -0.003837
     7  N   -0.117035
     8  C    0.075404
     9  C    0.069303
    10  O   -0.280125
    11  C    0.137273
    12  C    0.088536
    13  O   -0.478740
    14  O   -0.368900
    15  H    0.116120
    16  H    0.009843
    17  H   -0.005482
    18  H    0.012481
    19  N   -0.184654
    20  C    0.210212
    21  C    0.074787
    22  O   -0.275815
    23  C   -0.072050
    24  C    0.069566
    25  C   -0.094182
    26  C    0.073716
    27  N    0.081926
    28  H    0.154485
    29  H    0.015977
    30  H   -0.000798
    31  H   -0.001488
    32  H    0.050354
    33  H    0.011722
    34  H   -0.005396
    35  H    0.034673
    36  H    0.094081
    37  H    0.066694
    38  H    0.200263
    39  H    0.180562
    40  H    0.204834
    41  N   -0.148805
    42  C    0.101015
    43  C    0.059764
    44  O   -0.297256
    45  C    0.164240
    46  C    0.032396
    47  O   -0.429766
    48  O   -0.419133
    49  H    0.160370
    50  H    0.026928
    51  H   -0.017911
    52  H    0.014429
    53  N   -0.169568
    54  C    0.247106
    55  C    0.024748
    56  O   -0.308617
    57  H    0.111571
    58  H    0.029028
    59  H    0.043983
    60  N   -0.172278
    61  C    0.177812
    62  C    0.062588
    63  O   -0.296362
    64  C    0.041100
    65  C    0.069908
    66  N   -0.044404
    67  O   -0.337374
    68  H    0.148268
    69  H    0.016585
    70  H    0.060066
    71  H    0.032970
    72  H    0.123793
    73  H    0.112597
    74  N   -0.168534
    75  C    0.248687
    76  C    0.033487
    77  O   -0.305961
    78  H    0.157117
    79  H    0.041190
    80  H    0.017679
    81  N   -0.141947
    82  C    0.081248
    83  C    0.164772
    84  O   -0.372408
    85  C    0.142112
    86  C   -0.026586
    87  C   -0.015137
    88  C   -0.004810
    89  C    0.000999
    90  C   -0.016423
    91  C    0.162952
    92  O   -0.204953
    93  H    0.168209
    94  H   -0.023756
    95  H    0.017262
    96  H   -0.020512
    97  H   -0.058182
    98  H   -0.014768
    99  H   -0.031647
   100  H   -0.034526
   101  H    0.172211
   102  N   -0.071145
   103  C    0.117148
   104  C    0.051922
   105  O   -0.305950
   106  C   -0.033229
   107  C    0.077876
   108  C    0.018558
   109  C   -0.057687
   110  H    0.133186
   111  H    0.005984
   112  H   -0.030221
   113  H   -0.022144
   114  H   -0.018455
   115  H    0.005034
   116  H    0.023351
   117  H    0.039486
   118  H    0.030903
   119  H    0.054547
   120  H   -0.021173
   121  N   -0.127926
   122  C    0.092316
   123  C    0.112400
   124  O   -0.284441
   125  C    0.275616
   126  O   -0.361650
   127  H    0.158004
   128  H    0.012090
   129  H   -0.031333
   130  H   -0.037237
   131  H    0.178947
   132  N   -0.118346
   133  C    0.100228
   134  C    0.043951
   135  O   -0.237848
   136  C    0.025888
   137  H    0.121953
   138  H    0.028110
   139  H    0.023359
   140  H    0.000177
   141  H    0.048262
   142  N   -0.114771
   143  C    0.101311
   144  C    0.062732
   145  O   -0.303024
   146  C   -0.003087
   147  H    0.107534
   148  H    0.015120
   149  H    0.018112
   150  H    0.027909
   151  H    0.026406
   152  N   -0.129396
   153  C    0.156548
   154  C    0.075853
   155  O   -0.300228
   156  C   -0.086748
   157  C    0.123178
   158  C    0.190234
   159  O   -0.375078
   160  O   -0.478884
   161  H    0.133305
   162  H   -0.044700
   163  H    0.060275
   164  H   -0.005853
   165  H    0.012376
   166  H   -0.029529
   167  N   -0.161507
   168  C    0.136835
   169  H    0.016971
   170  H    0.027720
   171  H    0.030245
   172  H    0.134430
   173  Ca   1.254394
   174  O   -0.257928
   175  H    0.197122
   176  H    0.171093
 Sum of Mulliken charges =  -0.00000

 Dipole moment (field-independent basis, Debye):
    X=             26.5749    Y=             -3.7094    Z=             -3.0500  Tot=             27.0053
 Quadrupole moment (field-independent basis, Debye-Ang):
   XX=           -506.0733   YY=           -508.3093   ZZ=           -518.5969
   XY=            172.6941   XZ=             -7.9768   YZ=             84.8036

 ESP charges:
               1
     1  C   -0.397820
     2  C    0.676722
     3  O   -0.579547
     4  H    0.126516
     5  H    0.115318
     6  H    0.079534
     7  N   -0.616086
     8  C    0.300563
     9  C    0.262660
    10  O   -0.513817
    11  C   -0.318486
    12  C    0.723337
    13  O   -0.737075
    14  O   -0.613049
    15  H    0.336715
    16  H   -0.024227
    17  H    0.094356
    18  H    0.095394
    19  N    0.157244
    20  C   -0.460216
    21  C    0.716949
    22  O   -0.582432
    23  C    0.310426
    24  C   -0.264175
    25  C   -0.003713
    26  C    0.146381
    27  N   -0.411613
    28  H    0.048314
    29  H    0.157665
    30  H   -0.032170
    31  H   -0.046203
    32  H    0.077483
    33  H    0.085614
    34  H    0.010263
    35  H    0.030185
    36  H    0.071199
    37  H    0.051976
    38  H    0.340935
    39  H    0.308260
    40  H    0.364592
    41  N   -0.515349
    42  C    0.120751
    43  C    0.325499
    44  O   -0.541211
    45  C   -0.338911
    46  C    0.812561
    47  O   -0.753456
    48  O   -0.730962
    49  H    0.349964
    50  H    0.117743
    51  H    0.084795
    52  H    0.099237
    53  N    0.049838
    54  C   -0.475214
    55  C    0.662969
    56  O   -0.588430
    57  H    0.049477
    58  H    0.176631
    59  H    0.192175
    60  N   -0.372676
    61  C    0.022904
    62  C    0.356835
    63  O   -0.522161
    64  C   -0.378970
    65  C    0.786905
    66  N   -0.896346
    67  O   -0.572100
    68  H    0.284206
    69  H    0.125223
    70  H    0.152820
    71  H    0.128073
    72  H    0.385970
    73  H    0.402142
    74  N    0.027912
    75  C   -0.446416
    76  C    0.629354
    77  O   -0.565308
    78  H    0.124068
    79  H    0.183298
    80  H    0.157985
    81  N   -0.482772
    82  C    0.156697
    83  C    0.748990
    84  O   -0.551139
    85  C   -0.290827
    86  C    0.238106
    87  C   -0.260810
    88  C   -0.267895
    89  C   -0.194482
    90  C   -0.227413
    91  C    0.334504
    92  O   -0.555351
    93  H    0.340900
    94  H    0.013254
    95  H    0.089098
    96  H    0.057375
    97  H    0.138528
    98  H    0.188248
    99  H    0.153597
   100  H    0.130471
   101  H    0.414579
   102  N   -0.841487
   103  C    0.613219
   104  C    0.241334
   105  O   -0.540278
   106  C    0.115443
   107  C   -0.234214
   108  C   -0.131287
   109  C    0.036393
   110  H    0.377998
   111  H   -0.119548
   112  H   -0.023514
   113  H    0.036908
   114  H    0.059805
   115  H    0.050833
   116  H    0.001905
   117  H    0.023797
   118  H    0.043994
   119  H    0.044790
   120  H   -0.004013
   121  N    0.156407
   122  C   -0.083768
   123  C    0.490943
   124  O   -0.438964
   125  C    0.188945
   126  O   -0.575462
   127  H   -0.284301
   128  H    0.051812
   129  H   -0.005485
   130  H    0.004905
   131  H    0.356244
   132  N   -0.442811
   133  C    0.228882
   134  C    0.381356
   135  O   -0.512876
   136  C   -0.381195
   137  H    0.299333
   138  H    0.053798
   139  H    0.099865
   140  H    0.082007
   141  H    0.145973
   142  N   -0.203686
   143  C   -0.000260
   144  C    0.507991
   145  O   -0.572460
   146  C   -0.203603
   147  H    0.209225
   148  H    0.090583
   149  H    0.054742
   150  H    0.039629
   151  H    0.096750
   152  N   -0.325009
   153  C    0.050282
   154  C    0.427427
   155  O   -0.566641
   156  C    0.128578
   157  C   -0.172431
   158  C    0.609554
   159  O   -0.570070
   160  O   -0.433602
   161  H    0.169462
   162  H    0.036756
   163  H   -0.012255
   164  H    0.111576
   165  H    0.041086
   166  H    0.044877
   167  N   -0.092051
   168  C   -0.178696
   169  H    0.071461
   170  H    0.083881
   171  H    0.089988
   172  H    0.134563
   173  Ca   1.344837
   174  O   -0.753282
   175  H    0.436653
   176  H    0.363005
 Sum of ESP charges =  -0.00000

 Normal termination of Gaussian 16 at Wed Sep 18 20:37:25 2019.
