 Gaussian 09, Revision D.01,
 Gaussian 09:  ES64L-G09RevD.01 24-Apr-2013

 ----------------------------------------------------------------------
 #maxdisk=50GB #B3LYP/SVP Density=Current scf=(tight) #IOP(5/87=12)Pop=
 (MK,readradii) iop(6/33=2) iop(6/42=6)
 ----------------------------------------------------------------------

 ------------
 SOL molecule
 ------------
 Symbolic Z-matrix:
 Charge =  0 Multiplicity = 1

                         Standard orientation:
 ---------------------------------------------------------------------
 Center     Atomic      Atomic             Coordinates (Angstroms)
 Number     Number       Type             X           Y           Z
 ---------------------------------------------------------------------
      1          6           0        1.652598    3.121109    5.815797
      2          6           0        1.204497    2.910667    4.373050
      3          8           0        1.878365    3.306819    3.423384
      4          1           0        2.738690    3.052121    5.871926
      5          1           0        1.333409    4.106427    6.156028
      6          1           0        1.206892    2.354884    6.450938
      7          7           0       -0.024090    2.409132    4.187207
      8          6           0       -0.610190    2.106557    2.898628
      9          6           0       -0.685644    3.420465    2.140636
     10          8           0       -1.140037    4.432301    2.673287
     11          6           0       -2.004711    1.519127    3.115510
     12          6           0       -2.624109    1.061063    1.802147
     13          8           0       -2.119758    1.337414    0.694014
     14          8           0       -3.679535    0.391224    1.830288
     15          1           0       -0.585175    2.235435    5.014016
     16          1           0        0.057574    1.377892    2.429118
     17          1           0       -2.687052    2.140630    3.699928
     18          1           0       -1.876221    0.613215    3.715938
     19          7           0       -0.156885    3.555604    0.921312
     20          6           0        0.008015    4.741731    0.109456
     21          6           0       -1.302809    5.364968   -0.352838
     22          8           0       -1.462673    6.581606   -0.419445
     23          6           0        0.965463    4.538967   -1.066885
     24          6           0        1.127822    5.817119   -1.883751
     25          6           0        2.116268    5.579058   -3.025549
     26          6           0        2.052343    6.597916   -4.159057
     27          7           0        2.395944    7.938145   -3.647955
     28          1           0        0.185793    2.722809    0.460525
     29          1           0        0.507192    5.491531    0.734533
     30          1           0        0.601894    3.792390   -1.781406
     31          1           0        1.945461    4.223684   -0.728357
     32          1           0        1.354017    6.719626   -1.309280
     33          1           0        0.183597    6.009960   -2.373701
     34          1           0        2.041135    4.563871   -3.430952
     35          1           0        3.135271    5.604756   -2.631248
     36          1           0        1.071735    6.532249   -4.608387
     37          1           0        2.777827    6.291980   -4.917130
     38          1           0        3.266255    8.033354   -3.138942
     39          1           0        2.391444    8.581391   -4.425395
     40          1           0        1.629694    8.327217   -3.118631
     41          7           0       -2.389705    4.599813   -0.422802
     42          6           0       -3.731992    4.972838   -0.814360
     43          6           0       -4.788728    4.548745    0.195568
     44          8           0       -5.866088    5.123248    0.136907
     45          6           0       -4.094061    4.428167   -2.192381
     46          6           0       -3.672064    3.014959   -2.556061
     47          8           0       -3.101500    2.297741   -1.707913
     48          8           0       -3.922268    2.651652   -3.733348
     49          1           0       -2.266729    3.591631   -0.480637
     50          1           0       -3.736671    6.062792   -0.851495
     51          1           0       -3.578914    5.092402   -2.887805
     52          1           0       -5.138464    4.471579   -2.501955
     53          7           0       -4.619644    3.487076    0.988329
     54          6           0       -5.543203    2.890049    1.927847
     55          6           0       -6.394374    1.815265    1.260503
     56          8           0       -7.545006    1.621470    1.657857
     57          1           0       -3.717649    3.053179    0.844316
     58          1           0       -6.245486    3.662523    2.241507
     59          1           0       -5.053979    2.366894    2.749108
     60          7           0       -5.875788    1.213815    0.189277
     61          6           0       -6.494009    0.170819   -0.611199
     62          6           0       -6.458477   -1.226779   -0.012902
     63          8           0       -7.190084   -2.066877   -0.541944
     64          6           0       -6.014880    0.191050   -2.059724
     65          6           0       -4.789210   -0.685453   -2.234301
     66          7           0       -4.700608   -1.498956   -3.289793
     67          8           0       -3.803466   -0.606519   -1.503906
     68          1           0       -4.924588    1.414808   -0.114402
     69          1           0       -7.526953    0.517566   -0.644266
     70          1           0       -5.904302    1.225528   -2.395922
     71          1           0       -6.839732   -0.248937   -2.617335
     72          1           0       -5.392675   -1.648134   -4.002316
     73          1           0       -3.806245   -1.921745   -3.505349
     74          7           0       -5.899422   -1.395392    1.177446
     75          6           0       -5.752286   -2.582371    1.995024
     76          6           0       -4.587372   -3.455502    1.533920
     77          8           0       -4.521993   -4.624667    1.901722
     78          1           0       -5.349710   -0.599661    1.482778
     79          1           0       -6.585983   -3.265231    1.831158
     80          1           0       -5.583059   -2.167540    2.982079
     81          7           0       -3.582678   -2.825966    0.910883
     82          6           0       -2.358790   -3.531907    0.596645
     83          6           0       -1.132984   -2.655537    0.762710
     84          8           0       -1.238286   -1.448584    0.550402
     85          6           0       -2.444663   -4.140894   -0.805446
     86          6           0       -3.500109   -5.185764   -1.059177
     87          6           0       -4.354465   -5.112175   -2.168483
     88          6           0       -3.579552   -6.303587   -0.213681
     89          6           0       -5.370235   -6.055510   -2.333803
     90          6           0       -4.586985   -7.255331   -0.397970
     91          6           0       -5.529484   -7.131984   -1.446818
     92          8           0       -6.486478   -8.079408   -1.637213
     93          1           0       -3.737864   -1.859561    0.656761
     94          1           0       -2.253666   -4.413630    1.234072
     95          1           0       -1.490949   -4.550443   -1.127314
     96          1           0       -2.654239   -3.335138   -1.507824
     97          1           0       -4.223028   -4.309054   -2.872700
     98          1           0       -2.930964   -6.350252    0.656178
     99          1           0       -6.054883   -5.955805   -3.169216
    100          1           0       -4.781294   -8.063177    0.291254
    101          1           0       -6.556290   -8.655684   -0.869403
    102          7           0        0.009227   -3.224598    1.147967
    103          6           0        1.325607   -2.641687    1.346865
    104          6           0        2.147612   -3.459879    0.352194
    105          8           0        2.252106   -4.677723    0.484624
    106          6           0        1.886059   -2.672016    2.761211
    107          6           0        1.270254   -1.539000    3.585686
    108          6           0        3.379594   -2.378264    2.728584
    109          6           0        1.744208   -1.520610    5.040584
    110          1           0       -0.024880   -4.230699    1.267953
    111          1           0        1.313715   -1.607328    1.030702
    112          1           0        1.700321   -3.616185    3.277395
    113          1           0        0.191373   -1.662912    3.593466
    114          1           0        1.487291   -0.572135    3.131189
    115          1           0        3.958612   -3.173157    2.265246
    116          1           0        3.544836   -1.345279    2.417075
    117          1           0        3.776277   -2.377130    3.745954
    118          1           0        1.011627   -0.853625    5.487862
    119          1           0        1.653996   -2.507798    5.496568
    120          1           0        2.771404   -1.178899    5.087510
    121          7           0        2.851847   -2.772329   -0.549875
    122          6           0        3.908672   -3.289835   -1.390119
    123          6           0        5.300575   -3.116682   -0.791852
    124          8           0        5.495271   -2.585056    0.291692
    125          6           0        3.770661   -2.596884   -2.743844
    126          8           0        3.911290   -1.196115   -2.654568
    127          1           0        2.732159   -1.766223   -0.531850
    128          1           0        3.807768   -4.358333   -1.603966
    129          1           0        2.826579   -2.849941   -3.220575
    130          1           0        4.595310   -2.957571   -3.360253
    131          1           0        3.117289   -0.861071   -2.245290
    132          7           0        6.351501   -3.604517   -1.463321
    133          6           0        7.748419   -3.381458   -1.148575
    134          6           0        8.069511   -1.896892   -1.048763
    135          8           0        8.610543   -1.414899   -0.054597
    136          6           0        8.560943   -4.082408   -2.220477
    137          1           0        6.209743   -4.189618   -2.278466
    138          1           0        7.936985   -3.774923   -0.147911
    139          1           0        9.605087   -4.096564   -1.892355
    140          1           0        8.389180   -5.156878   -2.188676
    141          1           0        8.466473   -3.571055   -3.179327
    142          7           0        7.597296   -1.090417   -2.003966
    143          6           0        7.841844    0.334763   -2.037999
    144          6           0        7.088211    1.028406   -0.910613
    145          8           0        7.272174    2.231195   -0.767242
    146          6           0        7.464293    0.890012   -3.404327
    147          1           0        7.039864   -1.474780   -2.753389
    148          1           0        8.906305    0.435544   -1.804621
    149          1           0        7.967117    0.324461   -4.187347
    150          1           0        6.392098    0.913625   -3.564451
    151          1           0        7.882481    1.879650   -3.622350
    152          7           0        6.173016    0.400150   -0.169727
    153          6           0        5.430336    0.902893    0.978566
    154          6           0        6.028390    0.390435    2.280495
    155          8           0        5.999159    1.050871    3.308683
    156          6           0        3.979281    0.467919    0.770876
    157          6           0        3.215554    1.285087   -0.259200
    158          6           0        1.857086    0.678038   -0.560791
    159          8           0        0.777786    1.162166   -0.142663
    160          8           0        1.793167   -0.258921   -1.391347
    161          1           0        6.143724   -0.605847   -0.190015
    162          1           0        5.442317    1.987438    0.993328
    163          1           0        3.304125    0.626497    1.611125
    164          1           0        4.055264   -0.584107    0.490399
    165          1           0        3.774707    1.390420   -1.183079
    166          1           0        3.055483    2.308436    0.076113
    167          7           0        6.652182   -0.796764    2.253266
    168          6           0        7.347249   -1.437309    3.348841
    169          1           0        8.355950   -1.702548    3.033032
    170          1           0        7.400531   -0.753493    4.195739
    171          1           0        6.810034   -2.339489    3.642900
    172          1           0        6.488831   -1.373343    1.445941
    173         20           0       -1.401423    0.410918   -1.479140
    174          8           0       -0.655894   -1.783290   -2.719842
    175          1           0        0.060321   -2.408883   -2.618012
    176          1           0       -1.112524   -2.068544   -3.516346
 ---------------------------------------------------------------------

 SCF Done:  E(RB3LYP) =  -5333.56218975     A.U. after   18 cycles

 The electronic state is 1-A.
 Alpha  occ. eigenvalues -- -145.40154 -19.21847 -19.15109 -19.14299 -19.13524
 Alpha  occ. eigenvalues --  -19.11957 -19.11586 -19.10754 -19.10670 -19.10635
 Alpha  occ. eigenvalues --  -19.10299 -19.08018 -19.06712 -19.06507 -19.06275
 Alpha  occ. eigenvalues --  -19.06141 -19.06053 -19.05374 -19.04670 -19.04196
 Alpha  occ. eigenvalues --  -19.04095 -19.03867 -19.03230 -19.02819 -15.45884
 Alpha  occ. eigenvalues --  -14.59184 -14.39714 -14.37564 -14.37230 -14.36763
 Alpha  occ. eigenvalues --  -14.36552 -14.34177 -14.32654 -14.32309 -14.31763
 Alpha  occ. eigenvalues --  -14.31080 -14.31013 -14.30350 -14.30133 -14.30103
 Alpha  occ. eigenvalues --  -12.59509 -12.59469 -12.59425 -10.35526 -10.32607
 Alpha  occ. eigenvalues --  -10.30729 -10.30288 -10.29482 -10.29273 -10.29068
 Alpha  occ. eigenvalues --  -10.27411 -10.27407 -10.26667 -10.26658 -10.26360
 Alpha  occ. eigenvalues --  -10.25278 -10.25215 -10.25199 -10.25150 -10.24765
 Alpha  occ. eigenvalues --  -10.24154 -10.23937 -10.23833 -10.23772 -10.23593
 Alpha  occ. eigenvalues --  -10.23569 -10.23562 -10.23010 -10.22967 -10.22939
 Alpha  occ. eigenvalues --  -10.22936 -10.22104 -10.21986 -10.21902 -10.20861
 Alpha  occ. eigenvalues --  -10.20115 -10.20043 -10.19808 -10.19540 -10.19207
 Alpha  occ. eigenvalues --  -10.18989 -10.18865 -10.18828 -10.18801 -10.18687
 Alpha  occ. eigenvalues --  -10.18006 -10.17942 -10.17691 -10.17622 -10.17354
 Alpha  occ. eigenvalues --  -10.17242 -10.17072 -10.16690 -10.16537 -10.16249
 Alpha  occ. eigenvalues --  -10.16243 -10.15210  -1.82687  -1.14368  -1.10312
 Alpha  occ. eigenvalues --   -1.10089  -1.09774  -1.07939  -1.07456  -1.05521
 Alpha  occ. eigenvalues --   -1.04909  -1.04856  -1.04235  -1.03719  -1.03382
 Alpha  occ. eigenvalues --   -1.02538  -1.01670  -1.00168  -0.99908  -0.99469
 Alpha  occ. eigenvalues --   -0.99387  -0.99267  -0.98745  -0.98398  -0.97698
 Alpha  occ. eigenvalues --   -0.97561  -0.96684  -0.96643  -0.94778  -0.94177
 Alpha  occ. eigenvalues --   -0.93532  -0.93302  -0.91533  -0.91433  -0.90104
 Alpha  occ. eigenvalues --   -0.89544  -0.89426  -0.88932  -0.88553  -0.88504
 Alpha  occ. eigenvalues --   -0.87983  -0.87927  -0.87601  -0.87238  -0.86101
 Alpha  occ. eigenvalues --   -0.83466  -0.82723  -0.82152  -0.81739  -0.79581
 Alpha  occ. eigenvalues --   -0.78728  -0.77963  -0.77726  -0.76519  -0.76252
 Alpha  occ. eigenvalues --   -0.75058  -0.74376  -0.74243  -0.73535  -0.72723
 Alpha  occ. eigenvalues --   -0.72662  -0.72264  -0.71061  -0.70579  -0.69907
 Alpha  occ. eigenvalues --   -0.69896  -0.69502  -0.68921  -0.68371  -0.68116
 Alpha  occ. eigenvalues --   -0.67482  -0.66318  -0.65358  -0.64793  -0.64521
 Alpha  occ. eigenvalues --   -0.64296  -0.63384  -0.62853  -0.62692  -0.62013
 Alpha  occ. eigenvalues --   -0.61670  -0.61349  -0.60887  -0.60825  -0.60822
 Alpha  occ. eigenvalues --   -0.60405  -0.59218  -0.58973  -0.57632  -0.57547
 Alpha  occ. eigenvalues --   -0.57394  -0.56805  -0.56120  -0.55870  -0.55777
 Alpha  occ. eigenvalues --   -0.55728  -0.55529  -0.55342  -0.55224  -0.55091
 Alpha  occ. eigenvalues --   -0.54687  -0.54480  -0.54130  -0.53475  -0.53279
 Alpha  occ. eigenvalues --   -0.53099  -0.52880  -0.52584  -0.51925  -0.51523
 Alpha  occ. eigenvalues --   -0.51211  -0.50798  -0.50373  -0.50227  -0.49840
 Alpha  occ. eigenvalues --   -0.49499  -0.49431  -0.49024  -0.48940  -0.48720
 Alpha  occ. eigenvalues --   -0.48565  -0.48390  -0.48106  -0.47904  -0.47797
 Alpha  occ. eigenvalues --   -0.47442  -0.47422  -0.47026  -0.46977  -0.46797
 Alpha  occ. eigenvalues --   -0.46482  -0.46334  -0.46146  -0.45706  -0.45460
 Alpha  occ. eigenvalues --   -0.45284  -0.45043  -0.44995  -0.44853  -0.44746
 Alpha  occ. eigenvalues --   -0.44333  -0.44220  -0.44075  -0.43756  -0.43712
 Alpha  occ. eigenvalues --   -0.43453  -0.43334  -0.43139  -0.42898  -0.42784
 Alpha  occ. eigenvalues --   -0.42658  -0.42429  -0.42290  -0.42276  -0.42045
 Alpha  occ. eigenvalues --   -0.42031  -0.41940  -0.41889  -0.41657  -0.41324
 Alpha  occ. eigenvalues --   -0.41261  -0.41038  -0.40918  -0.40836  -0.40804
 Alpha  occ. eigenvalues --   -0.40771  -0.40492  -0.40313  -0.40226  -0.40013
 Alpha  occ. eigenvalues --   -0.39981  -0.39802  -0.39683  -0.39619  -0.39391
 Alpha  occ. eigenvalues --   -0.39286  -0.39265  -0.39183  -0.39028  -0.38905
 Alpha  occ. eigenvalues --   -0.38764  -0.38528  -0.38486  -0.38214  -0.38029
 Alpha  occ. eigenvalues --   -0.37903  -0.37684  -0.37545  -0.37332  -0.37149
 Alpha  occ. eigenvalues --   -0.37083  -0.36987  -0.36900  -0.36584  -0.36311
 Alpha  occ. eigenvalues --   -0.36194  -0.35991  -0.35948  -0.35649  -0.35530
 Alpha  occ. eigenvalues --   -0.35353  -0.35232  -0.35132  -0.34963  -0.34929
 Alpha  occ. eigenvalues --   -0.34556  -0.34345  -0.34304  -0.33913  -0.33578
 Alpha  occ. eigenvalues --   -0.33414  -0.33335  -0.32801  -0.32602  -0.32477
 Alpha  occ. eigenvalues --   -0.32457  -0.32153  -0.31966  -0.31670  -0.31642
 Alpha  occ. eigenvalues --   -0.31616  -0.31428  -0.31241  -0.31087  -0.30488
 Alpha  occ. eigenvalues --   -0.29735  -0.29567  -0.29139  -0.28616  -0.28528
 Alpha  occ. eigenvalues --   -0.27972  -0.27772  -0.27275  -0.27198  -0.26767
 Alpha  occ. eigenvalues --   -0.26089  -0.25850  -0.25462  -0.24844  -0.24309
 Alpha  occ. eigenvalues --   -0.23997  -0.23784  -0.23704  -0.23580  -0.23296
 Alpha  occ. eigenvalues --   -0.23146  -0.23024  -0.22770  -0.22586  -0.22242
 Alpha  occ. eigenvalues --   -0.22066  -0.21877  -0.21552  -0.21359  -0.20901
 Alpha  occ. eigenvalues --   -0.20681  -0.20580  -0.20408  -0.19784  -0.19538
 Alpha  occ. eigenvalues --   -0.19170  -0.18519  -0.18444
 Alpha virt. eigenvalues --   -0.10701  -0.05800  -0.04968  -0.04314  -0.02981
 Alpha virt. eigenvalues --   -0.02167  -0.01075  -0.00737  -0.00287  -0.00104
 Alpha virt. eigenvalues --    0.00007   0.00257   0.01295   0.01597   0.01685

 Mulliken charges:
               1
     1  C    0.049592
     2  C    0.031445
     3  O   -0.298860
     4  H    0.038445
     5  H    0.044751
     6  H   -0.002747
     7  N   -0.120013
     8  C    0.121879
     9  C    0.081531
    10  O   -0.298178
    11  C    0.048488
    12  C    0.155225
    13  O   -0.477409
    14  O   -0.388094
    15  H    0.110127
    16  H    0.002136
    17  H    0.022959
    18  H    0.004217
    19  N   -0.103498
    20  C    0.171738
    21  C    0.027852
    22  O   -0.317248
    23  C   -0.002434
    24  C    0.005921
    25  C   -0.045252
    26  C    0.043532
    27  N    0.075582
    28  H    0.127216
    29  H    0.009464
    30  H   -0.017625
    31  H    0.029642
    32  H   -0.000892
    33  H    0.015828
    34  H    0.044195
    35  H    0.019522
    36  H    0.087493
    37  H    0.068908
    38  H    0.201106
    39  H    0.183923
    40  H    0.198730
    41  N   -0.132767
    42  C    0.141793
    43  C    0.051527
    44  O   -0.288199
    45  C    0.061322
    46  C    0.098744
    47  O   -0.458123
    48  O   -0.389167
    49  H    0.146255
    50  H    0.005133
    51  H   -0.011708
    52  H    0.026072
    53  N   -0.177239
    54  C    0.264193
    55  C    0.006408
    56  O   -0.290638
    57  H    0.145709
    58  H    0.025222
    59  H    0.030559
    60  N   -0.172773
    61  C    0.104910
    62  C    0.036999
    63  O   -0.301534
    64  C    0.093737
    65  C    0.089063
    66  N   -0.025406
    67  O   -0.356958
    68  H    0.147672
    69  H    0.028678
    70  H    0.078046
    71  H    0.004548
    72  H    0.128958
    73  H    0.104481
    74  N   -0.169616
    75  C    0.276772
    76  C    0.015600
    77  O   -0.297626
    78  H    0.159923
    79  H    0.030515
    80  H    0.041809
    81  N   -0.145477
    82  C    0.102817
    83  C    0.098864
    84  O   -0.323761
    85  C    0.169046
    86  C   -0.037195
    87  C    0.028335
    88  C    0.064756
    89  C   -0.026959
    90  C   -0.048373
    91  C    0.169750
    92  O   -0.195411
    93  H    0.157835
    94  H    0.004332
    95  H   -0.022701
    96  H   -0.068995
    97  H   -0.101363
    98  H   -0.028481
    99  H   -0.035338
   100  H   -0.051594
   101  H    0.177138
   102  N   -0.119721
   103  C    0.172530
   104  C    0.039362
   105  O   -0.290360
   106  C   -0.061497
   107  C   -0.043908
   108  C    0.069337
   109  C    0.052001
   110  H    0.129793
   111  H    0.001097
   112  H   -0.018456
   113  H    0.001216
   114  H    0.027667
   115  H    0.025632
   116  H   -0.008445
   117  H   -0.007993
   118  H    0.004771
   119  H    0.001405
   120  H    0.032024
   121  N   -0.137138
   122  C    0.085979
   123  C    0.127991
   124  O   -0.275081
   125  C    0.261974
   126  O   -0.342257
   127  H    0.130599
   128  H    0.023110
   129  H   -0.014099
   130  H   -0.037443
   131  H    0.155540
   132  N   -0.134440
   133  C    0.103511
   134  C    0.022303
   135  O   -0.248761
   136  C    0.036924
   137  H    0.117313
   138  H    0.020498
   139  H    0.033956
   140  H    0.030517
   141  H    0.023506
   142  N   -0.163543
   143  C    0.127904
   144  C    0.051316
   145  O   -0.294117
   146  C    0.046438
   147  H    0.112570
   148  H    0.029285
   149  H    0.000586
   150  H    0.025647
   151  H    0.025748
   152  N   -0.140353
   153  C    0.125072
   154  C    0.078635
   155  O   -0.264484
   156  C   -0.060009
   157  C    0.112776
   158  C    0.149595
   159  O   -0.399136
   160  O   -0.428611
   161  H    0.135488
   162  H    0.007213
   163  H    0.055517
   164  H    0.008663
   165  H   -0.008637
   166  H    0.013536
   167  N   -0.173448
   168  C    0.128735
   169  H    0.021242
   170  H    0.035287
   171  H    0.010281
   172  H    0.119129
   173  Ca   1.318322
   174  O   -0.286052
   175  H    0.197644
   176  H    0.181496
 Sum of Mulliken charges =   0.00000

 Dipole moment (field-independent basis, Debye):
    X=             25.9807    Y=              6.3944    Z=            -27.1090  Tot=             38.0892
 Quadrupole moment (field-independent basis, Debye-Ang):
   XX=           -702.2917   YY=           -403.3449   ZZ=           -471.7602
   XY=             64.9756   XZ=            -73.9645   YZ=           -110.0891

 ESP charges:
               1
     1  C   -0.446264
     2  C    0.761749
     3  O   -0.604378
     4  H    0.130905
     5  H    0.137825
     6  H    0.079745
     7  N   -0.652618
     8  C   -0.014318
     9  C    0.836591
    10  O   -0.619035
    11  C   -0.233816
    12  C    0.763510
    13  O   -0.693703
    14  O   -0.743459
    15  H    0.343152
    16  H    0.063476
    17  H    0.105574
    18  H    0.070698
    19  N   -0.355774
    20  C   -0.028914
    21  C    0.478105
    22  O   -0.587899
    23  C   -0.089505
    24  C   -0.011132
    25  C    0.047691
    26  C    0.047412
    27  N   -0.355532
    28  H    0.134703
    29  H    0.106154
    30  H    0.036559
    31  H    0.074944
    32  H   -0.001678
    33  H    0.019109
    34  H    0.028559
    35  H    0.001837
    36  H    0.084208
    37  H    0.060448
    38  H    0.348247
    39  H    0.314028
    40  H    0.327804
    41  N   -0.271099
    42  C    0.156303
    43  C    0.360468
    44  O   -0.540627
    45  C   -0.485390
    46  C    0.871988
    47  O   -0.989683
    48  O   -0.708341
    49  H    0.324251
    50  H    0.091744
    51  H    0.104513
    52  H    0.163881
    53  N    0.086810
    54  C   -0.344301
    55  C    0.662695
    56  O   -0.593866
    57  H   -0.191740
    58  H    0.144948
    59  H    0.141445
    60  N   -0.392676
    61  C   -0.181981
    62  C    0.444933
    63  O   -0.523341
    64  C   -0.249172
    65  C    0.512756
    66  N   -0.650026
    67  O   -0.483114
    68  H    0.433385
    69  H    0.169746
    70  H    0.173257
    71  H    0.105534
    72  H    0.352957
    73  H    0.294958
    74  N   -0.058914
    75  C   -0.530909
    76  C    0.788742
    77  O   -0.561108
    78  H    0.199681
    79  H    0.183750
    80  H    0.197666
    81  N   -0.762546
    82  C    0.372313
    83  C    0.570958
    84  O   -0.574287
    85  C   -0.204427
    86  C    0.200677
    87  C   -0.281263
    88  C   -0.231921
    89  C   -0.191083
    90  C   -0.282047
    91  C    0.380681
    92  O   -0.561299
    93  H    0.486092
    94  H   -0.025041
    95  H    0.007784
    96  H    0.041031
    97  H    0.134948
    98  H    0.183472
    99  H    0.141547
   100  H    0.137878
   101  H    0.413584
   102  N   -0.629519
   103  C   -0.077016
   104  C    0.598874
   105  O   -0.552033
   106  C    0.103776
   107  C    0.116649
   108  C   -0.283593
   109  C   -0.450528
   110  H    0.335155
   111  H    0.023785
   112  H    0.038607
   113  H    0.045223
   114  H    0.078109
   115  H    0.096867
   116  H    0.020339
   117  H    0.085307
   118  H    0.103362
   119  H    0.105946
   120  H    0.121361
   121  N   -0.497565
   122  C   -0.053773
   123  C    0.592290
   124  O   -0.416205
   125  C    0.126102
   126  O   -0.580403
   127  H    0.585678
   128  H    0.080808
   129  H    0.019849
   130  H    0.022942
   131  H    0.381780
   132  N   -0.493617
   133  C    0.180330
   134  C    0.471197
   135  O   -0.516100
   136  C   -0.340680
   137  H    0.277148
   138  H    0.074733
   139  H    0.112915
   140  H    0.118316
   141  H    0.078166
   142  N   -0.365303
   143  C   -0.011069
   144  C    0.424336
   145  O   -0.564039
   146  C   -0.251846
   147  H    0.311940
   148  H    0.141633
   149  H    0.067894
   150  H    0.079592
   151  H    0.103456
   152  N    0.389305
   153  C   -0.527023
   154  C    0.609075
   155  O   -0.560835
   156  C    0.469565
   157  C   -0.409991
   158  C    0.794271
   159  O   -0.686899
   160  O   -0.788638
   161  H   -0.481038
   162  H    0.179724
   163  H   -0.005440
   164  H   -0.164383
   165  H    0.065178
   166  H    0.109321
   167  N   -0.191335
   168  C   -0.160569
   169  H    0.073804
   170  H    0.100654
   171  H    0.048847
   172  H    0.287768
   173  Ca   1.685003
   174  O   -0.887568
   175  H    0.454742
   176  H    0.423104
 Sum of ESP charges =   0.00000

 Normal termination of Gaussian 09 at Mon Sep 16 21:35:59 2019.
