 Gaussian 16, Revision A.03,
 Gaussian 16:  ES64L-G16RevA.03 25-Dec-2016

 ----------------------------------------------------------------------
 #b3lyp/svp scf=(tight,noincore) Test #IOP(5/87=12) Density=Current Pop
 =(MK,readradii) iop(6/33=2) iop(6/42=6)
 ----------------------------------------------------------------------

 ------------------
 holoCaM_loop3_35.0
 ------------------
 Symbolic Z-matrix:
 Charge =  0 Multiplicity = 1

                         Standard orientation:
 ---------------------------------------------------------------------
 Center     Atomic      Atomic             Coordinates (Angstroms)
 Number     Number       Type             X           Y           Z
 ---------------------------------------------------------------------
      1          6           0        2.565063    2.343340    4.941872
      2          6           0        1.728223    2.305240    3.670280
      3          8           0        2.310881    2.423963    2.593193
      4          1           0        3.607619    2.141250    4.696563
      5          1           0        2.485070    3.328790    5.400672
      6          1           0        2.203058    1.586997    5.638539
      7          7           0        0.404150    2.122513    3.727215
      8          6           0       -0.534001    2.158616    2.629777
      9          6           0       -0.552435    3.538453    1.992667
     10          8           0       -1.396909    4.397525    2.233828
     11          6           0       -1.918942    1.602251    2.973575
     12          6           0       -2.772600    1.337533    1.746265
     13          8           0       -2.293759    1.391542    0.592145
     14          8           0       -3.974535    1.058873    1.959340
     15          1           0        0.070767    1.780613    4.619493
     16          1           0       -0.088319    1.601673    1.805107
     17          1           0       -2.488349    2.238464    3.646561
     18          1           0       -1.706497    0.673206    3.502766
     19          7           0        0.373683    3.844394    1.087291
     20          6           0        0.638995    5.172618    0.560292
     21          6           0       -0.550126    5.860894   -0.095122
     22          8           0       -0.666978    7.079920   -0.178921
     23          6           0        1.707169    5.153691   -0.521949
     24          6           0        3.173415    4.968893   -0.129427
     25          6           0        4.126548    5.401983   -1.245524
     26          6           0        5.568782    5.290542   -0.766733
     27          7           0        6.578091    5.748837   -1.746049
     28          1           0        1.076194    3.137195    0.937129
     29          1           0        0.985971    5.837222    1.351753
     30          1           0        1.713241    6.029794   -1.171340
     31          1           0        1.429394    4.290543   -1.133435
     32          1           0        3.386238    3.947483    0.166593
     33          1           0        3.458476    5.654427    0.673370
     34          1           0        3.972875    6.416011   -1.592989
     35          1           0        4.009964    4.723991   -2.094779
     36          1           0        5.784062    4.246117   -0.555944
     37          1           0        5.701106    5.864659    0.148570
     38          1           0        6.416438    6.719121   -1.968124
     39          1           0        7.551340    5.625680   -1.478244
     40          1           0        6.462054    5.294365   -2.634526
     41          7           0       -1.428680    5.006839   -0.617264
     42          6           0       -2.584996    5.454992   -1.373499
     43          6           0       -3.912111    4.923618   -0.848231
     44          8           0       -5.021588    5.246367   -1.293532
     45          6           0       -2.432272    4.961909   -2.804633
     46          6           0       -2.120444    3.497937   -3.073802
     47          8           0       -2.085532    3.072306   -4.249650
     48          8           0       -1.776168    2.794966   -2.100865
     49          1           0       -1.318562    4.001238   -0.523239
     50          1           0       -2.644219    6.539240   -1.334768
     51          1           0       -1.612987    5.570649   -3.176531
     52          1           0       -3.320349    5.278266   -3.352116
     53          7           0       -3.835746    4.290745    0.313940
     54          6           0       -5.051915    3.930197    1.023896
     55          6           0       -5.989713    2.961163    0.319903
     56          8           0       -7.174739    3.125338    0.601614
     57          1           0       -2.917708    4.131210    0.717865
     58          1           0       -5.604707    4.820970    1.352901
     59          1           0       -4.722892    3.477644    1.962800
     60          7           0       -5.545538    2.004160   -0.497688
     61          6           0       -6.395685    1.040292   -1.173565
     62          6           0       -6.750797   -0.260619   -0.464111
     63          8           0       -7.471556   -1.154206   -0.898287
     64          6           0       -5.823377    0.763791   -2.565438
     65          6           0       -4.719777   -0.280179   -2.620142
     66          7           0       -4.722253   -1.259778   -3.524288
     67          8           0       -3.797156   -0.231448   -1.817088
     68          1           0       -4.549413    1.892143   -0.584216
     69          1           0       -7.355030    1.499635   -1.368661
     70          1           0       -5.433225    1.610203   -3.144116
     71          1           0       -6.628406    0.362389   -3.186569
     72          1           0       -5.415762   -1.329095   -4.255342
     73          1           0       -3.923785   -1.885909   -3.494117
     74          7           0       -6.215637   -0.384193    0.746233
     75          6           0       -6.466566   -1.533947    1.586827
     76          6           0       -5.406483   -2.617963    1.703595
     77          8           0       -5.521405   -3.572849    2.468504
     78          1           0       -5.617911    0.318054    1.161652
     79          1           0       -7.359223   -2.105535    1.330604
     80          1           0       -6.719266   -1.083987    2.551544
     81          7           0       -4.282207   -2.415998    0.996266
     82          6           0       -3.183995   -3.350080    0.991517
     83          6           0       -1.808118   -2.684887    0.961844
     84          8           0       -1.586187   -1.609271    0.417329
     85          6           0       -3.274616   -4.293678   -0.213518
     86          6           0       -4.658497   -4.837596   -0.451480
     87          6           0       -5.424282   -4.221219   -1.449554
     88          6           0       -5.258643   -5.761913    0.412038
     89          6           0       -6.747701   -4.626084   -1.684603
     90          6           0       -6.621872   -6.066524    0.268446
     91          6           0       -7.377796   -5.496822   -0.766019
     92          8           0       -8.732309   -5.678657   -0.806411
     93          1           0       -4.233026   -1.640580    0.344800
     94          1           0       -3.194309   -3.990389    1.870436
     95          1           0       -2.543295   -5.072717   -0.038397
     96          1           0       -2.911255   -3.772264   -1.097088
     97          1           0       -5.040251   -3.437806   -2.086488
     98          1           0       -4.629988   -6.278260    1.129240
     99          1           0       -7.412258   -4.192482   -2.409829
    100          1           0       -7.090670   -6.808553    0.895282
    101          1           0       -8.982697   -6.417181   -0.245797
    102          7           0       -0.828204   -3.402704    1.499530
    103          6           0        0.555294   -2.967921    1.531119
    104          6           0        1.390417   -3.897537    0.663431
    105          8           0        1.444074   -5.102829    0.888360
    106          6           0        0.977068   -2.827404    2.993057
    107          6           0        0.238993   -1.665034    3.643473
    108          6           0        2.471702   -2.755495    3.278361
    109          6           0        0.282228   -1.405376    5.146806
    110          1           0       -1.067938   -4.327249    1.861945
    111          1           0        0.648286   -1.964184    1.120798
    112          1           0        0.541853   -3.676238    3.524159
    113          1           0       -0.804777   -1.794024    3.350205
    114          1           0        0.610065   -0.768603    3.132868
    115          1           0        2.750196   -2.811040    4.337397
    116          1           0        2.879962   -3.616434    2.740023
    117          1           0        2.753139   -1.811220    2.824998
    118          1           0       -0.023403   -2.319516    5.659385
    119          1           0        1.347429   -1.292972    5.340748
    120          1           0       -0.272151   -0.531265    5.480264
    121          7           0        2.088230   -3.204600   -0.245082
    122          6           0        3.033942   -3.745576   -1.191060
    123          6           0        4.468848   -3.733689   -0.680078
    124          8           0        4.816432   -2.862443    0.121305
    125          6           0        2.832279   -2.933550   -2.468575
    126          8           0        3.356696   -3.674015   -3.547648
    127          1           0        1.956743   -2.199291   -0.190638
    128          1           0        2.833386   -4.811999   -1.323049
    129          1           0        3.349153   -1.974804   -2.491985
    130          1           0        1.763079   -2.689961   -2.477171
    131          1           0        3.273316   -3.096058   -4.311529
    132          7           0        5.358471   -4.575623   -1.200288
    133          6           0        6.763228   -4.576069   -0.813560
    134          6           0        7.460420   -3.226400   -0.926772
    135          8           0        8.157623   -2.837975    0.011543
    136          6           0        7.528438   -5.551190   -1.696788
    137          1           0        5.058207   -5.238019   -1.899482
    138          1           0        6.779229   -4.827521    0.249745
    139          1           0        6.979124   -6.478725   -1.837614
    140          1           0        7.589890   -5.101246   -2.685916
    141          1           0        8.442846   -5.751355   -1.131817
    142          7           0        7.196984   -2.404507   -1.942397
    143          6           0        7.860669   -1.143719   -2.198008
    144          6           0        7.339208   -0.069323   -1.260644
    145          8           0        8.012075    0.946124   -1.083677
    146          6           0        7.755406   -0.749078   -3.678000
    147          1           0        6.787053   -2.841322   -2.757289
    148          1           0        8.933182   -1.271191   -2.068143
    149          1           0        8.343789   -1.472717   -4.244701
    150          1           0        6.707651   -0.794738   -3.952819
    151          1           0        8.150538    0.235927   -3.938454
    152          7           0        6.149657   -0.233049   -0.680504
    153          6           0        5.625482    0.627616    0.354386
    154          6           0        6.170631    0.329757    1.747007
    155          8           0        6.154881    1.203151    2.606562
    156          6           0        4.102583    0.654455    0.473371
    157          6           0        3.426325    0.984080   -0.847130
    158          6           0        1.921502    0.823930   -0.725237
    159          8           0        1.425730   -0.286318   -0.430345
    160          8           0        1.150657    1.783852   -0.956206
    161          1           0        5.571567   -1.043360   -0.842080
    162          1           0        5.967937    1.652898    0.225853
    163          1           0        3.895948    1.337662    1.294303
    164          1           0        3.735417   -0.331119    0.764117
    165          1           0        3.807740    0.508490   -1.749591
    166          1           0        3.584668    2.049248   -1.049231
    167          7           0        6.645493   -0.892262    1.992114
    168          6           0        7.562764   -1.171324    3.071251
    169          1           0        8.539427   -1.427015    2.660295
    170          1           0        7.655495   -0.291358    3.706653
    171          1           0        7.187464   -2.008012    3.660169
    172          1           0        6.502779   -1.620534    1.304689
    173         20           0       -1.157980    0.365196   -1.383537
    174          8           0       -0.789874   -2.016083   -2.527394
    175          1           0       -0.463727   -2.895496   -2.333328
    176          1           0       -1.489960   -2.155703   -3.164564
 ---------------------------------------------------------------------

 SCF Done:  E(RB3LYP) =  -5333.60181222     A.U. after   19 cycles

 The electronic state is 1-A.
 Alpha  occ. eigenvalues -- -145.38326 -19.21773 -19.18325 -19.14789 -19.13977
 Alpha  occ. eigenvalues --  -19.12808 -19.12211 -19.11793 -19.11291 -19.11046
 Alpha  occ. eigenvalues --  -19.08974 -19.08762 -19.08048 -19.07625 -19.06551
 Alpha  occ. eigenvalues --  -19.06323 -19.06021 -19.04710 -19.04215 -19.02789
 Alpha  occ. eigenvalues --  -19.02659 -19.02510 -19.02294 -18.99796 -15.44032
 Alpha  occ. eigenvalues --  -14.57972 -14.40231 -14.39464 -14.37926 -14.37145
 Alpha  occ. eigenvalues --  -14.36838 -14.36810 -14.35067 -14.33489 -14.32868
 Alpha  occ. eigenvalues --  -14.31840 -14.30708 -14.29915 -14.29098 -14.28173
 Alpha  occ. eigenvalues --  -12.57651 -12.57623 -12.57587 -10.33587 -10.32281
 Alpha  occ. eigenvalues --  -10.31711 -10.30629 -10.30096 -10.29894 -10.29455
 Alpha  occ. eigenvalues --  -10.28049 -10.27938 -10.27383 -10.27242 -10.26792
 Alpha  occ. eigenvalues --  -10.26629 -10.26626 -10.26238 -10.25543 -10.24990
 Alpha  occ. eigenvalues --  -10.24563 -10.23578 -10.23482 -10.23478 -10.23366
 Alpha  occ. eigenvalues --  -10.23161 -10.23121 -10.23020 -10.23001 -10.22077
 Alpha  occ. eigenvalues --  -10.21853 -10.20996 -10.20969 -10.20816 -10.20769
 Alpha  occ. eigenvalues --  -10.20546 -10.20519 -10.19517 -10.19197 -10.19154
 Alpha  occ. eigenvalues --  -10.19108 -10.18807 -10.18696 -10.18674 -10.18526
 Alpha  occ. eigenvalues --  -10.18166 -10.18055 -10.17948 -10.17928 -10.17568
 Alpha  occ. eigenvalues --  -10.17478 -10.17338 -10.17137 -10.16724 -10.16034
 Alpha  occ. eigenvalues --  -10.15936 -10.12105  -1.80736  -1.13027  -1.08583
 Alpha  occ. eigenvalues --   -1.08130  -1.08069  -1.07536  -1.07143  -1.06487
 Alpha  occ. eigenvalues --   -1.05915  -1.05403  -1.04941  -1.04039  -1.03626
 Alpha  occ. eigenvalues --   -1.03332  -1.03119  -1.02146  -1.01211  -1.00086
 Alpha  occ. eigenvalues --   -0.99760  -0.99047  -0.97774  -0.97599  -0.96865
 Alpha  occ. eigenvalues --   -0.96333  -0.96018  -0.95851  -0.95198  -0.94563
 Alpha  occ. eigenvalues --   -0.93854  -0.93434  -0.92337  -0.92225  -0.91432
 Alpha  occ. eigenvalues --   -0.90084  -0.89811  -0.89134  -0.88173  -0.87782
 Alpha  occ. eigenvalues --   -0.87739  -0.86857  -0.86450  -0.85348  -0.84005
 Alpha  occ. eigenvalues --   -0.83539  -0.83393  -0.82125  -0.80796  -0.79964
 Alpha  occ. eigenvalues --   -0.79510  -0.79203  -0.78133  -0.76725  -0.76454
 Alpha  occ. eigenvalues --   -0.74647  -0.74440  -0.73486  -0.72779  -0.72632
 Alpha  occ. eigenvalues --   -0.72417  -0.71601  -0.71566  -0.71116  -0.70818
 Alpha  occ. eigenvalues --   -0.70710  -0.69728  -0.69439  -0.68443  -0.67255
 Alpha  occ. eigenvalues --   -0.67187  -0.67000  -0.65290  -0.65100  -0.64382
 Alpha  occ. eigenvalues --   -0.64244  -0.63211  -0.62968  -0.61956  -0.61750
 Alpha  occ. eigenvalues --   -0.61430  -0.61269  -0.61023  -0.60992  -0.60428
 Alpha  occ. eigenvalues --   -0.60076  -0.59836  -0.59464  -0.58125  -0.58019
 Alpha  occ. eigenvalues --   -0.57837  -0.56996  -0.56803  -0.56466  -0.56367
 Alpha  occ. eigenvalues --   -0.56249  -0.56036  -0.55989  -0.55457  -0.55178
 Alpha  occ. eigenvalues --   -0.55046  -0.54577  -0.54280  -0.53927  -0.53844
 Alpha  occ. eigenvalues --   -0.53255  -0.52754  -0.52032  -0.51370  -0.51328
 Alpha  occ. eigenvalues --   -0.51248  -0.50723  -0.50560  -0.50123  -0.50069
 Alpha  occ. eigenvalues --   -0.49299  -0.49086  -0.48932  -0.48874  -0.48510
 Alpha  occ. eigenvalues --   -0.48343  -0.48326  -0.48146  -0.48006  -0.47887
 Alpha  occ. eigenvalues --   -0.47746  -0.47626  -0.47522  -0.46945  -0.46745
 Alpha  occ. eigenvalues --   -0.46575  -0.46460  -0.46254  -0.46002  -0.45924
 Alpha  occ. eigenvalues --   -0.45630  -0.45527  -0.45134  -0.44968  -0.44881
 Alpha  occ. eigenvalues --   -0.44624  -0.44489  -0.44451  -0.44373  -0.43940
 Alpha  occ. eigenvalues --   -0.43806  -0.43601  -0.43428  -0.43390  -0.43083
 Alpha  occ. eigenvalues --   -0.42965  -0.42917  -0.42881  -0.42782  -0.42723
 Alpha  occ. eigenvalues --   -0.42340  -0.42077  -0.41876  -0.41589  -0.41538
 Alpha  occ. eigenvalues --   -0.41454  -0.41261  -0.41168  -0.41060  -0.40918
 Alpha  occ. eigenvalues --   -0.40769  -0.40556  -0.40373  -0.40289  -0.40031
 Alpha  occ. eigenvalues --   -0.39885  -0.39800  -0.39713  -0.39698  -0.39495
 Alpha  occ. eigenvalues --   -0.39460  -0.39288  -0.39065  -0.38910  -0.38782
 Alpha  occ. eigenvalues --   -0.38622  -0.38538  -0.38406  -0.38240  -0.38058
 Alpha  occ. eigenvalues --   -0.37871  -0.37680  -0.37634  -0.37452  -0.37349
 Alpha  occ. eigenvalues --   -0.37343  -0.37233  -0.37026  -0.36921  -0.36271
 Alpha  occ. eigenvalues --   -0.36260  -0.36043  -0.35890  -0.35819  -0.35522
 Alpha  occ. eigenvalues --   -0.35363  -0.35038  -0.34892  -0.34704  -0.34463
 Alpha  occ. eigenvalues --   -0.34441  -0.34301  -0.34065  -0.33750  -0.33622
 Alpha  occ. eigenvalues --   -0.33328  -0.33047  -0.32717  -0.32641  -0.32403
 Alpha  occ. eigenvalues --   -0.32224  -0.32001  -0.31807  -0.31381  -0.31292
 Alpha  occ. eigenvalues --   -0.31200  -0.30936  -0.30802  -0.30693  -0.30110
 Alpha  occ. eigenvalues --   -0.29692  -0.29486  -0.28936  -0.28733  -0.28294
 Alpha  occ. eigenvalues --   -0.28193  -0.28031  -0.27849  -0.27593  -0.26881
 Alpha  occ. eigenvalues --   -0.26705  -0.26491  -0.26046  -0.25685  -0.25125
 Alpha  occ. eigenvalues --   -0.24969  -0.24265  -0.24007  -0.23679  -0.23628
 Alpha  occ. eigenvalues --   -0.23481  -0.23404  -0.22857  -0.22121  -0.21557
 Alpha  occ. eigenvalues --   -0.21401  -0.21230  -0.21050  -0.20862  -0.20565
 Alpha  occ. eigenvalues --   -0.20191  -0.19619  -0.19566  -0.18654  -0.18420
 Alpha  occ. eigenvalues --   -0.18035  -0.17590  -0.16077
 Alpha virt. eigenvalues --   -0.09965  -0.04937  -0.03777  -0.03535  -0.03176
 Alpha virt. eigenvalues --   -0.02059  -0.01600  -0.00589  -0.00524  -0.00436
 Alpha virt. eigenvalues --   -0.00115   0.00282   0.00708   0.01178   0.02101

 Mulliken charges:
               1
     1  C    0.053207
     2  C    0.029969
     3  O   -0.305632
     4  H    0.050198
     5  H    0.039702
     6  H    0.009224
     7  N   -0.114090
     8  C    0.101238
     9  C    0.035659
    10  O   -0.294074
    11  C    0.099033
    12  C    0.153810
    13  O   -0.468732
    14  O   -0.384729
    15  H    0.115492
    16  H    0.002813
    17  H    0.021004
    18  H   -0.002397
    19  N   -0.112723
    20  C    0.177822
    21  C    0.055760
    22  O   -0.292641
    23  C   -0.003807
    24  C    0.042715
    25  C   -0.048226
    26  C    0.024900
    27  N    0.080032
    28  H    0.146391
    29  H   -0.015241
    30  H    0.001688
    31  H    0.039554
    32  H    0.042363
    33  H   -0.005712
    34  H    0.013106
    35  H    0.025510
    36  H    0.088062
    37  H    0.069162
    38  H    0.181273
    39  H    0.201098
    40  H    0.180051
    41  N   -0.176100
    42  C    0.141085
    43  C    0.040846
    44  O   -0.296587
    45  C    0.053953
    46  C    0.116570
    47  O   -0.382282
    48  O   -0.458796
    49  H    0.161085
    50  H    0.018410
    51  H   -0.013290
    52  H    0.013794
    53  N   -0.164662
    54  C    0.248874
    55  C    0.038620
    56  O   -0.298259
    57  H    0.145358
    58  H    0.009117
    59  H    0.015230
    60  N   -0.142639
    61  C    0.181443
    62  C    0.037077
    63  O   -0.281980
    64  C    0.066205
    65  C    0.033908
    66  N   -0.024925
    67  O   -0.338570
    68  H    0.145900
    69  H    0.030505
    70  H    0.080396
    71  H   -0.006225
    72  H    0.139782
    73  H    0.111842
    74  N   -0.166827
    75  C    0.208101
    76  C    0.066630
    77  O   -0.296924
    78  H    0.153928
    79  H    0.038526
    80  H    0.035539
    81  N   -0.134863
    82  C    0.089523
    83  C    0.121616
    84  O   -0.331883
    85  C    0.165854
    86  C    0.003875
    87  C   -0.004134
    88  C    0.044707
    89  C    0.017667
    90  C   -0.027147
    91  C    0.130879
    92  O   -0.196341
    93  H    0.142704
    94  H   -0.000534
    95  H   -0.026212
    96  H   -0.082495
    97  H   -0.089057
    98  H   -0.035848
    99  H   -0.024616
   100  H   -0.048792
   101  H    0.172205
   102  N   -0.139695
   103  C    0.119113
   104  C    0.055147
   105  O   -0.274124
   106  C   -0.074914
   107  C   -0.074065
   108  C    0.077821
   109  C    0.059967
   110  H    0.137021
   111  H    0.030837
   112  H   -0.032646
   113  H    0.016057
   114  H    0.009412
   115  H    0.019517
   116  H    0.019480
   117  H    0.017678
   118  H    0.004916
   119  H    0.000596
   120  H    0.013020
   121  N   -0.161558
   122  C    0.104858
   123  C    0.086689
   124  O   -0.294634
   125  C    0.235594
   126  O   -0.308163
   127  H    0.152137
   128  H    0.013194
   129  H   -0.008783
   130  H   -0.013026
   131  H    0.168313
   132  N   -0.104655
   133  C    0.082561
   134  C    0.041142
   135  O   -0.267332
   136  C    0.054909
   137  H    0.122432
   138  H    0.030306
   139  H    0.022641
   140  H    0.007451
   141  H    0.056734
   142  N   -0.121967
   143  C    0.091084
   144  C    0.075811
   145  O   -0.304665
   146  C    0.030833
   147  H    0.103987
   148  H    0.024547
   149  H    0.025657
   150  H    0.000583
   151  H    0.032744
   152  N   -0.133549
   153  C    0.119538
   154  C    0.043005
   155  O   -0.288923
   156  C   -0.030053
   157  C    0.119410
   158  C    0.113902
   159  O   -0.412579
   160  O   -0.380845
   161  H    0.137310
   162  H   -0.021518
   163  H    0.054402
   164  H    0.017617
   165  H   -0.022224
   166  H   -0.059564
   167  N   -0.156338
   168  C    0.129271
   169  H    0.024798
   170  H    0.032623
   171  H    0.012384
   172  H    0.133426
   173  Ca   1.295728
   174  O   -0.278058
   175  H    0.203457
   176  H    0.177624
 Sum of Mulliken charges =  -0.00000

 Dipole moment (field-independent basis, Debye):
    X=             38.1391    Y=             -7.2420    Z=            -13.6484  Tot=             41.1500
 Quadrupole moment (field-independent basis, Debye-Ang):
   XX=           -540.8270   YY=           -512.1169   ZZ=           -516.4264
   XY=            166.8511   XZ=            -74.1694   YZ=             10.6311

 ESP charges:
               1
     1  C   -0.428887
     2  C    0.795812
     3  O   -0.654751
     4  H    0.150765
     5  H    0.117736
     6  H    0.082729
     7  N   -0.755507
     8  C    0.302280
     9  C    0.544237
    10  O   -0.548002
    11  C   -0.331095
    12  C    0.894066
    13  O   -0.989031
    14  O   -0.715323
    15  H    0.357290
    16  H    0.017939
    17  H    0.102227
    18  H    0.066404
    19  N   -0.333603
    20  C   -0.141051
    21  C    0.578930
    22  O   -0.586043
    23  C   -0.177682
    24  C    0.185333
    25  C   -0.157148
    26  C    0.252996
    27  N   -0.347818
    28  H    0.393828
    29  H    0.092169
    30  H    0.080101
    31  H    0.063944
    32  H   -0.066341
    33  H    0.002390
    34  H    0.047012
    35  H    0.034411
    36  H    0.001133
    37  H    0.027126
    38  H    0.298967
    39  H    0.328153
    40  H    0.310296
    41  N   -0.376706
    42  C    0.138278
    43  C    0.319340
    44  O   -0.521557
    45  C   -0.278130
    46  C    0.838196
    47  O   -0.723648
    48  O   -0.864450
    49  H    0.375962
    50  H    0.094136
    51  H    0.053105
    52  H    0.061052
    53  N   -0.081697
    54  C   -0.109604
    55  C    0.570218
    56  O   -0.580345
    57  H    0.078545
    58  H    0.083686
    59  H    0.085806
    60  N   -0.322998
    61  C   -0.154717
    62  C    0.318818
    63  O   -0.487672
    64  C   -0.093619
    65  C    0.676672
    66  N   -0.810021
    67  O   -0.619903
    68  H    0.296964
    69  H    0.177942
    70  H    0.100314
    71  H    0.036428
    72  H    0.388774
    73  H    0.364638
    74  N    0.009543
    75  C   -0.436123
    76  C    0.792721
    77  O   -0.590463
    78  H    0.226877
    79  H    0.188685
    80  H    0.120515
    81  N   -0.625017
    82  C    0.149537
    83  C    0.657706
    84  O   -0.617887
    85  C    0.275131
    86  C   -0.301081
    87  C    0.026981
    88  C    0.002255
    89  C   -0.358700
    90  C   -0.310323
    91  C    0.393754
    92  O   -0.514735
    93  H    0.385871
    94  H    0.037881
    95  H   -0.037536
    96  H   -0.114219
    97  H    0.088616
    98  H    0.109021
    99  H    0.181985
   100  H    0.138070
   101  H    0.385883
   102  N   -0.781572
   103  C    0.190148
   104  C    0.518285
   105  O   -0.557393
   106  C    0.227176
   107  C    0.282563
   108  C   -0.447892
   109  C   -0.399441
   110  H    0.366701
   111  H    0.030021
   112  H   -0.049800
   113  H   -0.038174
   114  H   -0.006705
   115  H    0.135491
   116  H    0.106752
   117  H    0.057516
   118  H    0.081374
   119  H    0.070301
   120  H    0.106789
   121  N   -0.433371
   122  C    0.128893
   123  C    0.627794
   124  O   -0.550477
   125  C    0.242342
   126  O   -0.657071
   127  H    0.370316
   128  H    0.044786
   129  H    0.015360
   130  H   -0.037183
   131  H    0.412987
   132  N   -0.668141
   133  C    0.363144
   134  C    0.415120
   135  O   -0.536071
   136  C   -0.435896
   137  H    0.350355
   138  H    0.053672
   139  H    0.128543
   140  H    0.109312
   141  H    0.130179
   142  N   -0.304108
   143  C    0.092731
   144  C    0.361203
   145  O   -0.536844
   146  C   -0.347641
   147  H    0.222419
   148  H    0.104970
   149  H    0.103205
   150  H    0.079973
   151  H    0.129858
   152  N    0.057925
   153  C   -0.587641
   154  C    0.678118
   155  O   -0.597310
   156  C    0.507429
   157  C   -0.257399
   158  C    0.722969
   159  O   -0.770782
   160  O   -0.718845
   161  H    0.052345
   162  H    0.172016
   163  H   -0.010749
   164  H   -0.150333
   165  H    0.027696
   166  H    0.061000
   167  N   -0.249365
   168  C   -0.211152
   169  H    0.097789
   170  H    0.113369
   171  H    0.076967
   172  H    0.256230
   173  Ca   1.640390
   174  O   -0.825987
   175  H    0.437463
   176  H    0.410613
 Sum of ESP charges =   0.00000

 Normal termination of Gaussian 16 at Wed Sep 18 17:38:26 2019.
