 Gaussian 16, Revision A.03,
 Gaussian 16:  ES64L-G16RevA.03 25-Dec-2016

 ----------------------------------------------------------------------
 #b3lyp/svp scf=(tight,noincore) Test #IOP(5/87=12) Density=Current Pop
 =(MK,readradii) iop(6/33=2) iop(6/42=6)
 ----------------------------------------------------------------------

 ------------------
 holoCaM_loop3_37.0
 ------------------
 Symbolic Z-matrix:
 Charge =  0 Multiplicity = 1

                         Standard orientation:
 ---------------------------------------------------------------------
 Center     Atomic      Atomic             Coordinates (Angstroms)
 Number     Number       Type             X           Y           Z
 ---------------------------------------------------------------------
      1          6           0       -1.908290   -4.163091    5.176279
      2          6           0       -1.361407   -3.633282    3.864059
      3          8           0       -2.152223   -3.709030    2.934020
      4          1           0       -1.638633   -3.481610    5.983267
      5          1           0       -2.994081   -4.240269    5.113462
      6          1           0       -1.484537   -5.146666    5.376136
      7          7           0       -0.080186   -3.334496    3.619723
      8          6           0        0.529511   -2.973955    2.353358
      9          6           0        0.713301   -4.168420    1.419348
     10          8           0        1.379588   -5.148895    1.757032
     11          6           0        1.844120   -2.287086    2.684588
     12          6           0        2.774662   -2.041157    1.497739
     13          8           0        4.009346   -2.114002    1.655055
     14          8           0        2.207545   -1.842151    0.403173
     15          1           0        0.617100   -3.699601    4.256504
     16          1           0       -0.078689   -2.232874    1.846216
     17          1           0        2.405985   -2.894892    3.404782
     18          1           0        1.620323   -1.395564    3.270424
     19          7           0        0.110467   -4.136166    0.233578
     20          6           0        0.106520   -5.261906   -0.688970
     21          6           0        1.453366   -5.575048   -1.328069
     22          8           0        1.776662   -6.738828   -1.548288
     23          6           0       -0.923037   -5.155698   -1.804466
     24          6           0       -2.304170   -4.777722   -1.278154
     25          6           0       -2.979389   -5.676395   -0.248899
     26          6           0       -4.154636   -5.011039    0.469570
     27          7           0       -4.430214   -5.827952    1.656630
     28          1           0       -0.265259   -3.247440   -0.073172
     29          1           0       -0.072038   -6.142877   -0.076265
     30          1           0       -0.968413   -6.140523   -2.278765
     31          1           0       -0.521184   -4.451217   -2.526215
     32          1           0       -3.119718   -4.753563   -1.999610
     33          1           0       -2.366243   -3.788480   -0.819189
     34          1           0       -2.224168   -6.036667    0.452845
     35          1           0       -3.421555   -6.468939   -0.854674
     36          1           0       -4.966642   -4.971613   -0.259258
     37          1           0       -3.882960   -3.999976    0.767802
     38          1           0       -5.212469   -5.523267    2.223854
     39          1           0       -4.753442   -6.743670    1.381886
     40          1           0       -3.617145   -5.872865    2.252534
     41          7           0        2.210105   -4.511475   -1.583333
     42          6           0        3.308397   -4.501241   -2.526651
     43          6           0        4.651670   -4.211681   -1.865082
     44          8           0        5.666254   -4.264976   -2.559689
     45          6           0        3.065001   -3.575414   -3.723856
     46          6           0        2.424934   -2.312516   -3.179242
     47          8           0        3.005841   -1.200952   -3.121169
     48          8           0        1.225560   -2.367465   -2.838239
     49          1           0        1.893437   -3.629357   -1.197213
     50          1           0        3.323360   -5.503173   -2.939577
     51          1           0        2.352228   -4.150497   -4.307667
     52          1           0        3.949061   -3.494334   -4.352078
     53          7           0        4.722276   -3.957350   -0.558471
     54          6           0        5.972069   -3.918078    0.177378
     55          6           0        6.661601   -2.559550    0.080179
     56          8           0        7.747958   -2.296264    0.591070
     57          1           0        3.914169   -3.926969    0.052216
     58          1           0        6.658122   -4.670531   -0.196847
     59          1           0        5.855288   -4.065825    1.253080
     60          7           0        5.977695   -1.580289   -0.512629
     61          6           0        6.520139   -0.283216   -0.861995
     62          6           0        6.499687    0.808632    0.195668
     63          8           0        7.052145    1.910624    0.098180
     64          6           0        5.758782    0.169822   -2.107022
     65          6           0        4.493882    1.007273   -1.943301
     66          7           0        4.204301    1.978846   -2.810243
     67          8           0        3.715994    0.775577   -1.019880
     68          1           0        4.970772   -1.610229   -0.502136
     69          1           0        7.602469   -0.316398   -1.021247
     70          1           0        5.438586   -0.691041   -2.687186
     71          1           0        6.489901    0.773772   -2.634666
     72          1           0        4.937476    2.159696   -3.480652
     73          1           0        3.389088    2.528433   -2.619764
     74          7           0        5.803816    0.569155    1.305133
     75          6           0        5.745365    1.403620    2.489722
     76          6           0        4.627155    2.426066    2.428811
     77          8           0        4.708576    3.427627    3.131410
     78          1           0        5.258760   -0.282881    1.272747
     79          1           0        6.649913    1.909265    2.818384
     80          1           0        5.492153    0.722912    3.304965
     81          7           0        3.564816    2.312820    1.629804
     82          6           0        2.566773    3.340640    1.393591
     83          6           0        1.247508    2.610122    1.186751
     84          8           0        1.211881    1.646530    0.422015
     85          6           0        2.885042    4.114191    0.110109
     86          6           0        4.061440    5.065883    0.123116
     87          6           0        5.306261    4.757641   -0.419201
     88          6           0        3.888999    6.261550    0.834483
     89          6           0        6.408104    5.631501   -0.453983
     90          6           0        4.938129    7.184723    0.713738
     91          6           0        6.175949    6.904854    0.104744
     92          8           0        7.142826    7.848211   -0.027272
     93          1           0        3.588161    1.496449    1.035503
     94          1           0        2.476642    4.007640    2.243289
     95          1           0        2.003788    4.691368   -0.135161
     96          1           0        2.972949    3.406643   -0.716117
     97          1           0        5.532432    3.819138   -0.911297
     98          1           0        2.940115    6.460876    1.293382
     99          1           0        7.317523    5.287601   -0.919268
    100          1           0        4.854088    8.143174    1.206899
    101          1           0        7.047000    8.714826    0.378556
    102          7           0        0.173979    3.256503    1.643508
    103          6           0       -1.200063    2.809267    1.562965
    104          6           0       -1.925438    3.771308    0.629740
    105          8           0       -1.815597    4.986353    0.770808
    106          6           0       -1.812881    2.704397    2.963949
    107          6           0       -1.187310    1.614888    3.829415
    108          6           0       -3.323435    2.553471    2.875353
    109          6           0       -1.547357    0.150817    3.622147
    110          1           0        0.373878    4.035431    2.253927
    111          1           0       -1.272495    1.832283    1.078346
    112          1           0       -1.668848    3.590352    3.579285
    113          1           0       -1.465851    1.713816    4.877093
    114          1           0       -0.097331    1.622737    3.758809
    115          1           0       -3.771127    3.469069    2.467614
    116          1           0       -3.638542    1.653977    2.339706
    117          1           0       -3.776135    2.220523    3.799533
    118          1           0       -2.599693   -0.033243    3.847779
    119          1           0       -1.375783   -0.165023    2.602879
    120          1           0       -1.034462   -0.446070    4.382124
    121          7           0       -2.544425    3.130972   -0.356123
    122          6           0       -3.403437    3.784010   -1.328820
    123          6           0       -4.841547    3.368667   -1.062120
    124          8           0       -5.063032    2.543462   -0.178219
    125          6           0       -2.866008    3.614999   -2.749949
    126          8           0       -2.767410    2.248251   -3.077938
    127          1           0       -2.499390    2.127406   -0.432459
    128          1           0       -3.342263    4.851133   -1.124109
    129          1           0       -1.881758    4.053229   -2.875273
    130          1           0       -3.484857    4.128535   -3.489277
    131          1           0       -2.234274    1.798540   -2.423931
    132          7           0       -5.813057    3.893273   -1.798704
    133          6           0       -7.240764    3.914399   -1.518336
    134          6           0       -7.724886    2.522227   -1.161570
    135          8           0       -8.382329    2.284937   -0.151192
    136          6           0       -8.022144    4.544860   -2.663265
    137          1           0       -5.637167    4.453932   -2.628418
    138          1           0       -7.393174    4.563206   -0.654843
    139          1           0       -7.547651    5.473614   -3.007754
    140          1           0       -8.031838    3.914482   -3.552888
    141          1           0       -9.059585    4.723101   -2.385510
    142          7           0       -7.525271    1.591799   -2.110864
    143          6           0       -7.963104    0.221616   -2.052549
    144          6           0       -7.369367   -0.634431   -0.935921
    145          8           0       -8.066462   -1.472553   -0.375019
    146          6           0       -7.725590   -0.502947   -3.371145
    147          1           0       -6.928922    1.865755   -2.884760
    148          1           0       -9.035540    0.172288   -1.855960
    149          1           0       -6.657870   -0.720267   -3.389755
    150          1           0       -8.377014   -1.363443   -3.227992
    151          1           0       -7.959701    0.099485   -4.257016
    152          7           0       -6.111677   -0.361184   -0.566259
    153          6           0       -5.347941   -0.844987    0.561944
    154          6           0       -5.845353   -0.340601    1.910119
    155          8           0       -5.721101   -1.105809    2.853739
    156          6           0       -3.865904   -0.557195    0.296345
    157          6           0       -3.293981   -0.828486   -1.089442
    158          6           0       -1.805930   -0.520889   -1.026299
    159          8           0       -0.979732   -1.362383   -0.595273
    160          8           0       -1.445907    0.604744   -1.424967
    161          1           0       -5.664785    0.400826   -1.052292
    162          1           0       -5.508406   -1.906250    0.728591
    163          1           0       -3.385571   -1.205634    1.015307
    164          1           0       -3.490602    0.428937    0.565589
    165          1           0       -3.752942   -0.184795   -1.848663
    166          1           0       -3.556144   -1.805912   -1.503337
    167          7           0       -6.401090    0.873490    1.973686
    168          6           0       -7.105487    1.440377    3.107733
    169          1           0       -6.462323    1.409333    3.987134
    170          1           0       -7.372611    2.474921    2.890624
    171          1           0       -8.010283    0.863569    3.300273
    172          1           0       -6.241013    1.532157    1.230831
    173         20           0        1.289590   -0.194158   -1.480727
    174          8           0        1.246544    2.208446   -2.710947
    175          1           0        0.950139    3.073651   -2.458631
    176          1           0        1.005174    2.127563   -3.631870
 ---------------------------------------------------------------------

 SCF Done:  E(RB3LYP) =  -5333.63202081     A.U. after   16 cycles

 The electronic state is 1-A.
 Alpha  occ. eigenvalues -- -145.37084 -19.20804 -19.14969 -19.14410 -19.13494
 Alpha  occ. eigenvalues --  -19.12609 -19.12363 -19.11575 -19.11414 -19.11352
 Alpha  occ. eigenvalues --  -19.10453 -19.10376 -19.10291 -19.09276 -19.08070
 Alpha  occ. eigenvalues --  -19.06664 -19.06278 -19.06209 -19.05883 -19.05814
 Alpha  occ. eigenvalues --  -19.05329 -19.05086 -19.04698 -19.04566 -15.42842
 Alpha  occ. eigenvalues --  -14.55116 -14.40776 -14.38524 -14.37918 -14.37390
 Alpha  occ. eigenvalues --  -14.36478 -14.36190 -14.35665 -14.34290 -14.33509
 Alpha  occ. eigenvalues --  -14.32282 -14.31620 -14.31406 -14.31226 -14.29998
 Alpha  occ. eigenvalues --  -12.56461 -12.56418 -12.56401 -10.33457 -10.31478
 Alpha  occ. eigenvalues --  -10.31189 -10.30533 -10.30378 -10.29915 -10.29661
 Alpha  occ. eigenvalues --  -10.29157 -10.29123 -10.27676 -10.27582 -10.26883
 Alpha  occ. eigenvalues --  -10.26521 -10.26330 -10.25387 -10.25132 -10.25075
 Alpha  occ. eigenvalues --  -10.24877 -10.24704 -10.24536 -10.24411 -10.24311
 Alpha  occ. eigenvalues --  -10.24136 -10.24043 -10.23827 -10.23686 -10.23367
 Alpha  occ. eigenvalues --  -10.23355 -10.22250 -10.21667 -10.21585 -10.21579
 Alpha  occ. eigenvalues --  -10.21518 -10.21265 -10.20679 -10.20605 -10.20597
 Alpha  occ. eigenvalues --  -10.20196 -10.20130 -10.20095 -10.19716 -10.18977
 Alpha  occ. eigenvalues --  -10.18645 -10.18467 -10.18306 -10.17910 -10.17840
 Alpha  occ. eigenvalues --  -10.17633 -10.17422 -10.17303 -10.16898 -10.16764
 Alpha  occ. eigenvalues --  -10.16729 -10.16064  -1.79731  -1.10379  -1.08273
 Alpha  occ. eigenvalues --   -1.07774  -1.07415  -1.07354  -1.06598  -1.05434
 Alpha  occ. eigenvalues --   -1.05289  -1.05211  -1.04787  -1.04176  -1.03469
 Alpha  occ. eigenvalues --   -1.03379  -1.02899  -1.02577  -1.02159  -1.01544
 Alpha  occ. eigenvalues --   -1.01212  -0.99770  -0.99576  -0.99416  -0.98764
 Alpha  occ. eigenvalues --   -0.98322  -0.97742  -0.97425  -0.95316  -0.95174
 Alpha  occ. eigenvalues --   -0.94831  -0.94483  -0.93319  -0.92918  -0.90997
 Alpha  occ. eigenvalues --   -0.90753  -0.90700  -0.90526  -0.90246  -0.89380
 Alpha  occ. eigenvalues --   -0.89025  -0.88395  -0.87469  -0.86435  -0.86083
 Alpha  occ. eigenvalues --   -0.83489  -0.83226  -0.82689  -0.81039  -0.79652
 Alpha  occ. eigenvalues --   -0.79544  -0.78765  -0.77867  -0.77777  -0.76109
 Alpha  occ. eigenvalues --   -0.75609  -0.75041  -0.74287  -0.74167  -0.73192
 Alpha  occ. eigenvalues --   -0.72979  -0.72264  -0.71408  -0.70669  -0.70258
 Alpha  occ. eigenvalues --   -0.70055  -0.69807  -0.69279  -0.68943  -0.68542
 Alpha  occ. eigenvalues --   -0.67108  -0.66476  -0.65895  -0.65560  -0.64889
 Alpha  occ. eigenvalues --   -0.64576  -0.64072  -0.63351  -0.62821  -0.62078
 Alpha  occ. eigenvalues --   -0.61748  -0.61233  -0.60968  -0.60794  -0.60497
 Alpha  occ. eigenvalues --   -0.60181  -0.59602  -0.58653  -0.58365  -0.58293
 Alpha  occ. eigenvalues --   -0.58142  -0.57732  -0.57621  -0.57321  -0.56488
 Alpha  occ. eigenvalues --   -0.56446  -0.56247  -0.56008  -0.55838  -0.55493
 Alpha  occ. eigenvalues --   -0.54565  -0.54479  -0.54232  -0.54027  -0.53961
 Alpha  occ. eigenvalues --   -0.53744  -0.53488  -0.53315  -0.52301  -0.52129
 Alpha  occ. eigenvalues --   -0.51938  -0.51453  -0.51085  -0.50658  -0.50555
 Alpha  occ. eigenvalues --   -0.50115  -0.49912  -0.49454  -0.49402  -0.49213
 Alpha  occ. eigenvalues --   -0.49067  -0.48588  -0.48402  -0.48249  -0.48180
 Alpha  occ. eigenvalues --   -0.47661  -0.47602  -0.47284  -0.47160  -0.46997
 Alpha  occ. eigenvalues --   -0.46829  -0.46719  -0.46700  -0.46514  -0.46409
 Alpha  occ. eigenvalues --   -0.46004  -0.45943  -0.45883  -0.45675  -0.45521
 Alpha  occ. eigenvalues --   -0.45378  -0.45241  -0.45098  -0.44841  -0.44819
 Alpha  occ. eigenvalues --   -0.44247  -0.44214  -0.43963  -0.43848  -0.43763
 Alpha  occ. eigenvalues --   -0.43421  -0.43318  -0.43126  -0.43070  -0.42888
 Alpha  occ. eigenvalues --   -0.42675  -0.42559  -0.42519  -0.42373  -0.42091
 Alpha  occ. eigenvalues --   -0.41993  -0.41919  -0.41719  -0.41606  -0.41493
 Alpha  occ. eigenvalues --   -0.41372  -0.41242  -0.41146  -0.41090  -0.40965
 Alpha  occ. eigenvalues --   -0.40696  -0.40667  -0.40566  -0.40387  -0.40276
 Alpha  occ. eigenvalues --   -0.40203  -0.40137  -0.40102  -0.40067  -0.39466
 Alpha  occ. eigenvalues --   -0.39310  -0.39131  -0.39115  -0.38915  -0.38852
 Alpha  occ. eigenvalues --   -0.38641  -0.38588  -0.38529  -0.38460  -0.38124
 Alpha  occ. eigenvalues --   -0.37975  -0.37828  -0.37714  -0.37409  -0.37120
 Alpha  occ. eigenvalues --   -0.36997  -0.36894  -0.36591  -0.36341  -0.36313
 Alpha  occ. eigenvalues --   -0.36228  -0.35822  -0.35708  -0.35539  -0.35444
 Alpha  occ. eigenvalues --   -0.35177  -0.35035  -0.34863  -0.34726  -0.34560
 Alpha  occ. eigenvalues --   -0.34530  -0.33834  -0.33663  -0.33331  -0.33302
 Alpha  occ. eigenvalues --   -0.33092  -0.32965  -0.32643  -0.32508  -0.32271
 Alpha  occ. eigenvalues --   -0.32119  -0.31803  -0.31556  -0.31257  -0.31145
 Alpha  occ. eigenvalues --   -0.30035  -0.29685  -0.29261  -0.29105  -0.28858
 Alpha  occ. eigenvalues --   -0.28682  -0.28560  -0.28372  -0.28018  -0.27885
 Alpha  occ. eigenvalues --   -0.27730  -0.26915  -0.26653  -0.26509  -0.26156
 Alpha  occ. eigenvalues --   -0.25981  -0.25741  -0.25687  -0.25126  -0.24636
 Alpha  occ. eigenvalues --   -0.24381  -0.24348  -0.24043  -0.23775  -0.23631
 Alpha  occ. eigenvalues --   -0.23436  -0.23345  -0.23069  -0.22881  -0.22384
 Alpha  occ. eigenvalues --   -0.21843  -0.21624  -0.20870  -0.20535  -0.20330
 Alpha  occ. eigenvalues --   -0.20207  -0.20009  -0.19140
 Alpha virt. eigenvalues --   -0.06996  -0.03461  -0.02940  -0.01764  -0.01558
 Alpha virt. eigenvalues --   -0.01413  -0.01055  -0.00451  -0.00011   0.00189
 Alpha virt. eigenvalues --    0.00547   0.00745   0.01200   0.01498   0.01688

 Mulliken charges:
               1
     1  C    0.052294
     2  C    0.040270
     3  O   -0.336093
     4  H    0.030604
     5  H    0.016345
     6  H    0.039949
     7  N   -0.115952
     8  C    0.144248
     9  C    0.038241
    10  O   -0.289508
    11  C    0.046248
    12  C    0.156161
    13  O   -0.371168
    14  O   -0.461660
    15  H    0.124470
    16  H    0.003861
    17  H   -0.008047
    18  H    0.009499
    19  N   -0.147204
    20  C    0.083801
    21  C    0.048093
    22  O   -0.273843
    23  C    0.125036
    24  C    0.018479
    25  C   -0.086038
    26  C    0.033065
    27  N    0.086332
    28  H    0.166516
    29  H   -0.013187
    30  H    0.006222
    31  H    0.027730
    32  H   -0.016607
    33  H    0.018480
    34  H    0.031957
    35  H    0.010806
    36  H    0.072797
    37  H    0.110269
    38  H    0.183569
    39  H    0.173564
    40  H    0.189149
    41  N   -0.157282
    42  C    0.044623
    43  C    0.085652
    44  O   -0.291265
    45  C    0.203869
    46  C    0.073769
    47  O   -0.420208
    48  O   -0.441126
    49  H    0.158048
    50  H    0.022178
    51  H   -0.017043
    52  H    0.014186
    53  N   -0.149575
    54  C    0.241498
    55  C    0.025325
    56  O   -0.293082
    57  H    0.143638
    58  H    0.024195
    59  H    0.036046
    60  N   -0.152475
    61  C    0.128237
    62  C    0.034603
    63  O   -0.297644
    64  C    0.108507
    65  C    0.057195
    66  N   -0.012853
    67  O   -0.376028
    68  H    0.139828
    69  H    0.034653
    70  H    0.070392
    71  H   -0.008119
    72  H    0.129366
    73  H    0.102214
    74  N   -0.159195
    75  C    0.266825
    76  C   -0.008945
    77  O   -0.302954
    78  H    0.142048
    79  H    0.036701
    80  H    0.021539
    81  N   -0.147727
    82  C    0.152617
    83  C    0.102401
    84  O   -0.355682
    85  C    0.157719
    86  C    0.005736
    87  C   -0.000043
    88  C    0.021274
    89  C   -0.030124
    90  C   -0.029597
    91  C    0.189015
    92  O   -0.214496
    93  H    0.147855
    94  H   -0.008934
    95  H   -0.030016
    96  H   -0.051187
    97  H   -0.038839
    98  H   -0.043673
    99  H   -0.021107
   100  H   -0.052985
   101  H    0.174621
   102  N   -0.099417
   103  C    0.142766
   104  C    0.066878
   105  O   -0.275637
   106  C   -0.051472
   107  C    0.014781
   108  C    0.058134
   109  C   -0.034076
   110  H    0.133980
   111  H    0.003536
   112  H   -0.006590
   113  H   -0.003781
   114  H   -0.004217
   115  H    0.028652
   116  H   -0.004159
   117  H   -0.004086
   118  H    0.008009
   119  H    0.037724
   120  H    0.009047
   121  N   -0.147152
   122  C    0.055476
   123  C    0.113998
   124  O   -0.280643
   125  C    0.277173
   126  O   -0.338762
   127  H    0.145601
   128  H    0.025385
   129  H   -0.022118
   130  H   -0.016625
   131  H    0.162178
   132  N   -0.123249
   133  C    0.064210
   134  C    0.074184
   135  O   -0.247981
   136  C    0.043595
   137  H    0.118243
   138  H    0.019428
   139  H    0.025083
   140  H    0.006579
   141  H    0.053633
   142  N   -0.134086
   143  C    0.061060
   144  C    0.043394
   145  O   -0.268165
   146  C    0.051161
   147  H    0.111601
   148  H    0.021579
   149  H    0.009166
   150  H    0.043707
   151  H    0.022119
   152  N   -0.141205
   153  C    0.166645
   154  C    0.062286
   155  O   -0.286803
   156  C   -0.055981
   157  C    0.101346
   158  C    0.162094
   159  O   -0.387398
   160  O   -0.436621
   161  H    0.127170
   162  H   -0.026331
   163  H    0.032237
   164  H    0.008205
   165  H   -0.023287
   166  H   -0.016004
   167  N   -0.167196
   168  C    0.140991
   169  H    0.016775
   170  H    0.020291
   171  H    0.028675
   172  H    0.142702
   173  Ca   1.269842
   174  O   -0.256961
   175  H    0.185999
   176  H    0.189767
 Sum of Mulliken charges =  -0.00000

 Dipole moment (field-independent basis, Debye):
    X=            -30.0432    Y=              2.5079    Z=             -3.0934  Tot=             30.3060
 Quadrupole moment (field-independent basis, Debye-Ang):
   XX=           -649.6876   YY=           -481.9077   ZZ=           -517.3587
   XY=             82.7565   XZ=             13.1854   YZ=            -80.1668

 ESP charges:
               1
     1  C   -0.411215
     2  C    0.765767
     3  O   -0.651481
     4  H    0.105352
     5  H    0.118448
     6  H    0.112789
     7  N   -0.684561
     8  C    0.155213
     9  C    0.672234
    10  O   -0.592289
    11  C   -0.289238
    12  C    0.815922
    13  O   -0.649458
    14  O   -0.872621
    15  H    0.352017
    16  H    0.059741
    17  H    0.059200
    18  H    0.083256
    19  N   -0.484270
    20  C    0.308841
    21  C    0.474450
    22  O   -0.568961
    23  C   -0.346675
    24  C    0.132608
    25  C   -0.269435
    26  C    0.192002
    27  N   -0.689271
    28  H    0.278238
    29  H   -0.009848
    30  H    0.104572
    31  H    0.114601
    32  H    0.021327
    33  H   -0.033475
    34  H    0.090260
    35  H    0.073254
    36  H    0.096489
    37  H    0.122970
    38  H    0.405208
    39  H    0.388006
    40  H    0.420029
    41  N   -0.365037
    42  C    0.147667
    43  C    0.339201
    44  O   -0.517591
    45  C   -0.275337
    46  C    0.765431
    47  O   -0.746732
    48  O   -0.767797
    49  H    0.268539
    50  H    0.096147
    51  H    0.082821
    52  H    0.092722
    53  N   -0.154441
    54  C   -0.293941
    55  C    0.571383
    56  O   -0.574373
    57  H    0.207371
    58  H    0.142610
    59  H    0.152930
    60  N   -0.256998
    61  C    0.023583
    62  C    0.322951
    63  O   -0.502509
    64  C   -0.351566
    65  C    0.722658
    66  N   -0.790293
    67  O   -0.476153
    68  H    0.199163
    69  H    0.130050
    70  H    0.140372
    71  H    0.085865
    72  H    0.358983
    73  H    0.375836
    74  N   -0.002186
    75  C   -0.317189
    76  C    0.752559
    77  O   -0.598106
    78  H    0.140746
    79  H    0.156783
    80  H    0.103019
    81  N   -0.718962
    82  C    0.246200
    83  C    0.757920
    84  O   -0.678826
    85  C    0.340831
    86  C   -0.437379
    87  C    0.122225
    88  C    0.233571
    89  C   -0.376851
    90  C   -0.536545
    91  C    0.579374
    92  O   -0.622390
    93  H    0.292213
    94  H    0.007987
    95  H   -0.073294
    96  H   -0.090148
    97  H    0.049998
    98  H    0.039421
    99  H    0.188229
   100  H    0.156935
   101  H    0.431226
   102  N   -0.737622
   103  C   -0.020039
   104  C    0.602697
   105  O   -0.547493
   106  C    0.222202
   107  C   -0.168460
   108  C   -0.420977
   109  C    0.211420
   110  H    0.349451
   111  H    0.147283
   112  H    0.018569
   113  H    0.030555
   114  H    0.005653
   115  H    0.088960
   116  H    0.132562
   117  H    0.104703
   118  H   -0.048788
   119  H   -0.024719
   120  H   -0.009347
   121  N   -0.252020
   122  C   -0.315512
   123  C    0.688716
   124  O   -0.466355
   125  C    0.271892
   126  O   -0.641425
   127  H    0.262954
   128  H    0.109008
   129  H    0.005819
   130  H    0.028831
   131  H    0.419191
   132  N   -0.567866
   133  C    0.214493
   134  C    0.519998
   135  O   -0.527341
   136  C   -0.284730
   137  H    0.309420
   138  H    0.041686
   139  H    0.087679
   140  H    0.068186
   141  H    0.112164
   142  N   -0.549753
   143  C    0.341163
   144  C    0.357764
   145  O   -0.519320
   146  C   -0.414251
   147  H    0.296481
   148  H    0.044907
   149  H    0.099778
   150  H    0.124227
   151  H    0.112810
   152  N   -0.317087
   153  C    0.203515
   154  C    0.528583
   155  O   -0.566902
   156  C   -0.154230
   157  C    0.049085
   158  C    0.734665
   159  O   -0.666249
   160  O   -0.806982
   161  H    0.188104
   162  H   -0.042527
   163  H    0.044359
   164  H   -0.063595
   165  H    0.003709
   166  H   -0.040450
   167  N   -0.142175
   168  C   -0.227952
   169  H    0.074426
   170  H    0.104292
   171  H    0.110302
   172  H    0.148100
   173  Ca   1.618784
   174  O   -0.817564
   175  H    0.426398
   176  H    0.425315
 Sum of ESP charges =  -0.00000

 Normal termination of Gaussian 16 at Wed Sep 18 17:58:55 2019.
