 Gaussian 16, Revision A.03,
 Gaussian 16:  ES64L-G16RevA.03 25-Dec-2016

 ----------------------------------------------------------------------
 #b3lyp/svp scf=(tight,noincore) Test #IOP(5/87=12) Density=Current Pop
 =(MK,readradii) iop(6/33=2) iop(6/42=6)
 ----------------------------------------------------------------------

 ------------------
 holoCaM_loop3_64.0
 ------------------
 Symbolic Z-matrix:
 Charge =  0 Multiplicity = 1

                         Standard orientation:
 ---------------------------------------------------------------------
 Center     Atomic      Atomic             Coordinates (Angstroms)
 Number     Number       Type             X           Y           Z
 ---------------------------------------------------------------------
      1          6           0        1.873590    3.356552    6.408864
      2          6           0        1.784554    2.923434    4.958250
      3          8           0        2.783618    2.439514    4.433949
      4          1           0        2.288277    4.363638    6.461870
      5          1           0        0.877421    3.350125    6.852337
      6          1           0        2.519933    2.669457    6.955415
      7          7           0        0.637306    3.012619    4.273656
      8          6           0        0.455409    2.825608    2.847704
      9          6           0        0.588236    4.113333    2.037382
     10          8           0        0.146169    5.160117    2.488625
     11          6           0       -0.953433    2.238952    2.837728
     12          6           0       -1.507867    1.881151    1.466057
     13          8           0       -1.160404    2.526332    0.451606
     14          8           0       -1.993370    0.754455    1.263467
     15          1           0       -0.213868    3.198989    4.788310
     16          1           0        1.169493    2.097454    2.471172
     17          1           0       -1.668294    2.991045    3.179241
     18          1           0       -1.107699    1.372641    3.465428
     19          7           0        1.307979    4.114454    0.908503
     20          6           0        1.584328    5.221270    0.031297
     21          6           0        0.304315    5.774491   -0.581576
     22          8           0        0.318412    6.958018   -0.920786
     23          6           0        2.462518    4.716852   -1.112575
     24          6           0        3.201653    5.905897   -1.712533
     25          6           0        4.442638    5.334975   -2.395909
     26          6           0        5.075479    6.302649   -3.384706
     27          7           0        5.690447    7.410941   -2.640729
     28          1           0        1.525188    3.211658    0.509277
     29          1           0        2.057322    6.001524    0.631281
     30          1           0        1.877499    4.249142   -1.916193
     31          1           0        3.245659    4.070135   -0.723928
     32          1           0        3.497088    6.596739   -0.921296
     33          1           0        2.591126    6.450891   -2.422982
     34          1           0        4.254856    4.407656   -2.939984
     35          1           0        5.181521    5.162709   -1.604848
     36          1           0        4.301651    6.643937   -4.068016
     37          1           0        5.750080    5.833505   -4.114445
     38          1           0        4.990432    8.075899   -2.359109
     39          1           0        6.139945    7.089522   -1.799574
     40          1           0        6.263421    7.901267   -3.320568
     41          7           0       -0.778522    5.025872   -0.829435
     42          6           0       -2.020929    5.413967   -1.453221
     43          6           0       -3.271213    5.227446   -0.593512
     44          8           0       -4.325021    5.798795   -0.847773
     45          6           0       -2.188926    4.613057   -2.742298
     46          6           0       -1.867982    3.129012   -2.675918
     47          8           0       -0.824881    2.580105   -3.091420
     48          8           0       -2.771371    2.434659   -2.136788
     49          1           0       -0.560440    4.042098   -0.770031
     50          1           0       -1.904688    6.444896   -1.770509
     51          1           0       -1.531868    5.028422   -3.500945
     52          1           0       -3.210250    4.639202   -3.138674
     53          7           0       -3.145036    4.551229    0.543419
     54          6           0       -4.273454    4.272992    1.414829
     55          6           0       -5.431954    3.533779    0.763873
     56          8           0       -6.522524    3.765384    1.271925
     57          1           0       -2.188873    4.423264    0.863070
     58          1           0       -4.711996    5.224529    1.706648
     59          1           0       -3.929082    3.703375    2.277118
     60          7           0       -5.161435    2.641341   -0.194862
     61          6           0       -6.221609    1.871770   -0.817351
     62          6           0       -6.616508    0.550921   -0.152361
     63          8           0       -7.272051   -0.210253   -0.863753
     64          6           0       -5.606868    1.571048   -2.175939
     65          6           0       -4.647611    0.384615   -2.177278
     66          7           0       -4.841817   -0.521125   -3.143363
     67          8           0       -3.847739    0.058523   -1.304255
     68          1           0       -4.215720    2.527838   -0.533300
     69          1           0       -7.080698    2.532477   -0.946314
     70          1           0       -5.158487    2.486000   -2.562743
     71          1           0       -6.458643    1.251025   -2.761314
     72          1           0       -5.600059   -0.353042   -3.791219
     73          1           0       -4.195058   -1.293203   -3.197191
     74          7           0       -6.189415    0.242474    1.075096
     75          6           0       -6.500348   -1.018546    1.710589
     76          6           0       -5.679188   -2.290951    1.507908
     77          8           0       -5.954494   -3.307967    2.129507
     78          1           0       -5.411469    0.777648    1.449380
     79          1           0       -7.469257   -1.306793    1.303736
     80          1           0       -6.690426   -0.793861    2.750775
     81          7           0       -4.591322   -2.226824    0.730904
     82          6           0       -3.560576   -3.235404    0.703923
     83          6           0       -2.163865   -2.654483    0.538913
     84          8           0       -1.910561   -1.804442   -0.307709
     85          6           0       -3.916713   -4.219910   -0.398082
     86          6           0       -5.304832   -4.799162   -0.412023
     87          6           0       -6.228607   -4.295958   -1.349693
     88          6           0       -5.616853   -5.890926    0.407729
     89          6           0       -7.420209   -4.981591   -1.569217
     90          6           0       -6.864748   -6.504233    0.256029
     91          6           0       -7.740665   -6.107111   -0.780920
     92          8           0       -8.881419   -6.819218   -1.011102
     93          1           0       -4.495045   -1.407693    0.140773
     94          1           0       -3.561844   -3.819717    1.623801
     95          1           0       -3.267850   -5.074839   -0.217322
     96          1           0       -3.735956   -3.777406   -1.376048
     97          1           0       -6.077781   -3.450177   -2.008485
     98          1           0       -4.872772   -6.341106    1.060095
     99          1           0       -8.154440   -4.631770   -2.281840
    100          1           0       -7.055827   -7.428826    0.759037
    101          1           0       -8.975293   -7.585901   -0.436572
    102          7           0       -1.268953   -3.144694    1.400438
    103          6           0        0.144050   -2.844608    1.325793
    104          6           0        0.802067   -3.869326    0.405105
    105          8           0        0.710815   -5.074170    0.654354
    106          6           0        0.748601   -2.748396    2.723134
    107          6           0        0.111643   -1.559416    3.430106
    108          6           0        2.278002   -2.796348    2.707828
    109          6           0        0.815842   -1.150141    4.722273
    110          1           0       -1.560154   -3.802615    2.105094
    111          1           0        0.251010   -1.866614    0.861155
    112          1           0        0.491429   -3.678213    3.224037
    113          1           0       -0.907916   -1.854125    3.679601
    114          1           0        0.021776   -0.669076    2.807114
    115          1           0        2.580663   -3.689737    2.167501
    116          1           0        2.666513   -1.915838    2.196006
    117          1           0        2.660495   -2.764793    3.731792
    118          1           0        0.291443   -0.448560    5.384836
    119          1           0        0.943975   -2.054183    5.317916
    120          1           0        1.777330   -0.705690    4.499328
    121          7           0        1.648678   -3.445053   -0.531560
    122          6           0        2.524352   -4.228890   -1.378079
    123          6           0        3.974573   -4.154024   -0.922167
    124          8           0        4.370806   -3.397973   -0.037189
    125          6           0        2.305380   -3.683944   -2.791156
    126          8           0        2.624985   -2.319398   -2.910599
    127          1           0        1.792517   -2.446805   -0.589099
    128          1           0        2.299400   -5.293598   -1.364173
    129          1           0        1.311671   -3.849377   -3.199171
    130          1           0        2.965734   -4.278836   -3.426637
    131          1           0        1.768116   -1.916904   -2.753518
    132          7           0        4.815121   -5.038927   -1.460058
    133          6           0        6.155998   -5.249423   -0.948355
    134          6           0        6.979660   -3.976783   -0.799135
    135          8           0        7.662306   -3.793561    0.210481
    136          6           0        6.788332   -6.232639   -1.925770
    137          1           0        4.415914   -5.694131   -2.121830
    138          1           0        6.121340   -5.672018    0.048546
    139          1           0        7.818988   -6.343185   -1.612997
    140          1           0        6.228614   -7.163706   -1.898749
    141          1           0        6.846754   -5.900941   -2.968202
    142          7           0        6.994019   -3.100014   -1.810653
    143          6           0        7.859247   -1.947356   -1.718674
    144          6           0        7.268877   -0.965291   -0.725843
    145          8           0        8.026415   -0.162340   -0.185190
    146          6           0        8.008921   -1.233645   -3.058829
    147          1           0        6.388300   -3.272953   -2.600778
    148          1           0        8.851944   -2.270661   -1.396298
    149          1           0        8.389368   -1.854135   -3.868367
    150          1           0        7.016449   -0.939878   -3.409969
    151          1           0        8.729841   -0.418355   -3.014368
    152          7           0        5.967356   -1.041306   -0.431964
    153          6           0        5.351795   -0.417017    0.719491
    154          6           0        5.703283   -0.875803    2.128558
    155          8           0        5.838914   -0.044404    3.027991
    156          6           0        3.852111   -0.200587    0.523771
    157          6           0        3.296331    0.482250   -0.727605
    158          6           0        1.791145    0.420799   -0.916125
    159          8           0        1.112168    1.368343   -0.476066
    160          8           0        1.122129   -0.571206   -1.296707
    161          1           0        5.527436   -1.919107   -0.688159
    162          1           0        5.767886    0.589707    0.738808
    163          1           0        3.381926    0.370786    1.327425
    164          1           0        3.450936   -1.210754    0.424669
    165          1           0        3.770439   -0.106112   -1.517259
    166          1           0        3.629013    1.515891   -0.816540
    167          7           0        5.909052   -2.175972    2.314622
    168          6           0        6.234354   -2.817338    3.573760
    169          1           0        7.114623   -3.446418    3.443739
    170          1           0        6.440779   -2.057055    4.327060
    171          1           0        5.393877   -3.431984    3.896986
    172          1           0        6.076376   -2.684426    1.457896
    173         20           0       -1.194662    0.485237   -1.294147
    174          8           0       -0.951076   -1.304133   -3.362292
    175          1           0       -0.508447   -1.319622   -4.205108
    176          1           0       -1.683104   -1.917033   -3.465190
 ---------------------------------------------------------------------

 SCF Done:  E(RB3LYP) =  -5333.56999584     A.U. after   17 cycles

 The electronic state is 1-A.
 Alpha  occ. eigenvalues -- -145.33065 -19.18196 -19.14496 -19.13955 -19.13403
 Alpha  occ. eigenvalues --  -19.11628 -19.10868 -19.09671 -19.08335 -19.08110
 Alpha  occ. eigenvalues --  -19.07622 -19.07530 -19.06566 -19.06532 -19.06399
 Alpha  occ. eigenvalues --  -19.06223 -19.05271 -19.05234 -19.05023 -19.04833
 Alpha  occ. eigenvalues --  -19.04762 -19.03933 -19.03062 -19.02864 -15.38777
 Alpha  occ. eigenvalues --  -14.58887 -14.39252 -14.37697 -14.35746 -14.35451
 Alpha  occ. eigenvalues --  -14.34505 -14.33771 -14.33644 -14.32348 -14.32223
 Alpha  occ. eigenvalues --  -14.31610 -14.31563 -14.31390 -14.30937 -14.29931
 Alpha  occ. eigenvalues --  -12.52387 -12.52370 -12.52339 -10.34816 -10.31452
 Alpha  occ. eigenvalues --  -10.30389 -10.28942 -10.28905 -10.27201 -10.27128
 Alpha  occ. eigenvalues --  -10.26949 -10.26267 -10.26099 -10.26087 -10.25677
 Alpha  occ. eigenvalues --  -10.25573 -10.25532 -10.25152 -10.25032 -10.24864
 Alpha  occ. eigenvalues --  -10.24305 -10.24193 -10.23752 -10.23550 -10.23469
 Alpha  occ. eigenvalues --  -10.23347 -10.23217 -10.22504 -10.22495 -10.22200
 Alpha  occ. eigenvalues --  -10.22026 -10.21676 -10.21236 -10.21001 -10.20540
 Alpha  occ. eigenvalues --  -10.20515 -10.20427 -10.20208 -10.20077 -10.18970
 Alpha  occ. eigenvalues --  -10.18285 -10.17844 -10.17772 -10.17740 -10.17430
 Alpha  occ. eigenvalues --  -10.17267 -10.17180 -10.17041 -10.16920 -10.16911
 Alpha  occ. eigenvalues --  -10.16771 -10.16650 -10.15914 -10.15734 -10.15280
 Alpha  occ. eigenvalues --  -10.15211 -10.15030  -1.75736  -1.14276  -1.06914
 Alpha  occ. eigenvalues --   -1.04717  -1.04492  -1.04279  -1.03925  -1.03184
 Alpha  occ. eigenvalues --   -1.03137  -1.02986  -1.02959  -1.02871  -1.01628
 Alpha  occ. eigenvalues --   -1.01299  -1.01195  -1.00648  -1.00428  -0.99782
 Alpha  occ. eigenvalues --   -0.99541  -0.99031  -0.98703  -0.98522  -0.98474
 Alpha  occ. eigenvalues --   -0.98114  -0.97605  -0.96107  -0.94297  -0.92729
 Alpha  occ. eigenvalues --   -0.91445  -0.90924  -0.90674  -0.90363  -0.90118
 Alpha  occ. eigenvalues --   -0.89799  -0.89442  -0.89095  -0.88858  -0.88799
 Alpha  occ. eigenvalues --   -0.88494  -0.88469  -0.87616  -0.87414  -0.86281
 Alpha  occ. eigenvalues --   -0.82893  -0.82058  -0.81980  -0.80291  -0.78625
 Alpha  occ. eigenvalues --   -0.77223  -0.77193  -0.76893  -0.76870  -0.76221
 Alpha  occ. eigenvalues --   -0.75252  -0.74584  -0.73078  -0.72974  -0.72553
 Alpha  occ. eigenvalues --   -0.71680  -0.71659  -0.71325  -0.70172  -0.69905
 Alpha  occ. eigenvalues --   -0.69306  -0.68980  -0.68217  -0.68002  -0.67498
 Alpha  occ. eigenvalues --   -0.66617  -0.65467  -0.65131  -0.64304  -0.63991
 Alpha  occ. eigenvalues --   -0.63565  -0.63384  -0.62874  -0.61894  -0.61495
 Alpha  occ. eigenvalues --   -0.61167  -0.60179  -0.59881  -0.59800  -0.58589
 Alpha  occ. eigenvalues --   -0.58487  -0.58031  -0.57734  -0.57487  -0.57362
 Alpha  occ. eigenvalues --   -0.56722  -0.56520  -0.56193  -0.55845  -0.55682
 Alpha  occ. eigenvalues --   -0.55291  -0.55218  -0.55065  -0.54903  -0.54253
 Alpha  occ. eigenvalues --   -0.54199  -0.53745  -0.53656  -0.53230  -0.53188
 Alpha  occ. eigenvalues --   -0.52825  -0.52635  -0.52072  -0.51481  -0.51166
 Alpha  occ. eigenvalues --   -0.50928  -0.50337  -0.49873  -0.49548  -0.49223
 Alpha  occ. eigenvalues --   -0.49043  -0.48960  -0.48645  -0.48293  -0.48113
 Alpha  occ. eigenvalues --   -0.47948  -0.47500  -0.47243  -0.47198  -0.46974
 Alpha  occ. eigenvalues --   -0.46844  -0.46644  -0.46215  -0.45924  -0.45626
 Alpha  occ. eigenvalues --   -0.45358  -0.45049  -0.44925  -0.44650  -0.44585
 Alpha  occ. eigenvalues --   -0.44292  -0.44193  -0.44167  -0.44122  -0.43944
 Alpha  occ. eigenvalues --   -0.43709  -0.43456  -0.43332  -0.43211  -0.42967
 Alpha  occ. eigenvalues --   -0.42877  -0.42820  -0.42627  -0.42386  -0.42230
 Alpha  occ. eigenvalues --   -0.42079  -0.42046  -0.41938  -0.41736  -0.41717
 Alpha  occ. eigenvalues --   -0.41543  -0.41515  -0.41303  -0.41266  -0.41034
 Alpha  occ. eigenvalues --   -0.40951  -0.40797  -0.40378  -0.40243  -0.40188
 Alpha  occ. eigenvalues --   -0.40062  -0.39794  -0.39606  -0.39471  -0.39367
 Alpha  occ. eigenvalues --   -0.39271  -0.39152  -0.39124  -0.39089  -0.38937
 Alpha  occ. eigenvalues --   -0.38899  -0.38809  -0.38704  -0.38483  -0.38238
 Alpha  occ. eigenvalues --   -0.38008  -0.37966  -0.37877  -0.37709  -0.37326
 Alpha  occ. eigenvalues --   -0.37267  -0.37154  -0.36932  -0.36898  -0.36704
 Alpha  occ. eigenvalues --   -0.36674  -0.36614  -0.36425  -0.36224  -0.35705
 Alpha  occ. eigenvalues --   -0.35651  -0.35506  -0.35481  -0.35368  -0.35220
 Alpha  occ. eigenvalues --   -0.35161  -0.35079  -0.34822  -0.34805  -0.34255
 Alpha  occ. eigenvalues --   -0.33915  -0.33799  -0.33749  -0.33515  -0.33383
 Alpha  occ. eigenvalues --   -0.33017  -0.32966  -0.32656  -0.32453  -0.32302
 Alpha  occ. eigenvalues --   -0.32233  -0.32052  -0.31620  -0.31194  -0.31089
 Alpha  occ. eigenvalues --   -0.30855  -0.30630  -0.30474  -0.29953  -0.29554
 Alpha  occ. eigenvalues --   -0.29266  -0.28608  -0.27998  -0.27430  -0.27264
 Alpha  occ. eigenvalues --   -0.27092  -0.26367  -0.26103  -0.25994  -0.25518
 Alpha  occ. eigenvalues --   -0.25229  -0.25043  -0.24714  -0.24630  -0.24257
 Alpha  occ. eigenvalues --   -0.24036  -0.23802  -0.23659  -0.23457  -0.23041
 Alpha  occ. eigenvalues --   -0.22967  -0.22534  -0.22311  -0.22045  -0.21978
 Alpha  occ. eigenvalues --   -0.21754  -0.21688  -0.21554  -0.21416  -0.21200
 Alpha  occ. eigenvalues --   -0.20983  -0.20683  -0.20529  -0.20212  -0.19722
 Alpha  occ. eigenvalues --   -0.19694  -0.19470  -0.18304
 Alpha virt. eigenvalues --   -0.10499  -0.05163  -0.04636  -0.02373  -0.01684
 Alpha virt. eigenvalues --   -0.01229  -0.00579   0.00455   0.00640   0.01050
 Alpha virt. eigenvalues --    0.01387   0.02144   0.02189   0.02304   0.02475

 Mulliken charges:
               1
     1  C    0.071417
     2  C    0.004879
     3  O   -0.288569
     4  H    0.039404
     5  H   -0.009598
     6  H    0.034237
     7  N   -0.110287
     8  C    0.151419
     9  C    0.082397
    10  O   -0.294008
    11  C    0.062204
    12  C    0.086043
    13  O   -0.435996
    14  O   -0.407469
    15  H    0.115752
    16  H    0.008299
    17  H   -0.011115
    18  H    0.011301
    19  N   -0.119688
    20  C    0.103731
    21  C    0.041678
    22  O   -0.312337
    23  C    0.041821
    24  C    0.002942
    25  C   -0.057107
    26  C    0.010651
    27  N    0.083865
    28  H    0.137248
    29  H    0.004585
    30  H    0.051764
    31  H    0.029612
    32  H   -0.019914
    33  H    0.022624
    34  H    0.063466
    35  H    0.029558
    36  H    0.073130
    37  H    0.072636
    38  H    0.196381
    39  H    0.196824
    40  H    0.197976
    41  N   -0.143190
    42  C    0.156111
    43  C    0.044870
    44  O   -0.284163
    45  C    0.117032
    46  C    0.066011
    47  O   -0.394843
    48  O   -0.441672
    49  H    0.167761
    50  H    0.010706
    51  H   -0.033928
    52  H    0.015263
    53  N   -0.158161
    54  C    0.246694
    55  C   -0.002263
    56  O   -0.287749
    57  H    0.154036
    58  H    0.016826
    59  H    0.018756
    60  N   -0.179960
    61  C    0.112097
    62  C    0.079407
    63  O   -0.301085
    64  C    0.079793
    65  C    0.080249
    66  N   -0.029915
    67  O   -0.343181
    68  H    0.178531
    69  H    0.037060
    70  H    0.067231
    71  H   -0.005427
    72  H    0.125812
    73  H    0.108608
    74  N   -0.132765
    75  C    0.202836
    76  C    0.050717
    77  O   -0.285858
    78  H    0.145982
    79  H    0.034777
    80  H    0.031250
    81  N   -0.152881
    82  C    0.115436
    83  C    0.181126
    84  O   -0.348675
    85  C    0.161016
    86  C    0.002584
    87  C    0.009233
    88  C    0.037577
    89  C   -0.039310
    90  C   -0.030065
    91  C    0.154815
    92  O   -0.204675
    93  H    0.151808
    94  H   -0.018160
    95  H   -0.017013
    96  H   -0.043604
    97  H   -0.047102
    98  H   -0.033392
    99  H   -0.029876
   100  H   -0.055795
   101  H    0.173195
   102  N   -0.122795
   103  C    0.140116
   104  C    0.049940
   105  O   -0.305095
   106  C   -0.126542
   107  C    0.043366
   108  C    0.063853
   109  C    0.019200
   110  H    0.131393
   111  H    0.012380
   112  H   -0.022280
   113  H   -0.018937
   114  H    0.019743
   115  H    0.021686
   116  H    0.005457
   117  H    0.016444
   118  H   -0.000259
   119  H   -0.009927
   120  H    0.039452
   121  N   -0.136509
   122  C    0.107311
   123  C    0.098210
   124  O   -0.280413
   125  C    0.250701
   126  O   -0.318156
   127  H    0.147965
   128  H    0.017243
   129  H   -0.002629
   130  H   -0.045774
   131  H    0.166797
   132  N   -0.128073
   133  C    0.142205
   134  C    0.035439
   135  O   -0.266610
   136  C    0.022996
   137  H    0.120487
   138  H    0.019350
   139  H    0.036234
   140  H    0.031080
   141  H    0.012775
   142  N   -0.151389
   143  C    0.122157
   144  C    0.039262
   145  O   -0.273705
   146  C    0.049269
   147  H    0.117215
   148  H    0.029062
   149  H    0.003765
   150  H    0.005814
   151  H    0.034336
   152  N   -0.146957
   153  C    0.157345
   154  C    0.048912
   155  O   -0.271080
   156  C   -0.068728
   157  C    0.130001
   158  C    0.146382
   159  O   -0.391668
   160  O   -0.462814
   161  H    0.131475
   162  H   -0.008077
   163  H    0.049875
   164  H    0.033465
   165  H   -0.031638
   166  H   -0.034020
   167  N   -0.161885
   168  C    0.129736
   169  H    0.017232
   170  H    0.037945
   171  H    0.014650
   172  H    0.131732
   173  Ca   1.239407
   174  O   -0.257046
   175  H    0.178933
   176  H    0.170960
 Sum of Mulliken charges =  -0.00000

 Dipole moment (field-independent basis, Debye):
    X=             26.1737    Y=              4.4430    Z=            -22.1893  Tot=             34.6002
 Quadrupole moment (field-independent basis, Debye-Ang):
   XX=           -569.8757   YY=           -406.1609   ZZ=           -493.5395
   XY=            166.6667   XZ=           -105.3188   YZ=            -52.0816

 ESP charges:
               1
     1  C   -0.475374
     2  C    0.772823
     3  O   -0.591184
     4  H    0.136607
     5  H    0.095852
     6  H    0.135709
     7  N   -0.604603
     8  C   -0.004758
     9  C    0.700440
    10  O   -0.574934
    11  C    0.045886
    12  C    0.658566
    13  O   -0.653758
    14  O   -0.794750
    15  H    0.295451
    16  H    0.092118
    17  H    0.012190
    18  H   -0.003411
    19  N   -0.473111
    20  C   -0.154487
    21  C    0.514226
    22  O   -0.610941
    23  C    0.057946
    24  C    0.128521
    25  C   -0.182552
    26  C    0.157080
    27  N   -0.616058
    28  H    0.202896
    29  H    0.146867
    30  H    0.024337
    31  H    0.084987
    32  H   -0.043834
    33  H    0.000065
    34  H    0.080578
    35  H    0.042835
    36  H    0.076750
    37  H    0.060558
    38  H    0.379676
    39  H    0.423752
    40  H    0.390034
    41  N   -0.075425
    42  C   -0.091874
    43  C    0.400852
    44  O   -0.523733
    45  C   -0.219037
    46  C    0.715216
    47  O   -0.722909
    48  O   -0.700992
    49  H    0.150555
    50  H    0.133208
    51  H    0.043398
    52  H    0.080407
    53  N   -0.044353
    54  C   -0.232364
    55  C    0.605594
    56  O   -0.585602
    57  H    0.070628
    58  H    0.108258
    59  H    0.094264
    60  N   -0.344590
    61  C    0.008710
    62  C    0.376890
    63  O   -0.477250
    64  C   -0.401487
    65  C    0.721808
    66  N   -0.818374
    67  O   -0.676190
    68  H    0.254412
    69  H    0.149055
    70  H    0.194613
    71  H    0.102902
    72  H    0.376793
    73  H    0.387407
    74  N   -0.254589
    75  C   -0.245294
    76  C    0.634798
    77  O   -0.550124
    78  H    0.271449
    79  H    0.145844
    80  H    0.113596
    81  N   -0.578170
    82  C    0.276492
    83  C    0.499547
    84  O   -0.515437
    85  C   -0.116471
    86  C   -0.007848
    87  C   -0.133797
    88  C   -0.136272
    89  C   -0.262710
    90  C   -0.187762
    91  C    0.332873
    92  O   -0.552199
    93  H    0.427598
    94  H    0.037107
    95  H    0.021937
    96  H    0.024841
    97  H    0.135707
    98  H    0.144835
    99  H    0.162757
   100  H    0.089359
   101  H    0.408358
   102  N   -0.593964
   103  C    0.063995
   104  C    0.612901
   105  O   -0.577190
   106  C    0.045622
   107  C    0.262489
   108  C   -0.285145
   109  C   -0.333359
   110  H    0.327239
   111  H    0.052520
   112  H    0.021580
   113  H   -0.047822
   114  H    0.016331
   115  H    0.087272
   116  H   -0.030951
   117  H    0.098105
   118  H    0.076852
   119  H    0.047432
   120  H    0.104865
   121  N   -0.271409
   122  C   -0.081643
   123  C    0.815711
   124  O   -0.601920
   125  C    0.201968
   126  O   -0.552948
   127  H   -0.029435
   128  H    0.057507
   129  H    0.028971
   130  H   -0.028934
   131  H    0.369004
   132  N   -0.636849
   133  C    0.215002
   134  C    0.542708
   135  O   -0.535910
   136  C   -0.404589
   137  H    0.331136
   138  H    0.065260
   139  H    0.119511
   140  H    0.130690
   141  H    0.098817
   142  N   -0.452398
   143  C    0.093336
   144  C    0.427696
   145  O   -0.520186
   146  C   -0.293244
   147  H    0.300862
   148  H    0.115527
   149  H    0.078280
   150  H    0.077140
   151  H    0.109554
   152  N   -0.253510
   153  C   -0.177724
   154  C    0.494763
   155  O   -0.541237
   156  C    0.108115
   157  C    0.114089
   158  C    0.417580
   159  O   -0.574668
   160  O   -0.499898
   161  H    0.187245
   162  H    0.101212
   163  H    0.001354
   164  H    0.170540
   165  H   -0.086996
   166  H   -0.065820
   167  N   -0.072143
   168  C   -0.181013
   169  H    0.078362
   170  H    0.097965
   171  H    0.052240
   172  H    0.153471
   173  Ca   1.591605
   174  O   -0.865175
   175  H    0.440564
   176  H    0.410882
 Sum of ESP charges =  -0.00000

 Normal termination of Gaussian 16 at Sat Sep 14 22:38:29 2019.
