 Gaussian 16, Revision A.03,
 Gaussian 16:  ES64L-G16RevA.03 25-Dec-2016

 ----------------------------------------------------------------------
 #b3lyp/svp scf=(tight,noincore) Test #IOP(5/87=12) Density=Current Pop
 =(MK,readradii) iop(6/33=2) iop(6/42=6)
 ----------------------------------------------------------------------

 ------------------
 holoCaM_loop3_96.0
 ------------------
 Symbolic Z-matrix:
 Charge =  0 Multiplicity = 1

                         Standard orientation:
 ---------------------------------------------------------------------
 Center     Atomic      Atomic             Coordinates (Angstroms)
 Number     Number       Type             X           Y           Z
 ---------------------------------------------------------------------
      1          6           0        1.499927    3.653565    5.840006
      2          6           0        1.135237    3.384179    4.391375
      3          8           0        2.152212    3.404576    3.715028
      4          1           0        1.592344    2.706676    6.372871
      5          1           0        2.448597    4.188154    5.882658
      6          1           0        0.720267    4.257214    6.305797
      7          7           0       -0.143507    3.196847    4.042777
      8          6           0       -0.530417    2.906186    2.681632
      9          6           0       -0.355650    4.111485    1.772065
     10          8           0       -0.716301    5.205669    2.187746
     11          6           0       -1.963536    2.366284    2.721316
     12          6           0       -2.522307    1.755370    1.443247
     13          8           0       -2.926301    0.570105    1.357598
     14          8           0       -2.073586    2.288842    0.412443
     15          1           0       -0.773920    3.585523    4.730462
     16          1           0        0.092296    2.073367    2.343486
     17          1           0       -2.622009    3.143608    3.114610
     18          1           0       -2.021052    1.655507    3.540882
     19          7           0        0.331350    4.006553    0.630522
     20          6           0        0.768657    5.109292   -0.193874
     21          6           0       -0.281135    5.508405   -1.221856
     22          8           0       -0.190708    6.633431   -1.695713
     23          6           0        2.157811    4.809844   -0.749464
     24          6           0        3.293084    4.806054    0.282060
     25          6           0        4.687111    4.985963   -0.306601
     26          6           0        4.956133    6.263407   -1.096958
     27          7           0        6.341923    6.382833   -1.568684
     28          1           0        0.591410    3.106268    0.255880
     29          1           0        0.809317    5.991199    0.451562
     30          1           0        2.365991    5.623066   -1.449843
     31          1           0        2.270303    3.877223   -1.294039
     32          1           0        3.256493    3.894432    0.878639
     33          1           0        3.152957    5.546094    1.079121
     34          1           0        4.850790    4.198820   -1.045124
     35          1           0        5.431751    4.841218    0.474846
     36          1           0        4.777596    7.117749   -0.441883
     37          1           0        4.204617    6.387943   -1.885066
     38          1           0        6.347125    7.022704   -2.359341
     39          1           0        6.977552    6.592823   -0.820099
     40          1           0        6.609344    5.571023   -2.114258
     41          7           0       -1.289753    4.676314   -1.514623
     42          6           0       -2.495590    5.105481   -2.187434
     43          6           0       -3.684534    5.118315   -1.239201
     44          8           0       -4.673480    5.744611   -1.592953
     45          6           0       -2.793723    4.184341   -3.363876
     46          6           0       -2.846337    2.678495   -3.139912
     47          8           0       -2.341150    2.077175   -4.119147
     48          8           0       -3.159442    2.222652   -2.019210
     49          1           0       -1.219774    3.823672   -0.981797
     50          1           0       -2.327001    6.127995   -2.536062
     51          1           0       -2.066059    4.367012   -4.158821
     52          1           0       -3.806245    4.392505   -3.685849
     53          7           0       -3.648489    4.405220   -0.103817
     54          6           0       -4.721043    4.303698    0.861025
     55          6           0       -5.743497    3.223413    0.539820
     56          8           0       -6.831530    3.246112    1.113728
     57          1           0       -2.853656    3.803505    0.045445
     58          1           0       -5.255073    5.248463    0.963155
     59          1           0       -4.266140    3.995504    1.806900
     60          7           0       -5.449237    2.170042   -0.231426
     61          6           0       -6.346665    1.134093   -0.726131
     62          6           0       -6.595249   -0.055881    0.198134
     63          8           0       -7.618250   -0.709255    0.068624
     64          6           0       -5.978402    0.751035   -2.151140
     65          6           0       -4.970701   -0.389095   -2.269641
     66          7           0       -5.161331   -1.298984   -3.230871
     67          8           0       -4.009016   -0.548500   -1.532653
     68          1           0       -4.535449    2.102209   -0.653670
     69          1           0       -7.284581    1.685466   -0.725084
     70          1           0       -5.658786    1.551540   -2.822882
     71          1           0       -6.925968    0.389362   -2.552900
     72          1           0       -5.921732   -1.167699   -3.880142
     73          1           0       -4.589788   -2.125379   -3.220390
     74          7           0       -5.749752   -0.289204    1.204262
     75          6           0       -5.907758   -1.354035    2.180822
     76          6           0       -5.109158   -2.632996    1.993743
     77          8           0       -5.473039   -3.654800    2.571850
     78          1           0       -4.988501    0.349819    1.347249
     79          1           0       -6.926685   -1.724475    2.164588
     80          1           0       -5.592631   -0.966354    3.141549
     81          7           0       -4.056984   -2.519817    1.179728
     82          6           0       -3.166130   -3.624066    0.892825
     83          6           0       -1.794934   -2.975536    0.782675
     84          8           0       -1.699451   -1.830192    0.347048
     85          6           0       -3.551494   -4.214630   -0.460847
     86          6           0       -4.857918   -4.973959   -0.501787
     87          6           0       -5.956432   -4.549945   -1.269757
     88          6           0       -5.026513   -6.190944    0.151605
     89          6           0       -7.152858   -5.256710   -1.418575
     90          6           0       -6.249254   -6.878380    0.061387
     91          6           0       -7.357653   -6.455764   -0.707148
     92          8           0       -8.446423   -7.244207   -0.944503
     93          1           0       -3.835852   -1.624880    0.758552
     94          1           0       -3.238797   -4.362756    1.692610
     95          1           0       -2.705358   -4.711018   -0.939339
     96          1           0       -3.775042   -3.323665   -1.056505
     97          1           0       -5.906946   -3.655733   -1.871868
     98          1           0       -4.226128   -6.746643    0.620948
     99          1           0       -7.878167   -4.916881   -2.136240
    100          1           0       -6.466727   -7.859356    0.454567
    101          1           0       -8.391264   -7.963566   -0.305300
    102          7           0       -0.758570   -3.686743    1.224979
    103          6           0        0.598637   -3.193478    1.390143
    104          6           0        1.528774   -4.084121    0.594781
    105          8           0        1.535327   -5.294174    0.821120
    106          6           0        1.050270   -3.036449    2.834673
    107          6           0        0.340206   -2.027373    3.734159
    108          6           0        2.567173   -2.853748    2.921433
    109          6           0        0.261575   -0.577692    3.290604
    110          1           0       -0.914178   -4.637751    1.523425
    111          1           0        0.721102   -2.220514    0.909161
    112          1           0        0.916538   -3.965267    3.403543
    113          1           0        0.775003   -2.142979    4.732050
    114          1           0       -0.696634   -2.334637    3.875050
    115          1           0        2.792324   -2.800134    3.982674
    116          1           0        3.189323   -3.649279    2.500769
    117          1           0        2.809351   -1.885795    2.482209
    118          1           0       -0.520560   -0.399415    2.551225
    119          1           0        0.081402    0.055444    4.168087
    120          1           0        1.136492   -0.134256    2.813650
    121          7           0        2.381233   -3.539769   -0.270260
    122          6           0        3.401824   -4.222549   -1.038964
    123          6           0        4.749843   -4.012119   -0.366534
    124          8           0        4.969627   -3.318204    0.619304
    125          6           0        3.277838   -3.761826   -2.488951
    126          8           0        3.966723   -2.546094   -2.684743
    127          1           0        2.409576   -2.526519   -0.265836
    128          1           0        3.242397   -5.308601   -1.047518
    129          1           0        2.215384   -3.661964   -2.731065
    130          1           0        3.745208   -4.533378   -3.092831
    131          1           0        4.088109   -2.383358   -3.619078
    132          7           0        5.732559   -4.726535   -0.925084
    133          6           0        7.078722   -4.582079   -0.410908
    134          6           0        7.688569   -3.235844   -0.785926
    135          8           0        8.547764   -2.739102   -0.057138
    136          6           0        8.010985   -5.658009   -0.961598
    137          1           0        5.497596   -5.438155   -1.601316
    138          1           0        6.889765   -4.609010    0.661599
    139          1           0        8.851746   -5.589025   -0.267219
    140          1           0        7.647970   -6.665238   -0.788937
    141          1           0        8.248283   -5.483427   -2.006495
    142          7           0        7.259482   -2.616097   -1.892948
    143          6           0        7.558884   -1.269520   -2.323864
    144          6           0        7.061265   -0.216948   -1.355274
    145          8           0        7.841735    0.538452   -0.774467
    146          6           0        7.302541   -1.070678   -3.818571
    147          1           0        6.702244   -3.127082   -2.559942
    148          1           0        8.652651   -1.229798   -2.267319
    149          1           0        6.234965   -1.165871   -4.019120
    150          1           0        7.541414   -0.060169   -4.128265
    151          1           0        7.855767   -1.813930   -4.401767
    152          7           0        5.785159   -0.293105   -0.962904
    153          6           0        5.271609    0.449313    0.167397
    154          6           0        6.027022    0.235407    1.462849
    155          8           0        6.557427    1.182424    2.050751
    156          6           0        3.804023    0.076037    0.397732
    157          6           0        2.920638    0.439152   -0.797918
    158          6           0        1.442078    0.323995   -0.483594
    159          8           0        0.784461    1.278006   -0.011680
    160          8           0        0.806732   -0.655267   -0.925388
    161          1           0        5.106887   -0.892130   -1.418004
    162          1           0        5.378894    1.523433    0.055789
    163          1           0        3.419681    0.673382    1.219232
    164          1           0        3.747461   -1.006690    0.528131
    165          1           0        3.264352   -0.141991   -1.656658
    166          1           0        3.105570    1.470882   -1.101291
    167          7           0        6.242383   -1.049789    1.761664
    168          6           0        6.879818   -1.347712    3.028440
    169          1           0        6.337679   -2.150260    3.527724
    170          1           0        7.909177   -1.659885    2.852858
    171          1           0        6.871700   -0.457848    3.658050
    172          1           0        5.795432   -1.726430    1.168122
    173         20           0       -1.491260    0.403472   -1.215754
    174          8           0        0.126171    1.674861   -2.929342
    175          1           0       -0.427843    1.821177   -3.687141
    176          1           0        0.844061    2.292106   -3.035846
 ---------------------------------------------------------------------

 SCF Done:  E(RB3LYP) =  -5333.56449778     A.U. after   19 cycles

 The electronic state is 1-A.
 Alpha  occ. eigenvalues -- -145.37099 -19.19688 -19.15520 -19.14942 -19.14936
 Alpha  occ. eigenvalues --  -19.11330 -19.10853 -19.10793 -19.10398 -19.10009
 Alpha  occ. eigenvalues --  -19.08155 -19.08051 -19.07452 -19.07156 -19.06839
 Alpha  occ. eigenvalues --  -19.06610 -19.06235 -19.06192 -19.05665 -19.05611
 Alpha  occ. eigenvalues --  -19.05225 -19.04704 -19.03947 -19.03841 -15.42792
 Alpha  occ. eigenvalues --  -14.58952 -14.39635 -14.38061 -14.36816 -14.36531
 Alpha  occ. eigenvalues --  -14.36402 -14.35812 -14.34191 -14.32401 -14.32207
 Alpha  occ. eigenvalues --  -14.31708 -14.31561 -14.30595 -14.29665 -14.28919
 Alpha  occ. eigenvalues --  -12.56422 -12.56394 -12.56331 -10.34306 -10.32826
 Alpha  occ. eigenvalues --  -10.30350 -10.29456 -10.29258 -10.29129 -10.28879
 Alpha  occ. eigenvalues --  -10.28742 -10.27453 -10.27383 -10.26513 -10.26239
 Alpha  occ. eigenvalues --  -10.26230 -10.25568 -10.25501 -10.25457 -10.25414
 Alpha  occ. eigenvalues --  -10.25321 -10.24404 -10.24227 -10.24032 -10.23320
 Alpha  occ. eigenvalues --  -10.23307 -10.23062 -10.22807 -10.22714 -10.22630
 Alpha  occ. eigenvalues --  -10.22305 -10.22096 -10.22083 -10.22067 -10.21552
 Alpha  occ. eigenvalues --  -10.21202 -10.20254 -10.19935 -10.19408 -10.19216
 Alpha  occ. eigenvalues --  -10.19215 -10.18891 -10.18598 -10.18580 -10.18481
 Alpha  occ. eigenvalues --  -10.18255 -10.17852 -10.17809 -10.17397 -10.17391
 Alpha  occ. eigenvalues --  -10.17155 -10.16983 -10.16921 -10.16854 -10.16621
 Alpha  occ. eigenvalues --  -10.15406 -10.14312  -1.79597  -1.14100  -1.08355
 Alpha  occ. eigenvalues --   -1.07407  -1.07344  -1.07131  -1.06954  -1.04524
 Alpha  occ. eigenvalues --   -1.04013  -1.04009  -1.03943  -1.03291  -1.03249
 Alpha  occ. eigenvalues --   -1.03147  -1.01704  -1.01512  -1.00920  -1.00402
 Alpha  occ. eigenvalues --   -0.99688  -0.99652  -0.99459  -0.98931  -0.98244
 Alpha  occ. eigenvalues --   -0.97497  -0.96872  -0.96864  -0.94701  -0.93888
 Alpha  occ. eigenvalues --   -0.92913  -0.92904  -0.92498  -0.91257  -0.90924
 Alpha  occ. eigenvalues --   -0.90617  -0.90499  -0.90184  -0.89485  -0.88994
 Alpha  occ. eigenvalues --   -0.88911  -0.87846  -0.87659  -0.86598  -0.85753
 Alpha  occ. eigenvalues --   -0.83201  -0.83001  -0.81305  -0.80648  -0.80533
 Alpha  occ. eigenvalues --   -0.79580  -0.78615  -0.77292  -0.76673  -0.76003
 Alpha  occ. eigenvalues --   -0.75519  -0.75120  -0.73996  -0.73858  -0.73260
 Alpha  occ. eigenvalues --   -0.72328  -0.71913  -0.70831  -0.70707  -0.70389
 Alpha  occ. eigenvalues --   -0.70100  -0.69569  -0.69139  -0.68425  -0.67670
 Alpha  occ. eigenvalues --   -0.67434  -0.66698  -0.65120  -0.64543  -0.64265
 Alpha  occ. eigenvalues --   -0.63569  -0.63044  -0.63003  -0.62539  -0.62205
 Alpha  occ. eigenvalues --   -0.61943  -0.61321  -0.61121  -0.60980  -0.60674
 Alpha  occ. eigenvalues --   -0.59824  -0.58665  -0.58611  -0.58411  -0.57382
 Alpha  occ. eigenvalues --   -0.56823  -0.56543  -0.56487  -0.56172  -0.55769
 Alpha  occ. eigenvalues --   -0.55566  -0.55531  -0.55414  -0.55209  -0.54951
 Alpha  occ. eigenvalues --   -0.54753  -0.54360  -0.54176  -0.53607  -0.53363
 Alpha  occ. eigenvalues --   -0.53098  -0.52960  -0.52694  -0.52273  -0.51887
 Alpha  occ. eigenvalues --   -0.51591  -0.51063  -0.50552  -0.50191  -0.49641
 Alpha  occ. eigenvalues --   -0.49545  -0.49374  -0.49314  -0.49102  -0.48788
 Alpha  occ. eigenvalues --   -0.48342  -0.48233  -0.47897  -0.47797  -0.47732
 Alpha  occ. eigenvalues --   -0.47602  -0.47140  -0.47099  -0.46961  -0.46314
 Alpha  occ. eigenvalues --   -0.46294  -0.46246  -0.46028  -0.45708  -0.45528
 Alpha  occ. eigenvalues --   -0.45438  -0.45150  -0.44966  -0.44780  -0.44747
 Alpha  occ. eigenvalues --   -0.44505  -0.44135  -0.43904  -0.43772  -0.43646
 Alpha  occ. eigenvalues --   -0.43404  -0.43376  -0.43215  -0.42958  -0.42658
 Alpha  occ. eigenvalues --   -0.42566  -0.42558  -0.42403  -0.42237  -0.42081
 Alpha  occ. eigenvalues --   -0.42030  -0.41879  -0.41803  -0.41568  -0.41421
 Alpha  occ. eigenvalues --   -0.41329  -0.41257  -0.41176  -0.40901  -0.40840
 Alpha  occ. eigenvalues --   -0.40590  -0.40513  -0.40234  -0.40206  -0.40153
 Alpha  occ. eigenvalues --   -0.39922  -0.39714  -0.39662  -0.39616  -0.39393
 Alpha  occ. eigenvalues --   -0.39260  -0.39002  -0.38957  -0.38788  -0.38643
 Alpha  occ. eigenvalues --   -0.38562  -0.38439  -0.38293  -0.38168  -0.38066
 Alpha  occ. eigenvalues --   -0.38032  -0.37909  -0.37780  -0.37443  -0.37244
 Alpha  occ. eigenvalues --   -0.37172  -0.37135  -0.36959  -0.36914  -0.36833
 Alpha  occ. eigenvalues --   -0.36757  -0.36627  -0.36582  -0.36216  -0.35748
 Alpha  occ. eigenvalues --   -0.35610  -0.35537  -0.35388  -0.35279  -0.34866
 Alpha  occ. eigenvalues --   -0.34469  -0.34268  -0.34047  -0.34039  -0.33887
 Alpha  occ. eigenvalues --   -0.33756  -0.33489  -0.33277  -0.32982  -0.32844
 Alpha  occ. eigenvalues --   -0.32564  -0.32418  -0.32290  -0.31861  -0.31755
 Alpha  occ. eigenvalues --   -0.31697  -0.31444  -0.31273  -0.30892  -0.30655
 Alpha  occ. eigenvalues --   -0.30351  -0.28891  -0.28456  -0.27996  -0.27698
 Alpha  occ. eigenvalues --   -0.27380  -0.27113  -0.26681  -0.26634  -0.26554
 Alpha  occ. eigenvalues --   -0.26008  -0.25754  -0.25681  -0.25442  -0.25283
 Alpha  occ. eigenvalues --   -0.24766  -0.24543  -0.24128  -0.23860  -0.23701
 Alpha  occ. eigenvalues --   -0.23457  -0.23442  -0.23092  -0.22980  -0.22823
 Alpha  occ. eigenvalues --   -0.22745  -0.22599  -0.22404  -0.22315  -0.21810
 Alpha  occ. eigenvalues --   -0.21607  -0.21055  -0.20800  -0.20456  -0.20039
 Alpha  occ. eigenvalues --   -0.19685  -0.19241  -0.18530
 Alpha virt. eigenvalues --   -0.10912  -0.04957  -0.04353  -0.03397  -0.02430
 Alpha virt. eigenvalues --   -0.01299  -0.01157  -0.00257  -0.00171   0.00227
 Alpha virt. eigenvalues --    0.00757   0.01110   0.01300   0.01539   0.01785

 Mulliken charges:
               1
     1  C    0.054125
     2  C    0.021002
     3  O   -0.296857
     4  H    0.031637
     5  H    0.026940
     6  H   -0.006975
     7  N   -0.122230
     8  C    0.121290
     9  C    0.098516
    10  O   -0.294075
    11  C    0.081198
    12  C    0.155648
    13  O   -0.379430
    14  O   -0.471190
    15  H    0.127983
    16  H    0.014774
    17  H   -0.003075
    18  H   -0.009659
    19  N   -0.159278
    20  C    0.147864
    21  C    0.041715
    22  O   -0.303829
    23  C    0.012069
    24  C    0.047574
    25  C   -0.022240
    26  C   -0.017754
    27  N    0.093824
    28  H    0.134384
    29  H    0.015762
    30  H   -0.016018
    31  H   -0.016964
    32  H    0.052252
    33  H    0.017306
    34  H    0.006193
    35  H    0.045738
    36  H    0.067025
    37  H    0.084198
    38  H    0.189607
    39  H    0.209672
    40  H    0.183701
    41  N   -0.145443
    42  C    0.139706
    43  C    0.048009
    44  O   -0.290208
    45  C    0.112695
    46  C    0.089411
    47  O   -0.412963
    48  O   -0.424584
    49  H    0.136485
    50  H    0.019250
    51  H   -0.014243
    52  H    0.010807
    53  N   -0.172175
    54  C    0.238935
    55  C    0.008787
    56  O   -0.301191
    57  H    0.163837
    58  H    0.032073
    59  H    0.017039
    60  N   -0.179067
    61  C    0.148533
    62  C    0.044523
    63  O   -0.277957
    64  C    0.061465
    65  C    0.072522
    66  N   -0.030461
    67  O   -0.335120
    68  H    0.164461
    69  H    0.023021
    70  H    0.065861
    71  H    0.011037
    72  H    0.126209
    73  H    0.133589
    74  N   -0.156301
    75  C    0.232096
    76  C    0.018209
    77  O   -0.295138
    78  H    0.138708
    79  H    0.036920
    80  H    0.021403
    81  N   -0.165890
    82  C    0.092456
    83  C    0.119279
    84  O   -0.332873
    85  C    0.165661
    86  C    0.021369
    87  C    0.013478
    88  C    0.027586
    89  C   -0.034061
    90  C   -0.035058
    91  C    0.146468
    92  O   -0.189651
    93  H    0.178995
    94  H    0.011260
    95  H   -0.004092
    96  H   -0.033008
    97  H   -0.074203
    98  H   -0.038324
    99  H   -0.034511
   100  H   -0.064660
   101  H    0.174144
   102  N   -0.107647
   103  C    0.198761
   104  C    0.013037
   105  O   -0.299115
   106  C   -0.079280
   107  C    0.059597
   108  C    0.050572
   109  C   -0.056804
   110  H    0.125638
   111  H    0.015727
   112  H   -0.020327
   113  H   -0.008836
   114  H   -0.006371
   115  H   -0.007434
   116  H    0.033492
   117  H   -0.001622
   118  H    0.048443
   119  H    0.008426
   120  H    0.017458
   121  N   -0.124829
   122  C    0.060283
   123  C    0.126981
   124  O   -0.268522
   125  C    0.240922
   126  O   -0.305549
   127  H    0.147158
   128  H    0.040065
   129  H    0.043316
   130  H   -0.018549
   131  H    0.184985
   132  N   -0.152369
   133  C    0.071804
   134  C    0.051440
   135  O   -0.248539
   136  C    0.073522
   137  H    0.115374
   138  H    0.034305
   139  H    0.047211
   140  H    0.021850
   141  H    0.014103
   142  N   -0.124355
   143  C    0.095707
   144  C    0.069273
   145  O   -0.250805
   146  C    0.044970
   147  H    0.084763
   148  H    0.016423
   149  H   -0.023583
   150  H    0.022713
   151  H    0.033502
   152  N   -0.149017
   153  C    0.140637
   154  C    0.049273
   155  O   -0.274836
   156  C   -0.079952
   157  C    0.115185
   158  C    0.164437
   159  O   -0.396106
   160  O   -0.445141
   161  H    0.127935
   162  H   -0.036747
   163  H    0.047734
   164  H    0.017575
   165  H   -0.033173
   166  H   -0.042781
   167  N   -0.167485
   168  C    0.137105
   169  H    0.007041
   170  H    0.026394
   171  H    0.034821
   172  H    0.134463
   173  Ca   1.297454
   174  O   -0.295422
   175  H    0.162012
   176  H    0.163777
 Sum of Mulliken charges =  -0.00000

 Dipole moment (field-independent basis, Debye):
    X=             35.1894    Y=              0.0027    Z=            -16.4770  Tot=             38.8560
 Quadrupole moment (field-independent basis, Debye-Ang):
   XX=           -588.4052   YY=           -464.0882   ZZ=           -518.3098
   XY=            145.8119   XZ=            -80.7788   YZ=              1.4592

 ESP charges:
               1
     1  C   -0.424440
     2  C    0.825888
     3  O   -0.609879
     4  H    0.107832
     5  H    0.130268
     6  H    0.064136
     7  N   -0.701436
     8  C   -0.100802
     9  C    0.843924
    10  O   -0.605742
    11  C    0.003310
    12  C    0.458718
    13  O   -0.705412
    14  O   -0.278464
    15  H    0.371510
    16  H    0.067331
    17  H    0.039734
    18  H    0.039751
    19  N   -0.573175
    20  C   -0.061080
    21  C    0.598737
    22  O   -0.584541
    23  C   -0.253568
    24  C    0.081530
    25  C   -0.190398
    26  C    0.297269
    27  N   -0.638920
    28  H    0.342697
    29  H    0.126296
    30  H    0.057253
    31  H    0.095037
    32  H    0.069986
    33  H    0.045668
    34  H    0.036394
    35  H    0.072945
    36  H    0.027532
    37  H    0.036227
    38  H    0.376375
    39  H    0.426701
    40  H    0.383580
    41  N   -0.463028
    42  C    0.237929
    43  C    0.374540
    44  O   -0.546502
    45  C   -0.499104
    46  C    1.039369
    47  O   -0.771638
    48  O   -1.055902
    49  H    0.278709
    50  H    0.084173
    51  H    0.108050
    52  H    0.125062
    53  N    0.018867
    54  C   -0.302382
    55  C    0.615323
    56  O   -0.583676
    57  H   -0.186229
    58  H    0.148515
    59  H    0.110862
    60  N   -0.515864
    61  C   -0.123261
    62  C    0.429376
    63  O   -0.531864
    64  C   -0.152571
    65  C    0.713056
    66  N   -0.790986
    67  O   -0.711020
    68  H    0.619409
    69  H    0.160381
    70  H    0.107410
    71  H    0.050984
    72  H    0.364211
    73  H    0.374307
    74  N    0.038157
    75  C   -0.472163
    76  C    0.757014
    77  O   -0.576653
    78  H    0.131809
    79  H    0.169703
    80  H    0.133761
    81  N   -0.630962
    82  C    0.256369
    83  C    0.618670
    84  O   -0.648432
    85  C   -0.122448
    86  C   -0.044777
    87  C   -0.089779
    88  C   -0.044764
    89  C   -0.272090
    90  C   -0.311827
    91  C    0.394072
    92  O   -0.534114
    93  H    0.446085
    94  H    0.013361
    95  H    0.029344
    96  H    0.040622
    97  H    0.104898
    98  H    0.111278
    99  H    0.158668
   100  H    0.108663
   101  H    0.400255
   102  N   -0.610533
   103  C   -0.014527
   104  C    0.688112
   105  O   -0.589456
   106  C    0.158889
   107  C   -0.051719
   108  C   -0.173294
   109  C   -0.159031
   110  H    0.317727
   111  H    0.182540
   112  H   -0.009242
   113  H    0.032563
   114  H    0.010388
   115  H    0.056838
   116  H    0.045994
   117  H   -0.029807
   118  H    0.091580
   119  H    0.055500
   120  H    0.061796
   121  N   -0.644634
   122  C    0.362913
   123  C    0.324508
   124  O   -0.272865
   125  C   -0.076551
   126  O   -0.439231
   127  H    0.335860
   128  H    0.030140
   129  H    0.102703
   130  H    0.030831
   131  H    0.381144
   132  N   -0.478079
   133  C    0.246286
   134  C    0.334027
   135  O   -0.483928
   136  C   -0.299359
   137  H    0.286152
   138  H    0.055892
   139  H    0.102573
   140  H    0.091540
   141  H    0.080463
   142  N   -0.181320
   143  C    0.073424
   144  C    0.387616
   145  O   -0.485459
   146  C   -0.301687
   147  H    0.169954
   148  H    0.074838
   149  H    0.042531
   150  H    0.113782
   151  H    0.097906
   152  N   -0.286997
   153  C    0.024635
   154  C    0.375918
   155  O   -0.522911
   156  C   -0.258816
   157  C    0.098872
   158  C    0.844396
   159  O   -0.860421
   160  O   -0.809530
   161  H    0.241260
   162  H    0.050342
   163  H    0.145836
   164  H   -0.051251
   165  H   -0.094734
   166  H    0.005874
   167  N    0.145768
   168  C   -0.212915
   169  H    0.058167
   170  H    0.081119
   171  H    0.092443
   172  H   -0.050068
   173  Ca   1.709446
   174  O   -0.881625
   175  H    0.431404
   176  H    0.407503
 Sum of ESP charges =  -0.00000

 Normal termination of Gaussian 16 at Sat Sep 14 23:26:46 2019.
