 Gaussian 16, Revision A.03,
 Gaussian 16:  ES64L-G16RevA.03 25-Dec-2016

 ----------------------------------------------------------------------
 #b3lyp/svp scf=(tight,noincore) Test #IOP(5/87=12) Density=Current Pop
 =(MK,readradii) iop(6/33=2) iop(6/42=6)
 ----------------------------------------------------------------------

 ------------------
 holoCaM_loop3_92.0
 ------------------
 Symbolic Z-matrix:
 Charge =  0 Multiplicity = 1

                         Standard orientation:
 ---------------------------------------------------------------------
 Center     Atomic      Atomic             Coordinates (Angstroms)
 Number     Number       Type             X           Y           Z
 ---------------------------------------------------------------------
      1          6           0        2.947949    2.830188    5.005459
      2          6           0        2.247136    2.721069    3.662941
      3          8           0        2.944112    2.374981    2.715182
      4          1           0        3.352201    1.856745    5.283643
      5          1           0        3.760323    3.552920    4.934424
      6          1           0        2.234953    3.156837    5.762613
      7          7           0        0.930112    2.958144    3.651037
      8          6           0        0.227793    2.854082    2.399470
      9          6           0        0.271950    4.197234    1.674631
     10          8           0        0.070301    5.247675    2.280280
     11          6           0       -1.174709    2.287137    2.636454
     12          6           0       -1.829353    1.815827    1.346722
     13          8           0       -2.367657    0.690666    1.188160
     14          8           0       -1.849194    2.565980    0.344835
     15          1           0        0.445636    3.233367    4.500705
     16          1           0        0.743016    2.124581    1.785569
     17          1           0       -1.766415    3.022240    3.179509
     18          1           0       -1.149523    1.418223    3.294296
     19          7           0        0.561133    4.181703    0.377391
     20          6           0        0.782699    5.403267   -0.370735
     21          6           0       -0.273842    5.664157   -1.434058
     22          8           0       -0.103868    6.647636   -2.156608
     23          6           0        2.166133    5.391075   -1.001339
     24          6           0        3.336836    5.012806   -0.104418
     25          6           0        3.623272    5.947298    1.063307
     26          6           0        4.986064    5.619878    1.663720
     27          7           0        5.308979    6.484117    2.806269
     28          1           0        0.647020    3.293423   -0.101755
     29          1           0        0.731683    6.298435    0.235047
     30          1           0        2.278666    6.330574   -1.545378
     31          1           0        2.131337    4.667514   -1.817090
     32          1           0        4.166683    5.254411   -0.763799
     33          1           0        3.349164    3.954637    0.181110
     34          1           0        2.934047    5.870606    1.907159
     35          1           0        3.688856    6.985691    0.727393
     36          1           0        5.833249    5.676051    0.970957
     37          1           0        4.930787    4.566967    1.947837
     38          1           0        4.636896    6.333804    3.546748
     39          1           0        6.241307    6.269531    3.119507
     40          1           0        5.237483    7.443657    2.507652
     41          7           0       -1.306624    4.833463   -1.538018
     42          6           0       -2.332933    4.984621   -2.545263
     43          6           0       -3.703838    4.978087   -1.876028
     44          8           0       -4.716487    5.296110   -2.491010
     45          6           0       -2.222269    3.925353   -3.643400
     46          6           0       -2.191902    2.494599   -3.130155
     47          8           0       -1.264778    1.707703   -3.423987
     48          8           0       -3.043357    2.179387   -2.276828
     49          1           0       -1.368559    4.029404   -0.929205
     50          1           0       -2.190211    5.944431   -3.042653
     51          1           0       -1.276695    4.118353   -4.146432
     52          1           0       -3.023175    4.064858   -4.366994
     53          7           0       -3.808433    4.498989   -0.635091
     54          6           0       -5.055628    4.505624    0.109127
     55          6           0       -5.996700    3.383663   -0.300371
     56          8           0       -7.193657    3.619931   -0.398201
     57          1           0       -3.066361    3.963405   -0.198308
     58          1           0       -5.717272    5.322892   -0.155071
     59          1           0       -4.809840    4.469326    1.166327
     60          7           0       -5.538471    2.224164   -0.778062
     61          6           0       -6.276005    1.054922   -1.193654
     62          6           0       -6.419541   -0.054627   -0.152502
     63          8           0       -7.173155   -1.006130   -0.333082
     64          6           0       -5.793978    0.503843   -2.528293
     65          6           0       -4.682899   -0.533184   -2.433545
     66          7           0       -4.730406   -1.632256   -3.189048
     67          8           0       -3.831210   -0.379857   -1.563766
     68          1           0       -4.528771    2.162832   -0.907459
     69          1           0       -7.286450    1.433450   -1.334786
     70          1           0       -5.460690    1.331555   -3.151519
     71          1           0       -6.664737    0.039964   -3.003999
     72          1           0       -5.520490   -1.851814   -3.784751
     73          1           0       -3.992572   -2.303590   -3.054844
     74          7           0       -5.930284    0.137686    1.076336
     75          6           0       -6.062886   -0.725448    2.228211
     76          6           0       -5.139817   -1.932036    2.265501
     77          8           0       -5.427263   -2.856847    3.023525
     78          1           0       -5.370324    0.969566    1.230672
     79          1           0       -7.045064   -1.200344    2.301016
     80          1           0       -5.919324   -0.090821    3.100185
     81          7           0       -4.051755   -1.957829    1.491126
     82          6           0       -3.101384   -3.050430    1.424678
     83          6           0       -1.689051   -2.487989    1.337637
     84          8           0       -1.347598   -1.914185    0.298763
     85          6           0       -3.394749   -3.886091    0.177678
     86          6           0       -4.577361   -4.820749    0.273824
     87          6           0       -5.476102   -4.818969   -0.810962
     88          6           0       -4.753328   -5.644843    1.381030
     89          6           0       -6.582582   -5.665653   -0.774520
     90          6           0       -5.880184   -6.467498    1.420197
     91          6           0       -6.751637   -6.539735    0.311391
     92          8           0       -7.831495   -7.370968    0.263854
     93          1           0       -3.923408   -1.149862    0.904086
     94          1           0       -3.147320   -3.575914    2.375602
     95          1           0       -2.486786   -4.486608    0.078771
     96          1           0       -3.470013   -3.292675   -0.737250
     97          1           0       -5.361575   -4.163743   -1.659114
     98          1           0       -4.023313   -5.666284    2.184845
     99          1           0       -7.272134   -5.777579   -1.604334
    100          1           0       -6.171216   -7.095610    2.250725
    101          1           0       -7.866783   -7.988060    1.001250
    102          7           0       -0.855308   -2.695852    2.359138
    103          6           0        0.548703   -2.370809    2.211492
    104          6           0        1.123730   -3.483022    1.346087
    105          8           0        1.232703   -4.647015    1.709467
    106          6           0        1.249472   -2.131647    3.544581
    107          6           0        0.500170   -1.028884    4.291080
    108          6           0        2.668828   -1.723633    3.183674
    109          6           0        0.843490   -1.200768    5.768641
    110          1           0       -1.054393   -3.367522    3.086960
    111          1           0        0.731377   -1.436666    1.688704
    112          1           0        1.139323   -3.089478    4.047898
    113          1           0       -0.576282   -1.147085    4.256733
    114          1           0        0.854506   -0.094309    3.837080
    115          1           0        3.283004   -1.592031    4.083712
    116          1           0        3.122108   -2.546657    2.637717
    117          1           0        2.713058   -0.828568    2.557413
    118          1           0        1.922643   -1.333634    5.871965
    119          1           0        0.437047   -0.372198    6.359045
    120          1           0        0.322700   -2.068896    6.153519
    121          7           0        1.536100   -3.108482    0.135851
    122          6           0        2.297398   -3.836582   -0.852275
    123          6           0        3.763291   -3.917308   -0.445285
    124          8           0        4.302366   -3.174673    0.376659
    125          6           0        2.120042   -3.215084   -2.227843
    126          8           0        3.305789   -2.664180   -2.769884
    127          1           0        1.492248   -2.096176    0.055756
    128          1           0        1.826255   -4.817827   -0.786834
    129          1           0        1.399365   -2.413499   -2.061147
    130          1           0        1.717341   -3.896201   -2.976182
    131          1           0        3.001100   -2.339644   -3.616490
    132          7           0        4.438460   -4.919244   -1.020500
    133          6           0        5.874096   -5.061753   -0.882149
    134          6           0        6.666007   -3.960475   -1.552569
    135          8           0        7.658681   -3.563681   -0.931480
    136          6           0        6.263522   -6.427187   -1.452882
    137          1           0        3.850129   -5.535537   -1.563316
    138          1           0        6.128608   -5.116629    0.183925
    139          1           0        7.330920   -6.482519   -1.277099
    140          1           0        5.818796   -7.232944   -0.865707
    141          1           0        6.018246   -6.498590   -2.510682
    142          7           0        6.253094   -3.278703   -2.615437
    143          6           0        6.887267   -2.097199   -3.154395
    144          6           0        6.758454   -0.813621   -2.335106
    145          8           0        7.702967   -0.038949   -2.250383
    146          6           0        6.654975   -1.911654   -4.656165
    147          1           0        5.334525   -3.442410   -3.012968
    148          1           0        7.918614   -2.419455   -3.096308
    149          1           0        5.609960   -1.723906   -4.914804
    150          1           0        7.244664   -1.130032   -5.120853
    151          1           0        7.019203   -2.817152   -5.140739
    152          7           0        5.641896   -0.655803   -1.616920
    153          6           0        5.529402    0.420899   -0.649523
    154          6           0        6.372373    0.119114    0.571962
    155          8           0        7.132381    0.923841    1.103848
    156          6           0        4.064440    0.357691   -0.220582
    157          6           0        3.126192    0.945883   -1.267158
    158          6           0        1.643552    0.892482   -0.946804
    159          8           0        1.122100   -0.123024   -0.441596
    160          8           0        0.880496    1.852237   -1.207410
    161          1           0        4.813873   -1.166940   -1.906776
    162          1           0        5.669740    1.399040   -1.106191
    163          1           0        4.064868    0.999020    0.659643
    164          1           0        3.761325   -0.653584    0.045021
    165          1           0        3.241938    0.563980   -2.281925
    166          1           0        3.384121    1.997145   -1.415888
    167          7           0        6.267384   -1.098999    1.133814
    168          6           0        7.022009   -1.465923    2.305782
    169          1           0        7.714535   -2.269772    2.054966
    170          1           0        7.583356   -0.601740    2.662740
    171          1           0        6.340662   -1.804616    3.085827
    172          1           0        5.669821   -1.825859    0.763014
    173         20           0       -1.339361    0.396859   -1.192950
    174          8           0       -0.990556   -1.541261   -2.999348
    175          1           0       -0.137506   -1.475321   -3.440774
    176          1           0       -1.320356   -2.404971   -3.243758
 ---------------------------------------------------------------------

 SCF Done:  E(RB3LYP) =  -5333.62882671     A.U. after   18 cycles

 The electronic state is 1-A.
 Alpha  occ. eigenvalues -- -145.34619 -19.19988 -19.19177 -19.14990 -19.13157
 Alpha  occ. eigenvalues --  -19.11794 -19.11097 -19.10844 -19.09491 -19.09352
 Alpha  occ. eigenvalues --  -19.08959 -19.08555 -19.08359 -19.07957 -19.07000
 Alpha  occ. eigenvalues --  -19.06902 -19.06639 -19.06344 -19.06313 -19.06182
 Alpha  occ. eigenvalues --  -19.04624 -19.04353 -19.03812 -19.03513 -15.40306
 Alpha  occ. eigenvalues --  -14.57458 -14.38351 -14.37888 -14.36979 -14.36916
 Alpha  occ. eigenvalues --  -14.36152 -14.34812 -14.34230 -14.33010 -14.32948
 Alpha  occ. eigenvalues --  -14.32728 -14.31723 -14.31495 -14.30474 -14.30020
 Alpha  occ. eigenvalues --  -12.53922 -12.53893 -12.53878 -10.32552 -10.31266
 Alpha  occ. eigenvalues --  -10.30558 -10.29654 -10.29355 -10.28693 -10.28508
 Alpha  occ. eigenvalues --  -10.27835 -10.27657 -10.27052 -10.26978 -10.26921
 Alpha  occ. eigenvalues --  -10.26518 -10.25632 -10.25529 -10.25461 -10.25442
 Alpha  occ. eigenvalues --  -10.25291 -10.25101 -10.23639 -10.23467 -10.23421
 Alpha  occ. eigenvalues --  -10.23204 -10.23100 -10.22918 -10.22725 -10.22344
 Alpha  occ. eigenvalues --  -10.21985 -10.21935 -10.21853 -10.21180 -10.20964
 Alpha  occ. eigenvalues --  -10.20963 -10.20742 -10.20264 -10.19342 -10.19283
 Alpha  occ. eigenvalues --  -10.19100 -10.18890 -10.18820 -10.18749 -10.18700
 Alpha  occ. eigenvalues --  -10.18483 -10.18408 -10.18373 -10.18228 -10.18168
 Alpha  occ. eigenvalues --  -10.17992 -10.17822 -10.17703 -10.17690 -10.17388
 Alpha  occ. eigenvalues --  -10.17054 -10.14399  -1.77272  -1.12780  -1.08370
 Alpha  occ. eigenvalues --   -1.05786  -1.05769  -1.05490  -1.04881  -1.04729
 Alpha  occ. eigenvalues --   -1.04591  -1.04022  -1.03804  -1.03487  -1.03093
 Alpha  occ. eigenvalues --   -1.02938  -1.02499  -1.02286  -1.01617  -1.01468
 Alpha  occ. eigenvalues --   -1.00290  -0.99496  -0.99461  -0.99371  -0.98866
 Alpha  occ. eigenvalues --   -0.98480  -0.97401  -0.95181  -0.94431  -0.93583
 Alpha  occ. eigenvalues --   -0.92961  -0.92695  -0.92566  -0.91401  -0.91272
 Alpha  occ. eigenvalues --   -0.91266  -0.90627  -0.90152  -0.89133  -0.89017
 Alpha  occ. eigenvalues --   -0.88389  -0.87567  -0.87502  -0.86916  -0.86209
 Alpha  occ. eigenvalues --   -0.83571  -0.82570  -0.81368  -0.80069  -0.79432
 Alpha  occ. eigenvalues --   -0.78926  -0.78534  -0.77629  -0.77027  -0.76248
 Alpha  occ. eigenvalues --   -0.75217  -0.74708  -0.74500  -0.73764  -0.73082
 Alpha  occ. eigenvalues --   -0.72677  -0.72331  -0.72037  -0.71855  -0.70977
 Alpha  occ. eigenvalues --   -0.69832  -0.69304  -0.68849  -0.67947  -0.67599
 Alpha  occ. eigenvalues --   -0.66865  -0.66086  -0.65620  -0.65404  -0.64366
 Alpha  occ. eigenvalues --   -0.63661  -0.62639  -0.61986  -0.61955  -0.61370
 Alpha  occ. eigenvalues --   -0.61259  -0.60784  -0.60717  -0.60563  -0.59760
 Alpha  occ. eigenvalues --   -0.58943  -0.58900  -0.58801  -0.58419  -0.58330
 Alpha  occ. eigenvalues --   -0.58033  -0.57785  -0.57523  -0.56507  -0.56491
 Alpha  occ. eigenvalues --   -0.56064  -0.55670  -0.55606  -0.55485  -0.55337
 Alpha  occ. eigenvalues --   -0.54692  -0.54570  -0.54319  -0.54282  -0.53832
 Alpha  occ. eigenvalues --   -0.53496  -0.52494  -0.52360  -0.51786  -0.51667
 Alpha  occ. eigenvalues --   -0.51530  -0.51375  -0.51113  -0.51016  -0.50888
 Alpha  occ. eigenvalues --   -0.49982  -0.49183  -0.48971  -0.48877  -0.48673
 Alpha  occ. eigenvalues --   -0.48479  -0.48441  -0.48298  -0.48127  -0.48053
 Alpha  occ. eigenvalues --   -0.47798  -0.47432  -0.47192  -0.46998  -0.46875
 Alpha  occ. eigenvalues --   -0.46495  -0.45815  -0.45659  -0.45560  -0.45383
 Alpha  occ. eigenvalues --   -0.45307  -0.45191  -0.45076  -0.44592  -0.44354
 Alpha  occ. eigenvalues --   -0.44147  -0.44068  -0.43952  -0.43766  -0.43680
 Alpha  occ. eigenvalues --   -0.43594  -0.43540  -0.43467  -0.43205  -0.43020
 Alpha  occ. eigenvalues --   -0.42929  -0.42797  -0.42583  -0.42545  -0.42413
 Alpha  occ. eigenvalues --   -0.42229  -0.41962  -0.41931  -0.41753  -0.41748
 Alpha  occ. eigenvalues --   -0.41559  -0.41473  -0.41358  -0.41173  -0.40934
 Alpha  occ. eigenvalues --   -0.40810  -0.40708  -0.40565  -0.40474  -0.40404
 Alpha  occ. eigenvalues --   -0.40232  -0.40011  -0.39898  -0.39751  -0.39641
 Alpha  occ. eigenvalues --   -0.39515  -0.39347  -0.39102  -0.39078  -0.39033
 Alpha  occ. eigenvalues --   -0.38840  -0.38751  -0.38639  -0.38356  -0.38108
 Alpha  occ. eigenvalues --   -0.38062  -0.38011  -0.37907  -0.37813  -0.37722
 Alpha  occ. eigenvalues --   -0.37623  -0.37203  -0.37162  -0.36968  -0.36815
 Alpha  occ. eigenvalues --   -0.36672  -0.36352  -0.36186  -0.36124  -0.36035
 Alpha  occ. eigenvalues --   -0.35759  -0.35693  -0.35659  -0.35475  -0.35382
 Alpha  occ. eigenvalues --   -0.35149  -0.34841  -0.34809  -0.34481  -0.34389
 Alpha  occ. eigenvalues --   -0.34261  -0.34009  -0.33824  -0.33649  -0.33279
 Alpha  occ. eigenvalues --   -0.33188  -0.33089  -0.32990  -0.32709  -0.32597
 Alpha  occ. eigenvalues --   -0.32021  -0.31905  -0.31431  -0.30675  -0.29816
 Alpha  occ. eigenvalues --   -0.29251  -0.29116  -0.29006  -0.28700  -0.27780
 Alpha  occ. eigenvalues --   -0.27563  -0.27526  -0.27088  -0.26610  -0.26529
 Alpha  occ. eigenvalues --   -0.26371  -0.26008  -0.25860  -0.25629  -0.25347
 Alpha  occ. eigenvalues --   -0.25003  -0.24927  -0.24717  -0.24463  -0.24452
 Alpha  occ. eigenvalues --   -0.24265  -0.23827  -0.23640  -0.23452  -0.23292
 Alpha  occ. eigenvalues --   -0.23111  -0.22296  -0.22180  -0.21924  -0.21907
 Alpha  occ. eigenvalues --   -0.21567  -0.21449  -0.21214  -0.20532  -0.20428
 Alpha  occ. eigenvalues --   -0.20002  -0.19665  -0.18751
 Alpha virt. eigenvalues --   -0.09643  -0.03996  -0.03953  -0.03134  -0.01309
 Alpha virt. eigenvalues --   -0.00398  -0.00240  -0.00086   0.00222   0.00288
 Alpha virt. eigenvalues --    0.00737   0.01013   0.01444   0.01802   0.01907

 Mulliken charges:
               1
     1  C    0.085974
     2  C    0.021346
     3  O   -0.291963
     4  H    0.058433
     5  H   -0.014482
     6  H   -0.008776
     7  N   -0.118871
     8  C    0.053587
     9  C    0.085697
    10  O   -0.313690
    11  C    0.149223
    12  C    0.062947
    13  O   -0.396645
    14  O   -0.412839
    15  H    0.132437
    16  H    0.019412
    17  H    0.008152
    18  H   -0.001863
    19  N   -0.146590
    20  C    0.147936
    21  C    0.046760
    22  O   -0.308400
    23  C    0.023431
    24  C    0.042902
    25  C   -0.025863
    26  C   -0.040843
    27  N    0.094362
    28  H    0.153840
    29  H    0.012218
    30  H    0.010964
    31  H    0.008673
    32  H   -0.003949
    33  H    0.054467
    34  H    0.033723
    35  H    0.008478
    36  H    0.065494
    37  H    0.098680
    38  H    0.193898
    39  H    0.196822
    40  H    0.188039
    41  N   -0.144745
    42  C    0.084072
    43  C    0.085540
    44  O   -0.284721
    45  C    0.154908
    46  C    0.077258
    47  O   -0.424227
    48  O   -0.417338
    49  H    0.175991
    50  H    0.018605
    51  H   -0.008874
    52  H    0.012775
    53  N   -0.171310
    54  C    0.243077
    55  C   -0.010354
    56  O   -0.285103
    57  H    0.125546
    58  H    0.027055
    59  H    0.007972
    60  N   -0.173417
    61  C    0.145406
    62  C    0.043432
    63  O   -0.284755
    64  C    0.102897
    65  C    0.071059
    66  N   -0.031895
    67  O   -0.338713
    68  H    0.155740
    69  H    0.032124
    70  H    0.062219
    71  H   -0.000096
    72  H    0.139374
    73  H    0.119717
    74  N   -0.147893
    75  C    0.223833
    76  C    0.015982
    77  O   -0.303566
    78  H    0.122319
    79  H    0.039604
    80  H    0.023293
    81  N   -0.134995
    82  C    0.139162
    83  C    0.145726
    84  O   -0.349578
    85  C    0.176880
    86  C    0.003067
    87  C    0.016158
    88  C    0.036586
    89  C   -0.012913
    90  C   -0.025977
    91  C    0.131963
    92  O   -0.202615
    93  H    0.154295
    94  H   -0.015276
    95  H   -0.011856
    96  H   -0.034923
    97  H   -0.072796
    98  H   -0.034235
    99  H   -0.030292
   100  H   -0.052389
   101  H    0.172184
   102  N   -0.114657
   103  C    0.080814
   104  C    0.041717
   105  O   -0.286471
   106  C   -0.106599
   107  C    0.022702
   108  C    0.048039
   109  C    0.040032
   110  H    0.135873
   111  H    0.019434
   112  H   -0.019955
   113  H    0.007309
   114  H    0.009203
   115  H   -0.002157
   116  H    0.032708
   117  H    0.036986
   118  H    0.005635
   119  H   -0.005467
   120  H    0.002855
   121  N   -0.138234
   122  C    0.060752
   123  C    0.103230
   124  O   -0.268803
   125  C    0.237743
   126  O   -0.291526
   127  H    0.165606
   128  H    0.022985
   129  H   -0.015296
   130  H   -0.004735
   131  H    0.179699
   132  N   -0.118522
   133  C    0.115583
   134  C    0.060919
   135  O   -0.281071
   136  C    0.024340
   137  H    0.113063
   138  H    0.031587
   139  H    0.036715
   140  H    0.030336
   141  H    0.010981
   142  N   -0.125403
   143  C    0.082010
   144  C    0.098807
   145  O   -0.264023
   146  C    0.044497
   147  H    0.097592
   148  H    0.018495
   149  H   -0.011713
   150  H    0.034426
   151  H    0.013955
   152  N   -0.170559
   153  C    0.161089
   154  C    0.099182
   155  O   -0.286549
   156  C   -0.064128
   157  C    0.085794
   158  C    0.140735
   159  O   -0.418845
   160  O   -0.404837
   161  H    0.122590
   162  H   -0.019943
   163  H    0.035363
   164  H    0.019825
   165  H   -0.015380
   166  H   -0.016863
   167  N   -0.187681
   168  C    0.125122
   169  H    0.024572
   170  H    0.027137
   171  H    0.001788
   172  H    0.134769
   173  Ca   1.234487
   174  O   -0.251129
   175  H    0.185327
   176  H    0.172051
 Sum of Mulliken charges =  -0.00000

 Dipole moment (field-independent basis, Debye):
    X=             21.7296    Y=              0.4529    Z=              7.2346  Tot=             22.9067
 Quadrupole moment (field-independent basis, Debye-Ang):
   XX=           -669.4630   YY=           -459.7212   ZZ=           -484.3955
   XY=            148.0782   XZ=             33.6687   YZ=            138.2575

 ESP charges:
               1
     1  C   -0.532275
     2  C    0.863978
     3  O   -0.596084
     4  H    0.159348
     5  H    0.123673
     6  H    0.102641
     7  N   -0.724241
     8  C    0.112171
     9  C    0.506046
    10  O   -0.555981
    11  C   -0.130123
    12  C    0.704885
    13  O   -0.781940
    14  O   -0.555607
    15  H    0.385079
    16  H    0.016289
    17  H    0.083005
    18  H    0.007332
    19  N   -0.396367
    20  C   -0.078079
    21  C    0.618264
    22  O   -0.589614
    23  C    0.172116
    24  C   -0.190630
    25  C   -0.024021
    26  C    0.222925
    27  N   -0.511578
    28  H    0.264929
    29  H    0.071207
    30  H   -0.001317
    31  H    0.001050
    32  H    0.034948
    33  H    0.104551
    34  H    0.027601
    35  H    0.026176
    36  H    0.040644
    37  H    0.023501
    38  H    0.352098
    39  H    0.371020
    40  H    0.349886
    41  N   -0.376547
    42  C    0.046805
    43  C    0.374806
    44  O   -0.487290
    45  C   -0.173368
    46  C    0.700116
    47  O   -0.774071
    48  O   -0.630785
    49  H    0.197222
    50  H    0.097879
    51  H    0.059550
    52  H    0.058646
    53  N   -0.211111
    54  C   -0.233494
    55  C    0.401759
    56  O   -0.547459
    57  H    0.149953
    58  H    0.156501
    59  H    0.101463
    60  N    0.024926
    61  C   -0.180117
    62  C    0.333423
    63  O   -0.458557
    64  C   -0.149799
    65  C    0.625194
    66  N   -0.779870
    67  O   -0.606129
    68  H    0.135406
    69  H    0.160666
    70  H    0.109018
    71  H    0.058476
    72  H    0.376397
    73  H    0.370649
    74  N   -0.118969
    75  C   -0.383542
    76  C    0.659434
    77  O   -0.558356
    78  H    0.185633
    79  H    0.166982
    80  H    0.140742
    81  N   -0.655498
    82  C    0.631101
    83  C    0.456313
    84  O   -0.703767
    85  C   -0.251405
    86  C    0.290565
    87  C   -0.444051
    88  C   -0.356860
    89  C    0.037939
    90  C   -0.067934
    91  C    0.133750
    92  O   -0.506571
    93  H    0.428773
    94  H   -0.071182
    95  H    0.002813
    96  H    0.104688
    97  H    0.176434
    98  H    0.166356
    99  H    0.092093
   100  H    0.101475
   101  H    0.397259
   102  N   -0.740334
   103  C    0.133243
   104  C    0.683901
   105  O   -0.617488
   106  C    0.204544
   107  C    0.203321
   108  C   -0.376082
   109  C   -0.362262
   110  H    0.370767
   111  H    0.095812
   112  H   -0.047869
   113  H    0.009545
   114  H   -0.003709
   115  H    0.109078
   116  H    0.072039
   117  H    0.045217
   118  H    0.063450
   119  H    0.065931
   120  H    0.091584
   121  N   -0.374843
   122  C    0.063682
   123  C    0.375820
   124  O   -0.385273
   125  C    0.097726
   126  O   -0.426563
   127  H    0.351391
   128  H    0.070553
   129  H   -0.034888
   130  H    0.018539
   131  H    0.371005
   132  N   -0.471680
   133  C    0.324031
   134  C    0.394798
   135  O   -0.537795
   136  C   -0.347936
   137  H    0.281088
   138  H    0.051615
   139  H    0.102878
   140  H    0.102459
   141  H    0.078952
   142  N   -0.252414
   143  C   -0.015202
   144  C    0.391399
   145  O   -0.500763
   146  C   -0.266978
   147  H    0.137672
   148  H    0.133739
   149  H    0.056848
   150  H    0.116396
   151  H    0.078455
   152  N   -0.024188
   153  C   -0.345360
   154  C    0.645562
   155  O   -0.593891
   156  C    0.078234
   157  C    0.142268
   158  C    0.617033
   159  O   -0.712666
   160  O   -0.698890
   161  H    0.114685
   162  H    0.117132
   163  H    0.024664
   164  H   -0.100209
   165  H   -0.038659
   166  H   -0.031292
   167  N   -0.174291
   168  C   -0.187990
   169  H    0.082745
   170  H    0.101246
   171  H    0.050891
   172  H    0.172523
   173  Ca   1.712054
   174  O   -0.846453
   175  H    0.432171
   176  H    0.415297
 Sum of ESP charges =   0.00000

 Normal termination of Gaussian 16 at Sat Sep 14 23:26:26 2019.
