 Gaussian 16, Revision A.03,
 Gaussian 16:  ES64L-G16RevA.03 25-Dec-2016

 ----------------------------------------------------------------------
 #b3lyp/svp scf=(tight,noincore) Test #IOP(5/87=12) Density=Current Pop
 =(MK,readradii) iop(6/33=2) iop(6/42=6)
 ----------------------------------------------------------------------

 ------------------
 holoCaM_loop3_33.0
 ------------------
 Symbolic Z-matrix:
 Charge =  0 Multiplicity = 1

                         Standard orientation:
 ---------------------------------------------------------------------
 Center     Atomic      Atomic             Coordinates (Angstroms)
 Number     Number       Type             X           Y           Z
 ---------------------------------------------------------------------
      1          6           0        2.256115    3.055991    5.209773
      2          6           0        1.670196    2.734716    3.843544
      3          8           0        2.479487    2.261502    3.039545
      4          1           0        1.960152    4.062978    5.504051
      5          1           0        1.884377    2.340361    5.942500
      6          1           0        3.343133    2.997082    5.161927
      7          7           0        0.373457    2.941127    3.584195
      8          6           0       -0.278491    2.741086    2.308755
      9          6           0       -0.222082    3.963893    1.400921
     10          8           0       -0.765523    5.045765    1.620748
     11          6           0       -1.734341    2.393152    2.579202
     12          6           0       -2.591692    2.103243    1.356990
     13          8           0       -3.803428    1.841308    1.502890
     14          8           0       -2.026168    2.147702    0.243974
     15          1           0       -0.177792    3.252842    4.372965
     16          1           0        0.292746    1.920634    1.882320
     17          1           0       -2.285605    3.145335    3.142167
     18          1           0       -1.685160    1.448391    3.135267
     19          7           0        0.552783    3.743610    0.338773
     20          6           0        0.999382    4.816292   -0.534212
     21          6           0       -0.049729    5.304237   -1.526923
     22          8           0        0.179499    6.306954   -2.195813
     23          6           0        2.375398    4.518107   -1.110202
     24          6           0        3.490300    4.243795   -0.105987
     25          6           0        3.739535    5.431962    0.821559
     26          6           0        2.937587    5.315030    2.111639
     27          7           0        3.339241    6.360471    3.070767
     28          1           0        0.928824    2.806576    0.264200
     29          1           0        1.163495    5.673108    0.114120
     30          1           0        2.679197    5.394928   -1.675702
     31          1           0        2.250741    3.706147   -1.834896
     32          1           0        4.358781    4.082035   -0.747527
     33          1           0        3.289331    3.316299    0.421328
     34          1           0        3.609285    6.370746    0.275097
     35          1           0        4.783195    5.316087    1.125115
     36          1           0        3.247429    4.360173    2.529306
     37          1           0        1.862009    5.361102    1.922138
     38          1           0        2.712737    6.414277    3.855111
     39          1           0        4.311367    6.230306    3.344683
     40          1           0        3.279769    7.283951    2.664506
     41          7           0       -1.202364    4.635511   -1.614320
     42          6           0       -2.208203    4.899745   -2.620485
     43          6           0       -3.620758    4.634530   -2.099671
     44          8           0       -4.608194    4.804765   -2.821538
     45          6           0       -1.954846    3.909478   -3.743063
     46          6           0       -1.724640    2.495431   -3.252577
     47          8           0       -2.681075    1.886926   -2.729172
     48          8           0       -0.591243    1.950137   -3.198113
     49          1           0       -1.242802    3.871345   -0.952644
     50          1           0       -2.219578    5.935351   -2.967461
     51          1           0       -1.168407    4.310377   -4.393750
     52          1           0       -2.758042    3.934859   -4.488872
     53          7           0       -3.798863    4.250068   -0.843459
     54          6           0       -5.050461    4.139089   -0.117453
     55          6           0       -6.072021    3.049635   -0.443193
     56          8           0       -7.231593    3.206069   -0.054709
     57          1           0       -2.949135    3.966392   -0.365453
     58          1           0       -5.496302    5.106907   -0.310986
     59          1           0       -4.875888    4.193856    0.953025
     60          7           0       -5.670866    1.930515   -1.043896
     61          6           0       -6.478277    0.768505   -1.325180
     62          6           0       -6.689840   -0.214155   -0.182279
     63          8           0       -7.487835   -1.135653   -0.359325
     64          6           0       -5.889541   -0.017656   -2.488512
     65          6           0       -4.585581   -0.771236   -2.279695
     66          7           0       -4.491198   -1.836907   -3.083460
     67          8           0       -3.777537   -0.618756   -1.361427
     68          1           0       -4.673523    1.852975   -1.169974
     69          1           0       -7.440740    1.086806   -1.723237
     70          1           0       -5.663429    0.732560   -3.257570
     71          1           0       -6.596420   -0.739808   -2.907341
     72          1           0       -5.208272   -2.087073   -3.742340
     73          1           0       -3.653323   -2.392572   -3.093492
     74          7           0       -6.056780    0.002723    0.975433
     75          6           0       -6.156098   -0.790100    2.184386
     76          6           0       -5.331215   -2.073914    2.236239
     77          8           0       -5.697939   -3.022274    2.934113
     78          1           0       -5.247238    0.611790    0.951349
     79          1           0       -7.203428   -1.071013    2.290153
     80          1           0       -5.878571   -0.287935    3.111214
     81          7           0       -4.246985   -2.157982    1.465020
     82          6           0       -3.181916   -3.140030    1.493466
     83          6           0       -1.807305   -2.515793    1.302749
     84          8           0       -1.643380   -1.486768    0.640453
     85          6           0       -3.407857   -4.182014    0.395368
     86          6           0       -4.803720   -4.710698    0.237060
     87          6           0       -5.795734   -3.999866   -0.457723
     88          6           0       -5.257336   -5.858377    0.899982
     89          6           0       -7.125685   -4.400960   -0.563339
     90          6           0       -6.571772   -6.337591    0.835068
     91          6           0       -7.487395   -5.616518    0.052197
     92          8           0       -8.801759   -5.985539    0.139786
     93          1           0       -4.257047   -1.369833    0.829316
     94          1           0       -3.186665   -3.743943    2.399979
     95          1           0       -2.690634   -4.984962    0.556199
     96          1           0       -3.090247   -3.811339   -0.576858
     97          1           0       -5.526683   -3.047644   -0.894742
     98          1           0       -4.479865   -6.363041    1.453111
     99          1           0       -7.842155   -3.731199   -1.019400
    100          1           0       -6.842514   -7.229498    1.378667
    101          1           0       -9.002693   -6.625737    0.825404
    102          7           0       -0.759755   -3.254446    1.657617
    103          6           0        0.615318   -2.816410    1.531934
    104          6           0        1.456745   -3.818050    0.743189
    105          8           0        1.538234   -4.989401    1.097727
    106          6           0        1.218277   -2.652912    2.922980
    107          6           0        0.419746   -1.597720    3.680224
    108          6           0        2.677047   -2.196339    2.869763
    109          6           0        0.913947   -1.347196    5.102863
    110          1           0       -0.992074   -4.083522    2.179405
    111          1           0        0.607915   -1.891183    0.951933
    112          1           0        1.205376   -3.548556    3.547844
    113          1           0       -0.660543   -1.791617    3.749360
    114          1           0        0.278353   -0.662029    3.141902
    115          1           0        3.238588   -2.908110    2.262512
    116          1           0        2.757013   -1.277125    2.284228
    117          1           0        3.126645   -2.125768    3.855908
    118          1           0        0.955797   -2.261992    5.709409
    119          1           0        1.885222   -0.875055    5.088461
    120          1           0        0.263593   -0.621474    5.593848
    121          7           0        2.232044   -3.300530   -0.210113
    122          6           0        3.210894   -4.002317   -1.016244
    123          6           0        4.663042   -3.711286   -0.686902
    124          8           0        4.965305   -2.649541   -0.140151
    125          6           0        2.843748   -3.782836   -2.479539
    126          8           0        2.811045   -2.417180   -2.853189
    127          1           0        2.311364   -2.315042   -0.353711
    128          1           0        3.139604   -5.074434   -0.796285
    129          1           0        1.911901   -4.214927   -2.825889
    130          1           0        3.490957   -4.301462   -3.190980
    131          1           0        2.313932   -1.976891   -2.162591
    132          7           0        5.544144   -4.639116   -1.073927
    133          6           0        6.987194   -4.530778   -0.924697
    134          6           0        7.616118   -3.183832   -1.222845
    135          8           0        8.478920   -2.768011   -0.448981
    136          6           0        7.741320   -5.578994   -1.740073
    137          1           0        5.250279   -5.461503   -1.567407
    138          1           0        7.252747   -4.755608    0.114983
    139          1           0        7.579902   -5.470385   -2.816478
    140          1           0        8.815843   -5.449116   -1.595742
    141          1           0        7.455717   -6.597900   -1.473874
    142          7           0        7.146694   -2.381631   -2.187166
    143          6           0        7.657900   -1.072747   -2.513493
    144          6           0        7.114819    0.095685   -1.695246
    145          8           0        7.704845    1.163794   -1.599774
    146          6           0        7.413229   -0.891186   -4.007806
    147          1           0        6.610640   -2.799459   -2.932193
    148          1           0        8.722640   -1.044962   -2.286209
    149          1           0        7.521248    0.141297   -4.327666
    150          1           0        8.136454   -1.543646   -4.494059
    151          1           0        6.408681   -1.214416   -4.264915
    152          7           0        6.020856   -0.118577   -0.952389
    153          6           0        5.530083    0.759802    0.085249
    154          6           0        6.252303    0.560948    1.403641
    155          8           0        6.585902    1.543402    2.061437
    156          6           0        4.022181    0.510703    0.113164
    157          6           0        3.322247    0.715741   -1.221509
    158          6           0        1.832420    0.453669   -1.038659
    159          8           0        1.050431    1.249985   -0.479934
    160          8           0        1.338457   -0.629705   -1.426088
    161          1           0        5.560905   -1.000515   -1.093919
    162          1           0        5.727080    1.797677   -0.209041
    163          1           0        3.696621    1.203459    0.888793
    164          1           0        3.804068   -0.493727    0.489525
    165          1           0        3.757296    0.003813   -1.928257
    166          1           0        3.448161    1.691971   -1.685644
    167          7           0        6.738829   -0.657465    1.680520
    168          6           0        7.366245   -1.055052    2.928788
    169          1           0        7.144462   -0.315663    3.698345
    170          1           0        6.979439   -2.026222    3.236738
    171          1           0        8.445479   -1.120891    2.789038
    172          1           0        6.496472   -1.363837    1.006798
    173         20           0       -1.207467    0.196228   -1.317429
    174          8           0       -1.130233   -2.157676   -2.474264
    175          1           0       -0.770071   -2.217410   -3.355181
    176          1           0       -1.081958   -3.050792   -2.133215
 ---------------------------------------------------------------------

 SCF Done:  E(RB3LYP) =  -5333.63497232     A.U. after   18 cycles

 The electronic state is 1-A.
 Alpha  occ. eigenvalues -- -145.35940 -19.20003 -19.15047 -19.13949 -19.13612
 Alpha  occ. eigenvalues --  -19.13414 -19.12176 -19.12063 -19.11794 -19.11555
 Alpha  occ. eigenvalues --  -19.10032 -19.09879 -19.09507 -19.08539 -19.07674
 Alpha  occ. eigenvalues --  -19.06842 -19.06632 -19.06451 -19.06373 -19.05121
 Alpha  occ. eigenvalues --  -19.04041 -19.03670 -19.03661 -19.03616 -15.41670
 Alpha  occ. eigenvalues --  -14.55967 -14.40967 -14.38811 -14.38471 -14.38072
 Alpha  occ. eigenvalues --  -14.37845 -14.36449 -14.33800 -14.33535 -14.33505
 Alpha  occ. eigenvalues --  -14.33377 -14.32158 -14.31992 -14.30526 -14.29972
 Alpha  occ. eigenvalues --  -12.55286 -12.55250 -12.55236 -10.33477 -10.31873
 Alpha  occ. eigenvalues --  -10.31341 -10.30809 -10.30776 -10.30684 -10.30364
 Alpha  occ. eigenvalues --  -10.28709 -10.27632 -10.27290 -10.27241 -10.26842
 Alpha  occ. eigenvalues --  -10.26359 -10.26284 -10.25740 -10.25503 -10.25459
 Alpha  occ. eigenvalues --  -10.25449 -10.25405 -10.25106 -10.24810 -10.24195
 Alpha  occ. eigenvalues --  -10.23555 -10.23386 -10.23383 -10.23068 -10.23018
 Alpha  occ. eigenvalues --  -10.23013 -10.22939 -10.22338 -10.22148 -10.21302
 Alpha  occ. eigenvalues --  -10.21148 -10.21145 -10.21056 -10.20340 -10.20333
 Alpha  occ. eigenvalues --  -10.20172 -10.20069 -10.19307 -10.19202 -10.19063
 Alpha  occ. eigenvalues --  -10.19060 -10.18969 -10.18773 -10.18745 -10.18163
 Alpha  occ. eigenvalues --  -10.17896 -10.17713 -10.17613 -10.17387 -10.17074
 Alpha  occ. eigenvalues --  -10.16679 -10.14336  -1.78585  -1.11048  -1.07927
 Alpha  occ. eigenvalues --   -1.06878  -1.06766  -1.06622  -1.05871  -1.05374
 Alpha  occ. eigenvalues --   -1.05104  -1.05014  -1.04755  -1.04679  -1.03949
 Alpha  occ. eigenvalues --   -1.02566  -1.02556  -1.02338  -1.02030  -1.00519
 Alpha  occ. eigenvalues --   -1.00493  -1.00065  -0.99732  -0.99324  -0.98755
 Alpha  occ. eigenvalues --   -0.97547  -0.97311  -0.96615  -0.95579  -0.94860
 Alpha  occ. eigenvalues --   -0.94853  -0.94571  -0.94095  -0.91658  -0.91571
 Alpha  occ. eigenvalues --   -0.91538  -0.90895  -0.90716  -0.89342  -0.89181
 Alpha  occ. eigenvalues --   -0.89027  -0.87654  -0.87544  -0.86025  -0.85920
 Alpha  occ. eigenvalues --   -0.83928  -0.83330  -0.82760  -0.80242  -0.79737
 Alpha  occ. eigenvalues --   -0.79383  -0.78880  -0.78781  -0.77874  -0.76863
 Alpha  occ. eigenvalues --   -0.75700  -0.75615  -0.74772  -0.73336  -0.73264
 Alpha  occ. eigenvalues --   -0.73012  -0.72434  -0.71785  -0.71127  -0.70414
 Alpha  occ. eigenvalues --   -0.69797  -0.69690  -0.69103  -0.68893  -0.68199
 Alpha  occ. eigenvalues --   -0.67378  -0.67018  -0.66192  -0.65741  -0.65694
 Alpha  occ. eigenvalues --   -0.65484  -0.64422  -0.62557  -0.62337  -0.62097
 Alpha  occ. eigenvalues --   -0.61803  -0.61768  -0.61357  -0.60433  -0.59925
 Alpha  occ. eigenvalues --   -0.59788  -0.59272  -0.59200  -0.58817  -0.58767
 Alpha  occ. eigenvalues --   -0.58569  -0.58389  -0.58146  -0.56729  -0.56382
 Alpha  occ. eigenvalues --   -0.56124  -0.56049  -0.55954  -0.55576  -0.55468
 Alpha  occ. eigenvalues --   -0.54836  -0.54589  -0.53995  -0.53618  -0.53500
 Alpha  occ. eigenvalues --   -0.53393  -0.53102  -0.53030  -0.52485  -0.52280
 Alpha  occ. eigenvalues --   -0.51928  -0.51729  -0.51393  -0.50754  -0.50619
 Alpha  occ. eigenvalues --   -0.50492  -0.50239  -0.49747  -0.49273  -0.48915
 Alpha  occ. eigenvalues --   -0.48854  -0.48764  -0.48681  -0.48442  -0.48111
 Alpha  occ. eigenvalues --   -0.47966  -0.47901  -0.47666  -0.47545  -0.47304
 Alpha  occ. eigenvalues --   -0.46978  -0.46667  -0.46540  -0.46170  -0.46003
 Alpha  occ. eigenvalues --   -0.45928  -0.45790  -0.45612  -0.45481  -0.45195
 Alpha  occ. eigenvalues --   -0.45032  -0.44892  -0.44684  -0.44587  -0.44420
 Alpha  occ. eigenvalues --   -0.44285  -0.44239  -0.44106  -0.44044  -0.43925
 Alpha  occ. eigenvalues --   -0.43813  -0.43530  -0.43490  -0.43191  -0.43075
 Alpha  occ. eigenvalues --   -0.42696  -0.42592  -0.42478  -0.42437  -0.42208
 Alpha  occ. eigenvalues --   -0.42168  -0.42126  -0.42026  -0.41929  -0.41810
 Alpha  occ. eigenvalues --   -0.41541  -0.41224  -0.41091  -0.40937  -0.40863
 Alpha  occ. eigenvalues --   -0.40746  -0.40514  -0.40495  -0.40088  -0.39871
 Alpha  occ. eigenvalues --   -0.39777  -0.39716  -0.39698  -0.39473  -0.39207
 Alpha  occ. eigenvalues --   -0.39075  -0.38898  -0.38775  -0.38687  -0.38564
 Alpha  occ. eigenvalues --   -0.38517  -0.38484  -0.38185  -0.38137  -0.38018
 Alpha  occ. eigenvalues --   -0.37975  -0.37762  -0.37488  -0.37427  -0.37124
 Alpha  occ. eigenvalues --   -0.36954  -0.36885  -0.36622  -0.36545  -0.36198
 Alpha  occ. eigenvalues --   -0.36093  -0.35923  -0.35841  -0.35721  -0.35470
 Alpha  occ. eigenvalues --   -0.35173  -0.35150  -0.34928  -0.34530  -0.34316
 Alpha  occ. eigenvalues --   -0.34273  -0.34109  -0.33947  -0.33784  -0.33564
 Alpha  occ. eigenvalues --   -0.33112  -0.33065  -0.32976  -0.31946  -0.31918
 Alpha  occ. eigenvalues --   -0.31822  -0.31236  -0.31069  -0.31053  -0.30343
 Alpha  occ. eigenvalues --   -0.30167  -0.29947  -0.29627  -0.29506  -0.29168
 Alpha  occ. eigenvalues --   -0.29137  -0.28444  -0.28276  -0.27811  -0.27522
 Alpha  occ. eigenvalues --   -0.27306  -0.27266  -0.27183  -0.27010  -0.26439
 Alpha  occ. eigenvalues --   -0.25618  -0.25555  -0.24854  -0.24487  -0.24342
 Alpha  occ. eigenvalues --   -0.24199  -0.23965  -0.23840  -0.23672  -0.23437
 Alpha  occ. eigenvalues --   -0.23282  -0.22786  -0.22720  -0.22087  -0.21877
 Alpha  occ. eigenvalues --   -0.21474  -0.21345  -0.20940  -0.20697  -0.20332
 Alpha  occ. eigenvalues --   -0.19505  -0.19117  -0.18777
 Alpha virt. eigenvalues --   -0.08489  -0.03442  -0.02877  -0.02870  -0.02203
 Alpha virt. eigenvalues --   -0.01724  -0.01286  -0.01156  -0.00645  -0.00175
 Alpha virt. eigenvalues --    0.00118   0.00722   0.01290   0.01523   0.01689

 Mulliken charges:
               1
     1  C    0.046184
     2  C   -0.000324
     3  O   -0.293373
     4  H   -0.013274
     5  H    0.054082
     6  H    0.039625
     7  N   -0.111555
     8  C    0.129777
     9  C    0.046653
    10  O   -0.293177
    11  C    0.040168
    12  C    0.145475
    13  O   -0.357121
    14  O   -0.464498
    15  H    0.117434
    16  H    0.014459
    17  H    0.021281
    18  H    0.011605
    19  N   -0.167540
    20  C    0.129162
    21  C    0.057958
    22  O   -0.298375
    23  C    0.025720
    24  C    0.007483
    25  C   -0.024617
    26  C   -0.031470
    27  N    0.084949
    28  H    0.156092
    29  H   -0.032520
    30  H    0.005981
    31  H    0.034698
    32  H    0.035094
    33  H    0.041800
    34  H    0.029328
    35  H    0.013263
    36  H    0.092326
    37  H    0.093498
    38  H    0.183137
    39  H    0.191746
    40  H    0.179289
    41  N   -0.162780
    42  C    0.111586
    43  C    0.035405
    44  O   -0.297620
    45  C    0.151732
    46  C    0.080680
    47  O   -0.418053
    48  O   -0.432946
    49  H    0.198350
    50  H    0.031458
    51  H   -0.016560
    52  H    0.007060
    53  N   -0.139181
    54  C    0.220261
    55  C    0.064411
    56  O   -0.304947
    57  H    0.112877
    58  H    0.004166
    59  H    0.024474
    60  N   -0.138770
    61  C    0.168307
    62  C    0.062092
    63  O   -0.288880
    64  C    0.005383
    65  C    0.129909
    66  N   -0.065288
    67  O   -0.347948
    68  H    0.155765
    69  H    0.027355
    70  H    0.064538
    71  H    0.022262
    72  H    0.125419
    73  H    0.101861
    74  N   -0.159881
    75  C    0.234799
    76  C   -0.001897
    77  O   -0.294490
    78  H    0.155188
    79  H    0.030831
    80  H    0.036932
    81  N   -0.142479
    82  C    0.160610
    83  C    0.120779
    84  O   -0.361563
    85  C    0.152984
    86  C    0.003094
    87  C   -0.025832
    88  C   -0.006569
    89  C    0.007540
    90  C   -0.017003
    91  C    0.182658
    92  O   -0.217166
    93  H    0.141900
    94  H   -0.000075
    95  H   -0.031564
    96  H   -0.050103
    97  H   -0.054609
    98  H   -0.057742
    99  H   -0.008547
   100  H   -0.046111
   101  H    0.172378
   102  N   -0.119777
   103  C    0.153283
   104  C    0.066753
   105  O   -0.275336
   106  C   -0.084114
   107  C   -0.001578
   108  C    0.042792
   109  C    0.037784
   110  H    0.131008
   111  H    0.016228
   112  H   -0.001574
   113  H   -0.010755
   114  H   -0.006019
   115  H    0.012096
   116  H    0.024691
   117  H    0.019371
   118  H    0.012729
   119  H    0.012639
   120  H   -0.003447
   121  N   -0.136106
   122  C    0.052084
   123  C    0.132477
   124  O   -0.284356
   125  C    0.269201
   126  O   -0.326865
   127  H    0.134894
   128  H    0.014870
   129  H   -0.026660
   130  H   -0.031606
   131  H    0.158086
   132  N   -0.099256
   133  C    0.098987
   134  C    0.044664
   135  O   -0.267607
   136  C    0.007644
   137  H    0.122427
   138  H    0.029462
   139  H    0.011794
   140  H    0.050907
   141  H    0.031353
   142  N   -0.127258
   143  C    0.076379
   144  C    0.063430
   145  O   -0.272311
   146  C    0.028812
   147  H    0.111354
   148  H    0.034750
   149  H    0.042000
   150  H    0.019761
   151  H    0.016967
   152  N   -0.176755
   153  C    0.162528
   154  C    0.065929
   155  O   -0.292749
   156  C   -0.090128
   157  C    0.115558
   158  C    0.191250
   159  O   -0.408190
   160  O   -0.452258
   161  H    0.139092
   162  H   -0.000513
   163  H    0.044357
   164  H    0.014046
   165  H   -0.014441
   166  H    0.004530
   167  N   -0.161417
   168  C    0.140892
   169  H    0.023915
   170  H    0.009202
   171  H    0.031244
   172  H    0.123990
   173  Ca   1.262386
   174  O   -0.274707
   175  H    0.194110
   176  H    0.184214
 Sum of Mulliken charges =  -0.00000

 Dipole moment (field-independent basis, Debye):
    X=             22.2063    Y=             -5.3857    Z=              9.0739  Tot=             24.5858
 Quadrupole moment (field-independent basis, Debye-Ang):
   XX=           -691.5398   YY=           -451.1727   ZZ=           -498.0637
   XY=             60.9281   XZ=             16.6090   YZ=            131.4665

 ESP charges:
               1
     1  C   -0.387570
     2  C    0.817249
     3  O   -0.628126
     4  H    0.048789
     5  H    0.124560
     6  H    0.118557
     7  N   -0.959781
     8  C    1.002178
     9  C   -0.131410
    10  O   -0.468396
    11  C   -0.525700
    12  C    0.981364
    13  O   -0.698561
    14  O   -0.903798
    15  H    0.387134
    16  H   -0.168061
    17  H    0.117781
    18  H    0.066551
    19  N    0.037151
    20  C   -0.084848
    21  C    0.704793
    22  O   -0.592283
    23  C   -0.170130
    24  C    0.284685
    25  C   -0.293734
    26  C    0.349557
    27  N   -0.678557
    28  H    0.256858
    29  H    0.010096
    30  H    0.049974
    31  H    0.060605
    32  H    0.015869
    33  H   -0.122105
    34  H    0.084397
    35  H    0.049986
    36  H    0.050146
    37  H    0.079303
    38  H    0.388093
    39  H    0.396347
    40  H    0.380127
    41  N   -0.517405
    42  C    0.005572
    43  C    0.474449
    44  O   -0.546579
    45  C   -0.113857
    46  C    0.690782
    47  O   -0.689910
    48  O   -0.766950
    49  H    0.238601
    50  H    0.131327
    51  H    0.053109
    52  H    0.048316
    53  N   -0.314669
    54  C   -0.247995
    55  C    0.564690
    56  O   -0.579161
    57  H    0.330897
    58  H    0.127186
    59  H    0.138267
    60  N   -0.121186
    61  C   -0.275864
    62  C    0.441386
    63  O   -0.495300
    64  C   -0.184333
    65  C    0.638956
    66  N   -0.842853
    67  O   -0.515974
    68  H    0.156674
    69  H    0.196492
    70  H    0.118682
    71  H    0.086955
    72  H    0.381689
    73  H    0.374741
    74  N   -0.062891
    75  C   -0.356928
    76  C    0.651576
    77  O   -0.546618
    78  H    0.184818
    79  H    0.151839
    80  H    0.134043
    81  N   -0.454061
    82  C    0.009774
    83  C    0.729709
    84  O   -0.693680
    85  C    0.573271
    86  C   -0.368804
    87  C   -0.072472
    88  C    0.006499
    89  C   -0.196802
    90  C   -0.294010
    91  C    0.375628
    92  O   -0.580427
    93  H    0.227632
    94  H    0.033335
    95  H   -0.118092
    96  H   -0.121058
    97  H    0.128488
    98  H    0.077060
    99  H    0.156002
   100  H    0.126982
   101  H    0.427923
   102  N   -0.702942
   103  C   -0.030187
   104  C    0.691831
   105  O   -0.560658
   106  C   -0.011306
   107  C    0.186648
   108  C   -0.242857
   109  C   -0.370313
   110  H    0.350748
   111  H    0.113355
   112  H    0.068436
   113  H   -0.031646
   114  H    0.067582
   115  H    0.061498
   116  H    0.031498
   117  H    0.095108
   118  H    0.088574
   119  H    0.090646
   120  H    0.083343
   121  N   -0.318430
   122  C   -0.456267
   123  C    0.902478
   124  O   -0.582718
   125  C    0.273089
   126  O   -0.550189
   127  H    0.248514
   128  H    0.144730
   129  H    0.018772
   130  H    0.019432
   131  H    0.321806
   132  N   -0.690171
   133  C    0.324864
   134  C    0.441908
   135  O   -0.541799
   136  C   -0.373864
   137  H    0.340192
   138  H    0.041301
   139  H    0.083617
   140  H    0.123932
   141  H    0.113042
   142  N   -0.361019
   143  C    0.215975
   144  C    0.245537
   145  O   -0.501350
   146  C   -0.386871
   147  H    0.237532
   148  H    0.082451
   149  H    0.139691
   150  H    0.090162
   151  H    0.105174
   152  N    0.106401
   153  C   -0.222481
   154  C    0.533244
   155  O   -0.551659
   156  C   -0.179038
   157  C   -0.131719
   158  C    0.864448
   159  O   -0.750005
   160  O   -0.751037
   161  H    0.084259
   162  H    0.116131
   163  H    0.148268
   164  H    0.041114
   165  H    0.005589
   166  H    0.057992
   167  N   -0.191155
   168  C   -0.176449
   169  H    0.087586
   170  H    0.071803
   171  H    0.094864
   172  H    0.192837
   173  Ca   1.613427
   174  O   -0.762464
   175  H    0.412837
   176  H    0.389759
 Sum of ESP charges =   0.00000

 Normal termination of Gaussian 16 at Wed Sep 18 17:29:41 2019.
