 Gaussian 16, Revision A.03,
 Gaussian 16:  ES64L-G16RevA.03 25-Dec-2016

 ----------------------------------------------------------------------
 #b3lyp/svp scf=(tight,noincore) Test #IOP(5/87=12) Density=Current Pop
 =(MK,readradii) iop(6/33=2) iop(6/42=6)
 ----------------------------------------------------------------------

 ------------------
 holoCaM_loop3_58.0
 ------------------
 Symbolic Z-matrix:
 Charge =  0 Multiplicity = 1

                         Standard orientation:
 ---------------------------------------------------------------------
 Center     Atomic      Atomic             Coordinates (Angstroms)
 Number     Number       Type             X           Y           Z
 ---------------------------------------------------------------------
      1          6           0        1.502258    4.657268    4.551046
      2          6           0        0.940252    4.064967    3.274203
      3          8           0        1.637330    3.970318    2.271494
      4          1           0        2.545276    4.361599    4.659401
      5          1           0        1.436054    5.744207    4.508254
      6          1           0        0.930437    4.291989    5.403995
      7          7           0       -0.297768    3.577329    3.359729
      8          6           0       -0.858782    2.761484    2.290075
      9          6           0       -1.434938    3.617707    1.175029
     10          8           0       -2.495840    4.176111    1.427362
     11          6           0       -1.948085    1.930906    2.960045
     12          6           0       -2.689372    1.004291    2.009688
     13          8           0       -2.172266    0.721232    0.905433
     14          8           0       -3.819866    0.619090    2.387181
     15          1           0       -0.840039    3.670794    4.205487
     16          1           0       -0.091870    2.087771    1.902189
     17          1           0       -2.679071    2.682362    3.291668
     18          1           0       -1.533114    1.335246    3.775881
     19          7           0       -0.728508    3.960322    0.092868
     20          6           0       -0.890028    5.124914   -0.761437
     21          6           0       -2.134304    4.957701   -1.621738
     22          8           0       -2.980342    5.850971   -1.572872
     23          6           0        0.415480    5.385994   -1.504396
     24          6           0        1.651019    5.673085   -0.659989
     25          6           0        1.389466    6.897046    0.227936
     26          6           0        0.996084    8.113463   -0.605058
     27          7           0        0.854066    9.266742    0.300634
     28          1           0        0.087189    3.378466    0.012363
     29          1           0       -1.038243    6.004134   -0.138859
     30          1           0        0.213668    6.153778   -2.259101
     31          1           0        0.574590    4.496152   -2.118697
     32          1           0        2.505927    5.765180   -1.328757
     33          1           0        1.913695    4.816027   -0.039544
     34          1           0        2.355817    7.195330    0.631533
     35          1           0        0.749301    6.684020    1.087127
     36          1           0        0.031588    7.970589   -1.089551
     37          1           0        1.824676    8.364097   -1.265299
     38          1           0        1.790635    9.597817    0.483465
     39          1           0        0.430942    9.998541   -0.245201
     40          1           0        0.365949    9.067066    1.158056
     41          7           0       -2.355141    3.875706   -2.369144
     42          6           0       -3.611070    3.541259   -3.005845
     43          6           0       -4.709597    3.132658   -2.035957
     44          8           0       -5.884849    3.174966   -2.392039
     45          6           0       -3.421444    2.501600   -4.106278
     46          6           0       -3.106743    1.079299   -3.675554
     47          8           0       -2.838084    0.883601   -2.468026
     48          8           0       -3.125246    0.172035   -4.537546
     49          1           0       -1.565140    3.251522   -2.433899
     50          1           0       -3.991237    4.431439   -3.525798
     51          1           0       -2.676018    2.869967   -4.808023
     52          1           0       -4.401857    2.436785   -4.578389
     53          7           0       -4.428487    2.764639   -0.775982
     54          6           0       -5.346999    2.699279    0.337016
     55          6           0       -6.137208    1.396550    0.200750
     56          8           0       -7.228037    1.300044    0.739433
     57          1           0       -3.438479    2.748061   -0.602171
     58          1           0       -5.953130    3.598235    0.246555
     59          1           0       -4.862715    2.653041    1.307547
     60          7           0       -5.604047    0.378653   -0.490281
     61          6           0       -6.262908   -0.889136   -0.718346
     62          6           0       -6.217387   -1.833823    0.474170
     63          8           0       -6.726111   -2.949472    0.449113
     64          6           0       -5.649885   -1.539888   -1.949493
     65          6           0       -4.251691   -2.079184   -1.727201
     66          7           0       -3.678855   -2.894157   -2.620833
     67          8           0       -3.528137   -1.810306   -0.763887
     68          1           0       -4.728094    0.557836   -0.954176
     69          1           0       -7.316496   -0.645407   -0.855276
     70          1           0       -5.701523   -0.837090   -2.779859
     71          1           0       -6.212038   -2.393653   -2.329321
     72          1           0       -4.075365   -3.133755   -3.517925
     73          1           0       -2.871726   -3.440540   -2.378743
     74          7           0       -5.620345   -1.442866    1.603592
     75          6           0       -5.752703   -2.118224    2.880492
     76          6           0       -4.507890   -2.887777    3.274992
     77          8           0       -4.536984   -3.641641    4.242743
     78          1           0       -5.179549   -0.527695    1.569534
     79          1           0       -6.549697   -2.858795    2.955017
     80          1           0       -5.865689   -1.292849    3.580914
     81          7           0       -3.411200   -2.711660    2.540790
     82          6           0       -2.196161   -3.502704    2.644856
     83          6           0       -0.983742   -2.864990    2.000294
     84          8           0       -1.120410   -2.177076    0.984865
     85          6           0       -2.358776   -4.875883    1.990842
     86          6           0       -2.941646   -4.990232    0.605711
     87          6           0       -2.137882   -5.192470   -0.518416
     88          6           0       -4.324476   -5.039871    0.368612
     89          6           0       -2.664864   -5.537085   -1.777237
     90          6           0       -4.902356   -5.399282   -0.854286
     91          6           0       -4.050939   -5.696330   -1.933244
     92          8           0       -4.590007   -6.231769   -3.070657
     93          1           0       -3.405928   -1.890298    1.956806
     94          1           0       -1.959760   -3.620154    3.705290
     95          1           0       -3.057468   -5.486790    2.561476
     96          1           0       -1.360410   -5.330131    1.954474
     97          1           0       -1.065842   -5.118698   -0.469536
     98          1           0       -5.035013   -4.835545    1.155242
     99          1           0       -1.983959   -5.715952   -2.600932
    100          1           0       -5.957028   -5.550650   -1.013516
    101          1           0       -5.543363   -6.105729   -3.055591
    102          7           0        0.231569   -3.144592    2.482418
    103          6           0        1.477405   -2.561303    2.038158
    104          6           0        2.251392   -3.457273    1.089958
    105          8           0        2.529589   -4.633107    1.317159
    106          6           0        2.321712   -2.261528    3.268799
    107          6           0        1.674765   -1.208667    4.166543
    108          6           0        3.770912   -1.912689    2.932597
    109          6           0        1.639844    0.174995    3.523380
    110          1           0        0.194161   -3.732194    3.312011
    111          1           0        1.242962   -1.629618    1.524641
    112          1           0        2.433879   -3.216561    3.780396
    113          1           0        1.975335   -1.228031    5.207976
    114          1           0        0.629786   -1.517821    4.214941
    115          1           0        4.287130   -2.775119    2.523777
    116          1           0        3.727249   -1.144364    2.151655
    117          1           0        4.390273   -1.690241    3.804325
    118          1           0        1.160898    0.946020    4.128302
    119          1           0        2.668694    0.523272    3.401434
    120          1           0        1.195511    0.146101    2.536752
    121          7           0        2.725119   -2.846619    0.005621
    122          6           0        3.688114   -3.356949   -0.950205
    123          6           0        5.155336   -3.014484   -0.690056
    124          8           0        5.406142   -2.189736    0.183149
    125          6           0        3.213412   -2.974562   -2.347717
    126          8           0        2.873024   -1.617381   -2.538233
    127          1           0        2.411969   -1.894997   -0.112917
    128          1           0        3.706045   -4.439689   -0.852988
    129          1           0        2.353571   -3.573520   -2.649086
    130          1           0        4.033828   -3.245932   -3.014632
    131          1           0        2.231963   -1.351483   -1.872773
    132          7           0        6.094032   -3.635738   -1.405872
    133          6           0        7.532313   -3.476694   -1.343002
    134          6           0        7.963635   -2.024333   -1.472650
    135          8           0        8.886906   -1.582217   -0.803617
    136          6           0        8.165933   -4.350135   -2.427911
    137          1           0        5.866851   -4.217755   -2.204085
    138          1           0        7.871041   -3.680331   -0.334540
    139          1           0        7.935088   -5.388425   -2.236174
    140          1           0        8.074948   -4.090746   -3.485521
    141          1           0        9.247868   -4.372420   -2.309928
    142          7           0        7.312204   -1.263024   -2.368779
    143          6           0        7.451845    0.175954   -2.457895
    144          6           0        6.980912    0.889845   -1.199848
    145          8           0        7.624664    1.841858   -0.753020
    146          6           0        6.738224    0.692372   -3.707238
    147          1           0        6.640329   -1.748098   -2.952635
    148          1           0        8.489715    0.435274   -2.645455
    149          1           0        5.667131    0.634975   -3.494716
    150          1           0        7.159398    1.683762   -3.835135
    151          1           0        6.984273    0.041885   -4.539601
    152          7           0        5.794346    0.596106   -0.655349
    153          6           0        5.160763    1.283910    0.445014
    154          6           0        5.867520    0.965707    1.752355
    155          8           0        5.889878    1.835992    2.610146
    156          6           0        3.658029    0.995856    0.482654
    157          6           0        2.806420    1.660203   -0.600630
    158          6           0        1.490533    0.913314   -0.684885
    159          8           0        0.411529    1.540387   -0.791797
    160          8           0        1.444525   -0.337141   -0.622072
    161          1           0        5.223535   -0.168586   -0.994054
    162          1           0        5.226119    2.341453    0.193757
    163          1           0        3.293979    1.323419    1.454647
    164          1           0        3.539590   -0.085874    0.398206
    165          1           0        3.260195    1.457594   -1.566621
    166          1           0        2.731639    2.733625   -0.453754
    167          7           0        6.495706   -0.209756    1.821419
    168          6           0        7.323552   -0.397077    2.992351
    169          1           0        6.987147    0.272016    3.785084
    170          1           0        7.245987   -1.430480    3.331733
    171          1           0        8.360977   -0.172881    2.744598
    172          1           0        6.315816   -0.886698    1.092867
    173         20           0       -1.189186   -0.493784   -1.041511
    174          8           0       -0.300220   -0.250745   -3.579063
    175          1           0       -1.099786   -0.165739   -4.109033
    176          1           0        0.354866   -0.564476   -4.191464
 ---------------------------------------------------------------------

 SCF Done:  E(RB3LYP) =  -5333.60643317     A.U. after   17 cycles

 The electronic state is 1-A.
 Alpha  occ. eigenvalues -- -145.37237 -19.15497 -19.14922 -19.14497 -19.13779
 Alpha  occ. eigenvalues --  -19.11682 -19.11635 -19.10747 -19.10604 -19.09935
 Alpha  occ. eigenvalues --  -19.09833 -19.09038 -19.08228 -19.08135 -19.08076
 Alpha  occ. eigenvalues --  -19.06383 -19.05827 -19.05353 -19.04911 -19.04734
 Alpha  occ. eigenvalues --  -19.04425 -19.04232 -19.03380 -19.03164 -15.42968
 Alpha  occ. eigenvalues --  -14.58738 -14.39759 -14.37011 -14.36903 -14.36215
 Alpha  occ. eigenvalues --  -14.35792 -14.34363 -14.34165 -14.33916 -14.33394
 Alpha  occ. eigenvalues --  -14.31709 -14.31448 -14.29879 -14.29632 -14.28830
 Alpha  occ. eigenvalues --  -12.56587 -12.56546 -12.56530 -10.35150 -10.32211
 Alpha  occ. eigenvalues --  -10.29904 -10.29545 -10.29340 -10.29222 -10.28594
 Alpha  occ. eigenvalues --  -10.28254 -10.27572 -10.27402 -10.27156 -10.26781
 Alpha  occ. eigenvalues --  -10.26347 -10.26344 -10.25560 -10.24800 -10.24788
 Alpha  occ. eigenvalues --  -10.24352 -10.23974 -10.23877 -10.23868 -10.23727
 Alpha  occ. eigenvalues --  -10.23694 -10.23681 -10.23631 -10.22922 -10.22839
 Alpha  occ. eigenvalues --  -10.22695 -10.22447 -10.22326 -10.21678 -10.21192
 Alpha  occ. eigenvalues --  -10.20827 -10.20506 -10.20372 -10.20036 -10.19371
 Alpha  occ. eigenvalues --  -10.19330 -10.19012 -10.18641 -10.18328 -10.18291
 Alpha  occ. eigenvalues --  -10.18136 -10.18123 -10.17967 -10.17722 -10.17697
 Alpha  occ. eigenvalues --  -10.17400 -10.17198 -10.17174 -10.17115 -10.16568
 Alpha  occ. eigenvalues --  -10.16213 -10.16033  -1.79810  -1.14436  -1.07750
 Alpha  occ. eigenvalues --   -1.07335  -1.07158  -1.06999  -1.05437  -1.04397
 Alpha  occ. eigenvalues --   -1.04030  -1.03960  -1.03679  -1.03254  -1.02495
 Alpha  occ. eigenvalues --   -1.02119  -1.02075  -1.01449  -1.01140  -1.01077
 Alpha  occ. eigenvalues --   -0.99534  -0.99439  -0.98747  -0.98253  -0.98090
 Alpha  occ. eigenvalues --   -0.97699  -0.96772  -0.96663  -0.95030  -0.93708
 Alpha  occ. eigenvalues --   -0.93454  -0.92777  -0.92683  -0.91917  -0.91230
 Alpha  occ. eigenvalues --   -0.90558  -0.89577  -0.89029  -0.88929  -0.88749
 Alpha  occ. eigenvalues --   -0.88337  -0.88193  -0.87660  -0.86297  -0.85285
 Alpha  occ. eigenvalues --   -0.83461  -0.82522  -0.81808  -0.81672  -0.79613
 Alpha  occ. eigenvalues --   -0.78431  -0.78018  -0.77772  -0.77516  -0.77004
 Alpha  occ. eigenvalues --   -0.75789  -0.75397  -0.74258  -0.74182  -0.73109
 Alpha  occ. eigenvalues --   -0.72776  -0.72647  -0.72408  -0.72315  -0.70305
 Alpha  occ. eigenvalues --   -0.69764  -0.69410  -0.69170  -0.68249  -0.67673
 Alpha  occ. eigenvalues --   -0.67246  -0.66027  -0.65045  -0.64882  -0.64687
 Alpha  occ. eigenvalues --   -0.64167  -0.63599  -0.63348  -0.62264  -0.61651
 Alpha  occ. eigenvalues --   -0.61542  -0.60646  -0.60498  -0.60296  -0.60149
 Alpha  occ. eigenvalues --   -0.59444  -0.59068  -0.58217  -0.58136  -0.57894
 Alpha  occ. eigenvalues --   -0.57806  -0.57260  -0.56695  -0.56660  -0.56132
 Alpha  occ. eigenvalues --   -0.55178  -0.54684  -0.54656  -0.54328  -0.54291
 Alpha  occ. eigenvalues --   -0.53814  -0.53537  -0.53384  -0.53136  -0.53044
 Alpha  occ. eigenvalues --   -0.52904  -0.52650  -0.52050  -0.51984  -0.51718
 Alpha  occ. eigenvalues --   -0.51194  -0.50770  -0.50658  -0.50265  -0.50089
 Alpha  occ. eigenvalues --   -0.49910  -0.49617  -0.49472  -0.49412  -0.49167
 Alpha  occ. eigenvalues --   -0.48509  -0.48492  -0.48355  -0.47905  -0.47647
 Alpha  occ. eigenvalues --   -0.47481  -0.47093  -0.47000  -0.46842  -0.46588
 Alpha  occ. eigenvalues --   -0.46288  -0.46075  -0.45958  -0.45860  -0.45831
 Alpha  occ. eigenvalues --   -0.45668  -0.45597  -0.45515  -0.45185  -0.45065
 Alpha  occ. eigenvalues --   -0.44847  -0.44633  -0.44138  -0.44090  -0.43822
 Alpha  occ. eigenvalues --   -0.43737  -0.43337  -0.43143  -0.43044  -0.42933
 Alpha  occ. eigenvalues --   -0.42817  -0.42545  -0.42252  -0.42091  -0.42030
 Alpha  occ. eigenvalues --   -0.41903  -0.41858  -0.41773  -0.41624  -0.41502
 Alpha  occ. eigenvalues --   -0.41432  -0.41364  -0.41285  -0.41053  -0.40757
 Alpha  occ. eigenvalues --   -0.40708  -0.40660  -0.40558  -0.40507  -0.40368
 Alpha  occ. eigenvalues --   -0.40244  -0.39998  -0.39652  -0.39606  -0.39496
 Alpha  occ. eigenvalues --   -0.39367  -0.39275  -0.39142  -0.39104  -0.38933
 Alpha  occ. eigenvalues --   -0.38863  -0.38727  -0.38598  -0.38486  -0.38368
 Alpha  occ. eigenvalues --   -0.37923  -0.37802  -0.37601  -0.37518  -0.37416
 Alpha  occ. eigenvalues --   -0.37171  -0.37141  -0.37033  -0.36931  -0.36476
 Alpha  occ. eigenvalues --   -0.36247  -0.36157  -0.35985  -0.35955  -0.35905
 Alpha  occ. eigenvalues --   -0.35855  -0.35714  -0.35649  -0.35232  -0.34983
 Alpha  occ. eigenvalues --   -0.34445  -0.34434  -0.34205  -0.33947  -0.33728
 Alpha  occ. eigenvalues --   -0.33706  -0.33513  -0.33032  -0.32864  -0.32773
 Alpha  occ. eigenvalues --   -0.32558  -0.32399  -0.32178  -0.31997  -0.31734
 Alpha  occ. eigenvalues --   -0.31373  -0.31115  -0.31034  -0.30661  -0.30618
 Alpha  occ. eigenvalues --   -0.29471  -0.28906  -0.28695  -0.28409  -0.28120
 Alpha  occ. eigenvalues --   -0.28075  -0.27361  -0.26843  -0.26717  -0.26394
 Alpha  occ. eigenvalues --   -0.26300  -0.26100  -0.25972  -0.25785  -0.25560
 Alpha  occ. eigenvalues --   -0.25356  -0.25282  -0.24411  -0.23797  -0.23587
 Alpha  occ. eigenvalues --   -0.23396  -0.23321  -0.23197  -0.22749  -0.22666
 Alpha  occ. eigenvalues --   -0.22617  -0.22526  -0.22118  -0.21762  -0.21684
 Alpha  occ. eigenvalues --   -0.21363  -0.20703  -0.20359  -0.20132  -0.19425
 Alpha  occ. eigenvalues --   -0.19290  -0.19133  -0.18346
 Alpha virt. eigenvalues --   -0.10980  -0.05647  -0.04404  -0.02060  -0.01280
 Alpha virt. eigenvalues --   -0.00660  -0.00343   0.00116   0.00292   0.00332
 Alpha virt. eigenvalues --    0.00961   0.01044   0.01457   0.01586   0.01858

 Mulliken charges:
               1
     1  C    0.060285
     2  C    0.025606
     3  O   -0.297458
     4  H    0.056352
     5  H    0.009016
     6  H    0.008140
     7  N   -0.118059
     8  C    0.110921
     9  C    0.054683
    10  O   -0.295240
    11  C    0.038988
    12  C    0.167817
    13  O   -0.470862
    14  O   -0.389729
    15  H    0.123380
    16  H   -0.000595
    17  H    0.018367
    18  H    0.011018
    19  N   -0.117718
    20  C    0.171453
    21  C    0.040166
    22  O   -0.275064
    23  C   -0.043504
    24  C    0.060325
    25  C   -0.063013
    26  C    0.003178
    27  N    0.090790
    28  H    0.136053
    29  H   -0.053687
    30  H   -0.000762
    31  H    0.014657
    32  H    0.009436
    33  H    0.081865
    34  H    0.005385
    35  H    0.063770
    36  H    0.097705
    37  H    0.067775
    38  H    0.185128
    39  H    0.190095
    40  H    0.200604
    41  N   -0.130363
    42  C    0.174646
    43  C    0.034148
    44  O   -0.285147
    45  C    0.043573
    46  C    0.120631
    47  O   -0.462219
    48  O   -0.391989
    49  H    0.122719
    50  H    0.010018
    51  H    0.002507
    52  H    0.033059
    53  N   -0.177087
    54  C    0.268651
    55  C    0.014671
    56  O   -0.290909
    57  H    0.135284
    58  H    0.013408
    59  H    0.051676
    60  N   -0.182039
    61  C    0.191029
    62  C    0.042183
    63  O   -0.312854
    64  C    0.069173
    65  C    0.073713
    66  N   -0.023597
    67  O   -0.346641
    68  H    0.148821
    69  H    0.022565
    70  H    0.059814
    71  H    0.008014
    72  H    0.114425
    73  H    0.105030
    74  N   -0.175499
    75  C    0.265567
    76  C   -0.020324
    77  O   -0.302612
    78  H    0.165176
    79  H    0.037095
    80  H    0.032618
    81  N   -0.132351
    82  C    0.188710
    83  C    0.068998
    84  O   -0.358080
    85  C    0.144323
    86  C    0.034270
    87  C   -0.048418
    88  C   -0.004730
    89  C   -0.077303
    90  C   -0.016783
    91  C    0.140600
    92  O   -0.205503
    93  H    0.166496
    94  H   -0.007252
    95  H    0.029951
    96  H   -0.013366
    97  H   -0.038985
    98  H    0.000865
    99  H   -0.036865
   100  H   -0.036873
   101  H    0.175056
   102  N   -0.099250
   103  C    0.151838
   104  C    0.049267
   105  O   -0.274985
   106  C   -0.158628
   107  C    0.099091
   108  C    0.081891
   109  C   -0.045437
   110  H    0.134835
   111  H    0.011691
   112  H   -0.012150
   113  H   -0.002076
   114  H   -0.032274
   115  H    0.011018
   116  H    0.003300
   117  H    0.011360
   118  H    0.005463
   119  H    0.035919
   120  H    0.038657
   121  N   -0.152647
   122  C    0.090841
   123  C    0.100143
   124  O   -0.274127
   125  C    0.258757
   126  O   -0.341670
   127  H    0.146291
   128  H    0.022260
   129  H    0.004667
   130  H   -0.039779
   131  H    0.171107
   132  N   -0.117153
   133  C    0.083544
   134  C    0.047116
   135  O   -0.240942
   136  C    0.028105
   137  H    0.123275
   138  H    0.027130
   139  H    0.030592
   140  H    0.027879
   141  H    0.036054
   142  N   -0.144654
   143  C    0.095538
   144  C    0.077562
   145  O   -0.268138
   146  C    0.047495
   147  H    0.099600
   148  H    0.009411
   149  H    0.016255
   150  H    0.037726
   151  H    0.013243
   152  N   -0.158286
   153  C    0.136933
   154  C    0.072971
   155  O   -0.286831
   156  C   -0.094151
   157  C    0.165275
   158  C    0.169317
   159  O   -0.399058
   160  O   -0.470505
   161  H    0.105088
   162  H   -0.013823
   163  H    0.034878
   164  H    0.031515
   165  H   -0.002553
   166  H   -0.013613
   167  N   -0.168745
   168  C    0.137808
   169  H    0.033167
   170  H    0.001102
   171  H    0.026853
   172  H    0.134303
   173  Ca   1.298729
   174  O   -0.315992
   175  H    0.167553
   176  H    0.174088
 Sum of Mulliken charges =  -0.00000

 Dipole moment (field-independent basis, Debye):
    X=             20.8752    Y=             21.7343    Z=             -7.1162  Tot=             30.9644
 Quadrupole moment (field-independent basis, Debye-Ang):
   XX=           -746.3913   YY=           -261.1263   ZZ=           -546.6387
   XY=             18.9459   XZ=            -28.5228   YZ=             51.8520

 ESP charges:
               1
     1  C   -0.418800
     2  C    0.792660
     3  O   -0.667279
     4  H    0.141341
     5  H    0.087868
     6  H    0.096470
     7  N   -0.747981
     8  C    0.611328
     9  C    0.391922
    10  O   -0.545501
    11  C   -0.544869
    12  C    0.850527
    13  O   -0.785638
    14  O   -0.660153
    15  H    0.359884
    16  H   -0.129046
    17  H    0.115129
    18  H    0.125476
    19  N   -0.141628
    20  C   -0.142676
    21  C    0.589717
    22  O   -0.569344
    23  C   -0.006374
    24  C   -0.231442
    25  C    0.061270
    26  C    0.100149
    27  N   -0.518686
    28  H    0.218630
    29  H    0.084567
    30  H    0.002217
    31  H    0.039271
    32  H    0.080276
    33  H    0.135661
    34  H    0.012904
    35  H    0.029044
    36  H    0.082311
    37  H    0.074916
    38  H    0.356687
    39  H    0.364906
    40  H    0.378338
    41  N   -0.559039
    42  C    0.358846
    43  C    0.267518
    44  O   -0.544834
    45  C   -0.496115
    46  C    0.896920
    47  O   -0.748823
    48  O   -0.715892
    49  H    0.314113
    50  H    0.046709
    51  H    0.106097
    52  H    0.127902
    53  N    0.263514
    54  C   -0.412840
    55  C    0.638614
    56  O   -0.588258
    57  H   -0.067361
    58  H    0.144512
    59  H    0.187799
    60  N   -0.306044
    61  C   -0.168961
    62  C    0.437134
    63  O   -0.551626
    64  C   -0.173556
    65  C    0.706982
    66  N   -0.875117
    67  O   -0.583464
    68  H    0.204961
    69  H    0.157116
    70  H    0.130263
    71  H    0.075886
    72  H    0.375595
    73  H    0.368914
    74  N    0.006061
    75  C   -0.424511
    76  C    0.669205
    77  O   -0.576892
    78  H    0.182291
    79  H    0.165048
    80  H    0.159110
    81  N   -0.402286
    82  C   -0.012977
    83  C    0.803324
    84  O   -0.626609
    85  C   -0.296598
    86  C    0.202597
    87  C   -0.248728
    88  C   -0.174533
    89  C   -0.246960
    90  C   -0.325368
    91  C    0.432662
    92  O   -0.579386
    93  H    0.211330
    94  H    0.072792
    95  H    0.127795
    96  H    0.079860
    97  H    0.144692
    98  H    0.192518
    99  H    0.133239
   100  H    0.159825
   101  H    0.410605
   102  N   -0.637013
   103  C    0.175099
   104  C    0.483110
   105  O   -0.529492
   106  C   -0.033193
   107  C   -0.039030
   108  C   -0.045920
   109  C   -0.085744
   110  H    0.325489
   111  H    0.037950
   112  H    0.037787
   113  H    0.043930
   114  H   -0.021309
   115  H    0.060078
   116  H   -0.136006
   117  H    0.051503
   118  H    0.033607
   119  H    0.027676
   120  H    0.116060
   121  N   -0.189917
   122  C   -0.108969
   123  C    0.645822
   124  O   -0.442214
   125  C    0.216586
   126  O   -0.591298
   127  H    0.023045
   128  H    0.071657
   129  H    0.006202
   130  H    0.007468
   131  H    0.419666
   132  N   -0.491671
   133  C    0.130434
   134  C    0.537575
   135  O   -0.526147
   136  C   -0.283433
   137  H    0.260424
   138  H    0.066323
   139  H    0.095719
   140  H    0.087088
   141  H    0.106119
   142  N   -0.605191
   143  C    0.450097
   144  C    0.144733
   145  O   -0.486148
   146  C   -0.373380
   147  H    0.308156
   148  H    0.023443
   149  H    0.069049
   150  H    0.116403
   151  H    0.092821
   152  N    0.180830
   153  C   -0.557955
   154  C    0.662645
   155  O   -0.577638
   156  C    0.369294
   157  C   -0.345943
   158  C    0.836996
   159  O   -0.741419
   160  O   -0.601805
   161  H    0.105688
   162  H    0.174842
   163  H    0.059252
   164  H   -0.263569
   165  H    0.052289
   166  H    0.106837
   167  N   -0.104422
   168  C   -0.218081
   169  H    0.093378
   170  H    0.067690
   171  H    0.088898
   172  H    0.156779
   173  Ca   1.530463
   174  O   -0.866390
   175  H    0.390485
   176  H    0.426189
 Sum of ESP charges =   0.00000

 Normal termination of Gaussian 16 at Wed Sep 18 20:23:11 2019.
