 Gaussian 09, Revision D.01,
 Gaussian 09:  ES64L-G09RevD.01 24-Apr-2013

 ----------------------------------------------------------------------
 #maxdisk=50GB #B3LYP/SVP Density=Current scf=(tight) #IOP(5/87=12)Pop=
 (MK,readradii) iop(6/33=2) iop(6/42=6)
 ----------------------------------------------------------------------

 ------------
 SOL molecule
 ------------
 Symbolic Z-matrix:
 Charge =  0 Multiplicity = 1

                         Standard orientation:
 ---------------------------------------------------------------------
 Center     Atomic      Atomic             Coordinates (Angstroms)
 Number     Number       Type             X           Y           Z
 ---------------------------------------------------------------------
      1          6           0        1.705110    3.945881    5.703380
      2          6           0        1.423538    3.322854    4.340239
      3          8           0        2.360418    3.103708    3.577394
      4          1           0        2.673998    3.602054    6.066205
      5          1           0        1.716121    5.032357    5.611971
      6          1           0        0.928001    3.647424    6.407151
      7          7           0        0.167566    3.051045    3.973285
      8          6           0       -0.243007    2.842415    2.594843
      9          6           0       -0.288714    4.091515    1.739940
     10          8           0       -0.595822    5.177752    2.226844
     11          6           0       -1.636653    2.218871    2.737819
     12          6           0       -2.283534    1.607299    1.503589
     13          8           0       -2.020082    1.974192    0.337191
     14          8           0       -3.193401    0.765907    1.614951
     15          1           0       -0.570379    3.282506    4.614582
     16          1           0        0.402444    2.163345    2.028312
     17          1           0       -2.342495    2.952498    3.108196
     18          1           0       -1.587691    1.445488    3.502268
     19          7           0        0.091433    3.931547    0.470098
     20          6           0        0.311737    5.028442   -0.456017
     21          6           0       -0.835790    5.286653   -1.414510
     22          8           0       -0.901411    6.342945   -2.042634
     23          6           0        1.614807    4.809708   -1.216782
     24          6           0        2.916897    4.839376   -0.411376
     25          6           0        3.356153    6.240151    0.007655
     26          6           0        3.797892    7.216583   -1.080805
     27          7           0        4.369852    8.420108   -0.476082
     28          1           0        0.392052    3.001274    0.229433
     29          1           0        0.356089    5.988257    0.055244
     30          1           0        1.720312    5.637766   -1.926914
     31          1           0        1.496431    3.924703   -1.835858
     32          1           0        3.690061    4.363490   -1.002518
     33          1           0        2.697709    4.285212    0.499151
     34          1           0        4.214244    6.190599    0.678941
     35          1           0        2.552570    6.612942    0.638116
     36          1           0        2.870088    7.379977   -1.616887
     37          1           0        4.535964    6.679627   -1.683737
     38          1           0        4.988906    9.034178   -0.978664
     39          1           0        3.649632    9.054446   -0.150815
     40          1           0        4.789135    8.342235    0.435092
     41          7           0       -1.813206    4.373799   -1.512265
     42          6           0       -3.111531    4.714951   -2.044400
     43          6           0       -4.252319    4.486784   -1.063308
     44          8           0       -5.363430    4.766874   -1.514065
     45          6           0       -3.433359    4.054099   -3.380178
     46          6           0       -3.269219    2.539537   -3.419648
     47          8           0       -3.105086    1.964702   -4.509981
     48          8           0       -3.200951    1.924181   -2.335270
     49          1           0       -1.697412    3.532954   -0.962018
     50          1           0       -3.254190    5.787212   -2.237542
     51          1           0       -2.787998    4.471811   -4.148375
     52          1           0       -4.474719    4.185891   -3.677500
     53          7           0       -4.007984    3.998664    0.152644
     54          6           0       -5.016597    3.588924    1.121052
     55          6           0       -5.920022    2.428203    0.738362
     56          8           0       -7.042592    2.315271    1.229465
     57          1           0       -3.091986    3.632985    0.355197
     58          1           0       -5.661113    4.448611    1.342943
     59          1           0       -4.492181    3.297692    2.027182
     60          7           0       -5.603560    1.668634   -0.306486
     61          6           0       -6.512742    0.699585   -0.867584
     62          6           0       -6.625014   -0.567828   -0.032861
     63          8           0       -7.429975   -1.436300   -0.356426
     64          6           0       -6.187899    0.426944   -2.330678
     65          6           0       -5.077012   -0.586136   -2.560895
     66          7           0       -5.271742   -1.582829   -3.417448
     67          8           0       -4.111111   -0.733913   -1.811964
     68          1           0       -4.706542    1.810084   -0.757431
     69          1           0       -7.489593    1.175185   -0.762868
     70          1           0       -6.040221    1.298108   -2.974001
     71          1           0       -7.079606   -0.047555   -2.748899
     72          1           0       -5.986160   -1.569182   -4.135306
     73          1           0       -4.488650   -2.202590   -3.564291
     74          7           0       -5.822285   -0.691290    1.024912
     75          6           0       -6.049483   -1.615618    2.120949
     76          6           0       -4.966776   -2.679587    2.246704
     77          8           0       -5.105248   -3.626037    3.015116
     78          1           0       -5.149218    0.034804    1.231719
     79          1           0       -7.029371   -2.093361    2.083797
     80          1           0       -6.051354   -1.057585    3.061319
     81          7           0       -3.845352   -2.570684    1.525421
     82          6           0       -2.687278   -3.446539    1.470254
     83          6           0       -1.399717   -2.666577    1.222974
     84          8           0       -1.342797   -1.581677    0.650217
     85          6           0       -2.723599   -4.559815    0.440741
     86          6           0       -4.028226   -5.232700    0.065411
     87          6           0       -4.841068   -4.621105   -0.895287
     88          6           0       -4.467729   -6.349364    0.787907
     89          6           0       -6.091412   -5.184421   -1.185482
     90          6           0       -5.721306   -6.893844    0.486103
     91          6           0       -6.554514   -6.315397   -0.488250
     92          8           0       -7.698825   -6.990983   -0.817846
     93          1           0       -3.663984   -1.649717    1.143028
     94          1           0       -2.586379   -3.980738    2.418806
     95          1           0       -1.965247   -5.311903    0.637376
     96          1           0       -2.528558   -4.093506   -0.528080
     97          1           0       -4.562732   -3.745886   -1.465042
     98          1           0       -3.732332   -6.715491    1.487937
     99          1           0       -6.710242   -4.733235   -1.943624
    100          1           0       -6.029218   -7.825835    0.937526
    101          1           0       -7.834157   -7.877666   -0.470169
    102          7           0       -0.275045   -3.318417    1.523337
    103          6           0        1.085157   -2.841735    1.383968
    104          6           0        1.869605   -3.920017    0.656472
    105          8           0        1.883028   -5.108744    0.980891
    106          6           0        1.462497   -2.437235    2.805198
    107          6           0        0.767666   -1.171386    3.295232
    108          6           0        2.979066   -2.296239    2.895968
    109          6           0        1.106695   -0.512389    4.631826
    110          1           0       -0.410589   -4.241408    1.915530
    111          1           0        1.124462   -1.936199    0.774903
    112          1           0        1.173974   -3.274728    3.430386
    113          1           0       -0.299060   -1.389449    3.350413
    114          1           0        0.971217   -0.331208    2.629148
    115          1           0        3.288467   -1.956290    3.886829
    116          1           0        3.363338   -3.303993    2.799175
    117          1           0        3.562985   -1.807693    2.113369
    118          1           0        2.170188   -0.275490    4.565036
    119          1           0        0.447453    0.319376    4.855582
    120          1           0        1.053691   -1.343834    5.330460
    121          7           0        2.687897   -3.429453   -0.282860
    122          6           0        3.782521   -4.161150   -0.878945
    123          6           0        5.166722   -3.998566   -0.276988
    124          8           0        5.358494   -3.099477    0.542623
    125          6           0        3.846052   -3.730146   -2.342195
    126          8           0        4.296575   -2.402757   -2.450220
    127          1           0        2.649353   -2.474743   -0.609574
    128          1           0        3.597887   -5.236337   -0.900911
    129          1           0        2.835936   -3.844577   -2.754834
    130          1           0        4.512977   -4.337583   -2.953531
    131          1           0        4.301561   -2.169886   -3.374474
    132          7           0        6.195285   -4.661550   -0.794878
    133          6           0        7.584549   -4.335007   -0.539895
    134          6           0        7.916053   -2.874770   -0.778249
    135          8           0        8.673148   -2.223377   -0.061384
    136          6           0        8.345561   -5.248235   -1.501288
    137          1           0        5.986778   -5.421713   -1.436109
    138          1           0        7.869438   -4.713612    0.437600
    139          1           0        8.013391   -6.278698   -1.375156
    140          1           0        8.155423   -4.992350   -2.549224
    141          1           0        9.393390   -5.318787   -1.201160
    142          7           0        7.357739   -2.264318   -1.837510
    143          6           0        7.759374   -0.944216   -2.279686
    144          6           0        7.018294    0.251040   -1.710420
    145          8           0        7.497556    1.381364   -1.646574
    146          6           0        7.660722   -0.965271   -3.802422
    147          1           0        6.800868   -2.809220   -2.489028
    148          1           0        8.801576   -0.723261   -2.056316
    149          1           0        7.764286   -0.024201   -4.337269
    150          1           0        8.470062   -1.529733   -4.254475
    151          1           0        6.721875   -1.413630   -4.147879
    152          7           0        5.839086   -0.039669   -1.164657
    153          6           0        5.121485    0.748564   -0.176964
    154          6           0        5.852903    0.681679    1.164735
    155          8           0        6.024120    1.699443    1.829446
    156          6           0        3.633097    0.445562   -0.004372
    157          6           0        2.865141    0.988502   -1.209552
    158          6           0        1.389431    0.608305   -1.234648
    159          8           0        0.528548    1.332004   -0.682162
    160          8           0        1.015763   -0.484320   -1.723262
    161          1           0        5.498833   -0.966050   -1.367009
    162          1           0        5.228734    1.817561   -0.376072
    163          1           0        3.301977    0.816948    0.957414
    164          1           0        3.586832   -0.633520   -0.010883
    165          1           0        3.378450    0.570534   -2.073680
    166          1           0        3.038353    2.062004   -1.195755
    167          7           0        6.189770   -0.504993    1.660851
    168          6           0        6.926906   -0.729092    2.892318
    169          1           0        7.679294   -1.500643    2.729125
    170          1           0        7.416253    0.196430    3.197339
    171          1           0        6.239415   -1.051695    3.674091
    172          1           0        5.860148   -1.307263    1.148687
    173         20           0       -1.662637    0.171065   -1.369932
    174          8           0       -1.632008   -2.338733   -2.082515
    175          1           0       -1.071929   -3.112501   -2.167337
    176          1           0       -2.526707   -2.683942   -2.143700
 ---------------------------------------------------------------------

 SCF Done:  E(RB3LYP) =  -5333.56211934     A.U. after   18 cycles

 The electronic state is 1-A.
 Alpha  occ. eigenvalues -- -145.35520 -19.19448 -19.17373 -19.14403 -19.13758
 Alpha  occ. eigenvalues --  -19.12084 -19.11315 -19.11229 -19.10253 -19.08895
 Alpha  occ. eigenvalues --  -19.07759 -19.07611 -19.07538 -19.07287 -19.06483
 Alpha  occ. eigenvalues --  -19.05915 -19.05675 -19.05253 -19.05176 -19.04156
 Alpha  occ. eigenvalues --  -19.04015 -19.03953 -19.02534 -19.00141 -15.41279
 Alpha  occ. eigenvalues --  -14.58345 -14.40230 -14.38057 -14.37691 -14.36205
 Alpha  occ. eigenvalues --  -14.35518 -14.34493 -14.34295 -14.32497 -14.32242
 Alpha  occ. eigenvalues --  -14.31885 -14.31224 -14.30704 -14.30468 -14.29682
 Alpha  occ. eigenvalues --  -12.54919 -12.54851 -12.54820 -10.33866 -10.32413
 Alpha  occ. eigenvalues --  -10.30575 -10.30570 -10.29580 -10.29097 -10.28903
 Alpha  occ. eigenvalues --  -10.27670 -10.27478 -10.27167 -10.26974 -10.26638
 Alpha  occ. eigenvalues --  -10.25821 -10.25808 -10.25069 -10.24938 -10.24721
 Alpha  occ. eigenvalues --  -10.24594 -10.24549 -10.23976 -10.23932 -10.23773
 Alpha  occ. eigenvalues --  -10.23181 -10.23052 -10.23038 -10.22992 -10.22225
 Alpha  occ. eigenvalues --  -10.21895 -10.21834 -10.21599 -10.21097 -10.20524
 Alpha  occ. eigenvalues --  -10.20137 -10.19869 -10.19430 -10.19385 -10.19369
 Alpha  occ. eigenvalues --  -10.19115 -10.18991 -10.18816 -10.18551 -10.18319
 Alpha  occ. eigenvalues --  -10.18061 -10.17997 -10.17991 -10.17835 -10.17719
 Alpha  occ. eigenvalues --  -10.17587 -10.17399 -10.17367 -10.16807 -10.16490
 Alpha  occ. eigenvalues --  -10.16422 -10.12450  -1.78157  -1.13830  -1.08291
 Alpha  occ. eigenvalues --   -1.06952  -1.06027  -1.05868  -1.05513  -1.04830
 Alpha  occ. eigenvalues --   -1.04418  -1.03911  -1.03401  -1.03063  -1.02673
 Alpha  occ. eigenvalues --   -1.02187  -1.01847  -1.01303  -1.00478  -1.00148
 Alpha  occ. eigenvalues --   -0.99380  -0.99228  -0.99155  -0.98486  -0.97600
 Alpha  occ. eigenvalues --   -0.96996  -0.96915  -0.96328  -0.94820  -0.94050
 Alpha  occ. eigenvalues --   -0.93535  -0.91590  -0.91317  -0.90793  -0.90510
 Alpha  occ. eigenvalues --   -0.89909  -0.89387  -0.89043  -0.88347  -0.88148
 Alpha  occ. eigenvalues --   -0.88023  -0.87886  -0.86959  -0.86226  -0.85916
 Alpha  occ. eigenvalues --   -0.83637  -0.83349  -0.81685  -0.80884  -0.80114
 Alpha  occ. eigenvalues --   -0.79364  -0.78094  -0.78016  -0.77279  -0.75672
 Alpha  occ. eigenvalues --   -0.75191  -0.74609  -0.72999  -0.72901  -0.72373
 Alpha  occ. eigenvalues --   -0.71970  -0.71904  -0.71569  -0.70515  -0.70201
 Alpha  occ. eigenvalues --   -0.70025  -0.69688  -0.68792  -0.68475  -0.67908
 Alpha  occ. eigenvalues --   -0.67616  -0.66356  -0.65306  -0.65008  -0.64757
 Alpha  occ. eigenvalues --   -0.64224  -0.63120  -0.63074  -0.62435  -0.61802
 Alpha  occ. eigenvalues --   -0.61448  -0.61355  -0.60855  -0.60088  -0.59882
 Alpha  occ. eigenvalues --   -0.58896  -0.58833  -0.58782  -0.58696  -0.58248
 Alpha  occ. eigenvalues --   -0.56969  -0.56758  -0.56563  -0.56094  -0.55891
 Alpha  occ. eigenvalues --   -0.55670  -0.55357  -0.55291  -0.55057  -0.54860
 Alpha  occ. eigenvalues --   -0.54788  -0.54579  -0.54021  -0.53775  -0.53375
 Alpha  occ. eigenvalues --   -0.53200  -0.53104  -0.52930  -0.51778  -0.51641
 Alpha  occ. eigenvalues --   -0.51420  -0.50734  -0.50367  -0.50259  -0.49688
 Alpha  occ. eigenvalues --   -0.49274  -0.49015  -0.48771  -0.48405  -0.48391
 Alpha  occ. eigenvalues --   -0.48140  -0.48077  -0.47835  -0.47757  -0.47386
 Alpha  occ. eigenvalues --   -0.47321  -0.47304  -0.46912  -0.46728  -0.46295
 Alpha  occ. eigenvalues --   -0.45923  -0.45626  -0.45555  -0.45356  -0.45338
 Alpha  occ. eigenvalues --   -0.45040  -0.44865  -0.44689  -0.44612  -0.44406
 Alpha  occ. eigenvalues --   -0.44144  -0.43985  -0.43797  -0.43703  -0.43692
 Alpha  occ. eigenvalues --   -0.43540  -0.43207  -0.43132  -0.42982  -0.42878
 Alpha  occ. eigenvalues --   -0.42732  -0.42649  -0.42437  -0.42253  -0.41948
 Alpha  occ. eigenvalues --   -0.41845  -0.41654  -0.41626  -0.41482  -0.41426
 Alpha  occ. eigenvalues --   -0.41383  -0.41314  -0.41066  -0.41048  -0.40713
 Alpha  occ. eigenvalues --   -0.40555  -0.40410  -0.40265  -0.40132  -0.40009
 Alpha  occ. eigenvalues --   -0.39741  -0.39624  -0.39578  -0.39286  -0.39247
 Alpha  occ. eigenvalues --   -0.39200  -0.39058  -0.38948  -0.38703  -0.38492
 Alpha  occ. eigenvalues --   -0.38390  -0.38224  -0.38157  -0.37939  -0.37832
 Alpha  occ. eigenvalues --   -0.37747  -0.37495  -0.37419  -0.37323  -0.37211
 Alpha  occ. eigenvalues --   -0.37153  -0.36757  -0.36556  -0.36388  -0.36137
 Alpha  occ. eigenvalues --   -0.35748  -0.35693  -0.35518  -0.35435  -0.35277
 Alpha  occ. eigenvalues --   -0.35143  -0.35044  -0.34929  -0.34718  -0.34405
 Alpha  occ. eigenvalues --   -0.34201  -0.34191  -0.33911  -0.33856  -0.33800
 Alpha  occ. eigenvalues --   -0.33766  -0.33667  -0.33396  -0.33196  -0.33113
 Alpha  occ. eigenvalues --   -0.32513  -0.32091  -0.32023  -0.31796  -0.31434
 Alpha  occ. eigenvalues --   -0.31293  -0.31232  -0.30398  -0.30182  -0.29759
 Alpha  occ. eigenvalues --   -0.29750  -0.29054  -0.28572  -0.27984  -0.27843
 Alpha  occ. eigenvalues --   -0.27306  -0.27017  -0.26499  -0.26372  -0.26222
 Alpha  occ. eigenvalues --   -0.26148  -0.25942  -0.25665  -0.25147  -0.24505
 Alpha  occ. eigenvalues --   -0.24442  -0.24374  -0.23809  -0.23664  -0.23449
 Alpha  occ. eigenvalues --   -0.23345  -0.23035  -0.22956  -0.22874  -0.22739
 Alpha  occ. eigenvalues --   -0.22643  -0.21937  -0.21737  -0.21235  -0.20861
 Alpha  occ. eigenvalues --   -0.20433  -0.19948  -0.19725  -0.19565  -0.19195
 Alpha  occ. eigenvalues --   -0.19109  -0.18952  -0.16268
 Alpha virt. eigenvalues --   -0.10101  -0.04500  -0.03890  -0.02947  -0.02204
 Alpha virt. eigenvalues --   -0.01426  -0.00716  -0.00617  -0.00100   0.00058
 Alpha virt. eigenvalues --    0.00784   0.00941   0.01371   0.01623   0.02393

 Mulliken charges:
               1
     1  C    0.060653
     2  C    0.018649
     3  O   -0.291305
     4  H    0.034253
     5  H    0.039028
     6  H    0.001426
     7  N   -0.102206
     8  C    0.111381
     9  C    0.058488
    10  O   -0.300080
    11  C    0.055259
    12  C    0.099284
    13  O   -0.471854
    14  O   -0.358861
    15  H    0.115086
    16  H    0.013727
    17  H    0.008386
    18  H    0.017323
    19  N   -0.146151
    20  C    0.143023
    21  C    0.053477
    22  O   -0.309975
    23  C   -0.011967
    24  C    0.073766
    25  C   -0.092477
    26  C    0.067252
    27  N    0.097833
    28  H    0.152022
    29  H   -0.006018
    30  H   -0.024274
    31  H    0.021841
    32  H    0.027353
    33  H    0.047051
    34  H    0.017934
    35  H    0.038144
    36  H    0.103520
    37  H    0.080165
    38  H    0.181413
    39  H    0.177674
    40  H    0.167353
    41  N   -0.141396
    42  C    0.153423
    43  C    0.022701
    44  O   -0.295915
    45  C    0.084477
    46  C    0.062507
    47  O   -0.368065
    48  O   -0.485568
    49  H    0.159790
    50  H    0.020550
    51  H   -0.006589
    52  H    0.020613
    53  N   -0.150856
    54  C    0.239944
    55  C    0.010910
    56  O   -0.304280
    57  H    0.132805
    58  H    0.028987
    59  H    0.010696
    60  N   -0.172534
    61  C    0.150264
    62  C    0.046644
    63  O   -0.290581
    64  C    0.076331
    65  C    0.126957
    66  N   -0.043857
    67  O   -0.377298
    68  H    0.160557
    69  H    0.031279
    70  H    0.072994
    71  H    0.005914
    72  H    0.129522
    73  H    0.115916
    74  N   -0.162198
    75  C    0.221073
    76  C    0.030640
    77  O   -0.295602
    78  H    0.161186
    79  H    0.042389
    80  H    0.030373
    81  N   -0.126398
    82  C    0.133342
    83  C    0.109557
    84  O   -0.332551
    85  C    0.169423
    86  C   -0.055401
    87  C    0.010089
    88  C    0.055245
    89  C   -0.028205
    90  C   -0.038102
    91  C    0.212230
    92  O   -0.220455
    93  H    0.141308
    94  H   -0.002995
    95  H   -0.013369
    96  H   -0.111529
    97  H   -0.072550
    98  H   -0.042848
    99  H   -0.027112
   100  H   -0.047948
   101  H    0.178648
   102  N   -0.141110
   103  C    0.136942
   104  C    0.092991
   105  O   -0.274432
   106  C   -0.054784
   107  C   -0.024068
   108  C    0.052525
   109  C    0.044440
   110  H    0.129784
   111  H    0.018486
   112  H   -0.023938
   113  H    0.014181
   114  H    0.014511
   115  H    0.010148
   116  H   -0.005463
   117  H    0.003215
   118  H    0.020508
   119  H    0.020197
   120  H   -0.012985
   121  N   -0.132866
   122  C    0.100297
   123  C    0.118614
   124  O   -0.272651
   125  C    0.173061
   126  O   -0.295210
   127  H    0.153190
   128  H    0.027679
   129  H    0.028558
   130  H   -0.016411
   131  H    0.188565
   132  N   -0.139590
   133  C    0.099711
   134  C    0.105821
   135  O   -0.243420
   136  C    0.009742
   137  H    0.120608
   138  H    0.024710
   139  H    0.018501
   140  H    0.012473
   141  H    0.045995
   142  N   -0.149652
   143  C    0.099886
   144  C    0.065906
   145  O   -0.271388
   146  C    0.024735
   147  H    0.104419
   148  H    0.033205
   149  H    0.027760
   150  H    0.014437
   151  H   -0.026012
   152  N   -0.150474
   153  C    0.100195
   154  C    0.027961
   155  O   -0.279748
   156  C    0.012270
   157  C    0.135820
   158  C    0.144877
   159  O   -0.424838
   160  O   -0.419680
   161  H    0.127473
   162  H   -0.007437
   163  H    0.049020
   164  H   -0.021854
   165  H   -0.028518
   166  H   -0.029730
   167  N   -0.161325
   168  C    0.139792
   169  H    0.020305
   170  H    0.033080
   171  H    0.010068
   172  H    0.129877
   173  Ca   1.314294
   174  O   -0.275485
   175  H    0.186610
   176  H    0.182950
 Sum of Mulliken charges =   0.00000

 Dipole moment (field-independent basis, Debye):
    X=             29.5620    Y=              4.7534    Z=             -6.8414  Tot=             30.7134
 Quadrupole moment (field-independent basis, Debye-Ang):
   XX=           -630.2408   YY=           -307.4886   ZZ=           -552.6512
   XY=            118.2268   XZ=            -43.7490   YZ=             51.5362

 ESP charges:
               1
     1  C   -0.471951
     2  C    0.711077
     3  O   -0.576316
     4  H    0.138399
     5  H    0.136474
     6  H    0.099982
     7  N   -0.506056
     8  C    0.058245
     9  C    0.561688
    10  O   -0.587211
    11  C   -0.407816
    12  C    0.795032
    13  O   -0.790364
    14  O   -0.706197
    15  H    0.301011
    16  H    0.085630
    17  H    0.161675
    18  H    0.108819
    19  N   -0.209474
    20  C    0.020551
    21  C    0.454369
    22  O   -0.566518
    23  C    0.136420
    24  C   -0.263512
    25  C    0.183759
    26  C   -0.160568
    27  N   -0.154639
    28  H    0.115924
    29  H    0.050686
    30  H   -0.027646
    31  H   -0.003133
    32  H    0.088890
    33  H    0.081484
    34  H   -0.009900
    35  H    0.001794
    36  H    0.113192
    37  H    0.132159
    38  H    0.289451
    39  H    0.280809
    40  H    0.269578
    41  N   -0.309005
    42  C    0.107946
    43  C    0.441985
    44  O   -0.526764
    45  C   -0.349003
    46  C    0.832044
    47  O   -0.721209
    48  O   -0.808663
    49  H    0.191584
    50  H    0.097918
    51  H    0.091513
    52  H    0.097075
    53  N   -0.347650
    54  C   -0.111146
    55  C    0.497626
    56  O   -0.588045
    57  H    0.227883
    58  H    0.115902
    59  H    0.066363
    60  N   -0.143077
    61  C   -0.171832
    62  C    0.428919
    63  O   -0.520478
    64  C   -0.259106
    65  C    0.643790
    66  N   -0.664167
    67  O   -0.623534
    68  H    0.264490
    69  H    0.166567
    70  H    0.156835
    71  H    0.094362
    72  H    0.339183
    73  H    0.318445
    74  N   -0.043893
    75  C   -0.292253
    76  C    0.721701
    77  O   -0.591310
    78  H    0.210889
    79  H    0.143781
    80  H    0.098179
    81  N   -0.600909
    82  C    0.433769
    83  C    0.619806
    84  O   -0.638971
    85  C    0.311597
    86  C   -0.285265
    87  C   -0.004239
    88  C    0.035687
    89  C   -0.389140
    90  C   -0.374472
    91  C    0.538010
    92  O   -0.602197
    93  H    0.227464
    94  H   -0.066340
    95  H   -0.051647
    96  H   -0.144956
    97  H    0.121188
    98  H    0.089146
    99  H    0.184276
   100  H    0.137806
   101  H    0.418581
   102  N   -0.924473
   103  C    0.492152
   104  C    0.493399
   105  O   -0.531244
   106  C   -0.154749
   107  C    0.454005
   108  C   -0.249811
   109  C   -0.328689
   110  H    0.362834
   111  H    0.034938
   112  H    0.051689
   113  H   -0.069791
   114  H   -0.061023
   115  H    0.095018
   116  H    0.055378
   117  H    0.013244
   118  H    0.068399
   119  H    0.086149
   120  H    0.030639
   121  N   -0.438835
   122  C    0.255538
   123  C    0.457779
   124  O   -0.434605
   125  C   -0.149540
   126  O   -0.388471
   127  H    0.281412
   128  H    0.031265
   129  H    0.094958
   130  H    0.060211
   131  H    0.396779
   132  N   -0.510643
   133  C    0.242584
   134  C    0.310168
   135  O   -0.484851
   136  C   -0.229147
   137  H    0.286971
   138  H    0.069535
   139  H    0.076117
   140  H    0.040156
   141  H    0.094694
   142  N   -0.242206
   143  C    0.057624
   144  C    0.301277
   145  O   -0.505956
   146  C   -0.276721
   147  H    0.238978
   148  H    0.133683
   149  H    0.118516
   150  H    0.072482
   151  H    0.038084
   152  N    0.055255
   153  C   -0.215078
   154  C    0.573800
   155  O   -0.572085
   156  C    0.078743
   157  C   -0.047341
   158  C    0.586854
   159  O   -0.587678
   160  O   -0.680284
   161  H   -0.008000
   162  H    0.079546
   163  H    0.083223
   164  H   -0.167413
   165  H   -0.018635
   166  H    0.034546
   167  N   -0.220377
   168  C   -0.112613
   169  H    0.054181
   170  H    0.095690
   171  H    0.044933
   172  H    0.237998
   173  Ca   1.602218
   174  O   -0.798408
   175  H    0.434646
   176  H    0.371540
 Sum of ESP charges =   0.00000

 Normal termination of Gaussian 09 at Mon Sep 16 22:40:57 2019.
