 Gaussian 16, Revision A.03,
 Gaussian 16:  ES64L-G16RevA.03 25-Dec-2016

 ----------------------------------------------------------------------
 #b3lyp/svp scf=(tight,noincore) Test #IOP(5/87=12) Density=Current Pop
 =(MK,readradii) iop(6/33=2) iop(6/42=6)
 ----------------------------------------------------------------------

 ------------------
 holoCaM_loop3_68.0
 ------------------
 Symbolic Z-matrix:
 Charge =  0 Multiplicity = 1

                         Standard orientation:
 ---------------------------------------------------------------------
 Center     Atomic      Atomic             Coordinates (Angstroms)
 Number     Number       Type             X           Y           Z
 ---------------------------------------------------------------------
      1          6           0        2.081537    1.583736    5.867506
      2          6           0        1.407234    1.544211    4.504035
      3          8           0        2.103010    1.349974    3.502703
      4          1           0        3.104679    1.942694    5.756329
      5          1           0        1.531339    2.255474    6.526456
      6          1           0        2.093172    0.582370    6.297082
      7          7           0        0.112788    1.834342    4.357631
      8          6           0       -0.580839    1.827409    3.086162
      9          6           0       -0.523527    3.203136    2.431493
     10          8           0       -1.409693    4.015182    2.684852
     11          6           0       -2.019047    1.326010    3.173664
     12          6           0       -2.718234    1.417629    1.826985
     13          8           0       -2.103119    1.716840    0.770857
     14          8           0       -3.910010    1.074042    1.708170
     15          1           0       -0.402322    1.983836    5.213851
     16          1           0       -0.113590    1.121962    2.403797
     17          1           0       -2.558462    1.957054    3.883534
     18          1           0       -1.893908    0.270432    3.420637
     19          7           0        0.496399    3.439760    1.606472
     20          6           0        0.994667    4.704292    1.109897
     21          6           0       -0.047784    5.541714    0.385590
     22          8           0       -0.041544    6.758219    0.595063
     23          6           0        2.196688    4.413363    0.226322
     24          6           0        3.078548    5.662529    0.203795
     25          6           0        4.214280    5.405572   -0.787258
     26          6           0        5.010002    6.696088   -0.956654
     27          7           0        6.235182    6.477670   -1.746924
     28          1           0        0.901202    2.593260    1.218563
     29          1           0        1.394383    5.260966    1.952062
     30          1           0        1.935763    4.031820   -0.759600
     31          1           0        2.802438    3.638032    0.699956
     32          1           0        3.509293    5.798040    1.195156
     33          1           0        2.505192    6.535797   -0.105342
     34          1           0        3.709577    5.110895   -1.705158
     35          1           0        4.866919    4.620570   -0.394913
     36          1           0        5.308762    6.951435    0.052574
     37          1           0        4.428100    7.514817   -1.388480
     38          1           0        5.947733    6.142021   -2.660112
     39          1           0        6.776983    7.309065   -1.904829
     40          1           0        6.847484    5.835441   -1.266894
     41          7           0       -0.869166    4.927968   -0.462965
     42          6           0       -1.955182    5.539366   -1.207654
     43          6           0       -3.329072    5.289144   -0.628244
     44          8           0       -4.256343    5.985974   -1.030732
     45          6           0       -1.786161    5.108887   -2.663099
     46          6           0       -1.568341    3.622892   -2.919168
     47          8           0       -1.604456    3.249549   -4.118380
     48          8           0       -1.484247    2.828497   -1.967923
     49          1           0       -0.853951    3.915405   -0.482575
     50          1           0       -1.875357    6.627592   -1.155756
     51          1           0       -0.881578    5.557502   -3.075499
     52          1           0       -2.701136    5.451969   -3.143116
     53          7           0       -3.480417    4.294381    0.246708
     54          6           0       -4.738790    4.038266    0.924206
     55          6           0       -5.778012    3.395215    0.017452
     56          8           0       -6.765103    4.024540   -0.357382
     57          1           0       -2.747297    3.630517    0.443481
     58          1           0       -5.209304    5.007401    1.078785
     59          1           0       -4.592649    3.466904    1.845340
     60          7           0       -5.392588    2.239047   -0.535471
     61          6           0       -6.211549    1.374144   -1.366282
     62          6           0       -6.668603    0.089982   -0.691057
     63          8           0       -7.472136   -0.678867   -1.207009
     64          6           0       -5.477650    1.089507   -2.683010
     65          6           0       -4.415898    0.012907   -2.551427
     66          7           0       -4.419851   -1.020076   -3.392813
     67          8           0       -3.503502   -0.043076   -1.726928
     68          1           0       -4.614985    1.779896   -0.079057
     69          1           0       -7.059779    1.943534   -1.746151
     70          1           0       -5.191145    2.008040   -3.173227
     71          1           0       -6.233950    0.689045   -3.361937
     72          1           0       -5.112655   -1.229057   -4.103411
     73          1           0       -3.596699   -1.592193   -3.493322
     74          7           0       -6.145623   -0.204779    0.498190
     75          6           0       -6.587814   -1.273649    1.383958
     76          6           0       -5.495621   -2.318203    1.536669
     77          8           0       -5.701063   -3.271608    2.294304
     78          1           0       -5.436663    0.433104    0.818940
     79          1           0       -7.375774   -1.928545    1.013513
     80          1           0       -6.883739   -1.027009    2.401798
     81          7           0       -4.419612   -2.183114    0.765918
     82          6           0       -3.361068   -3.177252    0.701313
     83          6           0       -1.979169   -2.565051    0.820336
     84          8           0       -1.806739   -1.374979    0.565392
     85          6           0       -3.435581   -4.090388   -0.513647
     86          6           0       -4.721688   -4.872721   -0.692494
     87          6           0       -5.814613   -4.195155   -1.243600
     88          6           0       -4.918640   -6.113848   -0.069186
     89          6           0       -7.051747   -4.849529   -1.336841
     90          6           0       -6.133120   -6.793152   -0.214053
     91          6           0       -7.196563   -6.179519   -0.918924
     92          8           0       -8.431753   -6.749616   -1.048134
     93          1           0       -4.400375   -1.420383    0.101937
     94          1           0       -3.489911   -3.934714    1.477361
     95          1           0       -2.604966   -4.794071   -0.510547
     96          1           0       -3.330435   -3.376811   -1.321516
     97          1           0       -5.689403   -3.165567   -1.565737
     98          1           0       -4.064072   -6.594711    0.384999
     99          1           0       -7.932281   -4.423625   -1.793314
    100          1           0       -6.297046   -7.784231    0.190656
    101          1           0       -8.468232   -7.620938   -0.639516
    102          7           0       -0.975602   -3.326707    1.258552
    103          6           0        0.409842   -2.924011    1.387322
    104          6           0        1.137268   -3.856945    0.419548
    105          8           0        0.842955   -5.039039    0.336290
    106          6           0        0.811507   -3.051221    2.856942
    107          6           0        0.203418   -1.982304    3.749435
    108          6           0        2.311558   -2.913236    3.061168
    109          6           0        0.019260   -2.380241    5.214744
    110          1           0       -1.142564   -4.308038    1.463522
    111          1           0        0.535052   -1.894424    1.065185
    112          1           0        0.497906   -4.047978    3.173531
    113          1           0       -0.778790   -1.738000    3.345722
    114          1           0        0.809128   -1.078178    3.654186
    115          1           0        2.665359   -3.089982    4.078511
    116          1           0        2.950337   -3.491044    2.392439
    117          1           0        2.580388   -1.895246    2.786348
    118          1           0        0.894373   -2.654239    5.798870
    119          1           0       -0.585348   -1.582961    5.643339
    120          1           0       -0.612892   -3.265637    5.291283
    121          7           0        2.147408   -3.301535   -0.259596
    122          6           0        3.016336   -3.995885   -1.177824
    123          6           0        4.464685   -3.960016   -0.687417
    124          8           0        4.760527   -3.307597    0.301181
    125          6           0        3.054288   -3.280866   -2.525306
    126          8           0        3.563606   -1.961302   -2.458632
    127          1           0        2.356412   -2.315594   -0.134549
    128          1           0        2.768119   -5.059145   -1.185892
    129          1           0        2.043736   -3.246563   -2.938837
    130          1           0        3.676915   -3.799546   -3.250983
    131          1           0        3.530430   -1.478159   -3.285658
    132          7           0        5.401552   -4.621472   -1.374772
    133          6           0        6.803025   -4.629773   -0.995952
    134          6           0        7.393900   -3.246324   -1.247817
    135          8           0        8.050263   -2.744404   -0.342133
    136          6           0        7.526114   -5.748183   -1.742412
    137          1           0        5.141130   -5.167316   -2.178473
    138          1           0        6.919987   -4.876434    0.061629
    139          1           0        6.969643   -6.678068   -1.849430
    140          1           0        7.854107   -5.300197   -2.676773
    141          1           0        8.400944   -6.093432   -1.191799
    142          7           0        7.015559   -2.560376   -2.330052
    143          6           0        7.452829   -1.206703   -2.571023
    144          6           0        7.044511   -0.224242   -1.475512
    145          8           0        7.581994    0.872937   -1.500223
    146          6           0        6.794290   -0.753732   -3.880658
    147          1           0        6.410617   -3.014363   -3.003878
    148          1           0        8.542964   -1.170785   -2.605862
    149          1           0        5.721520   -0.590935   -3.746267
    150          1           0        7.335021    0.099461   -4.287810
    151          1           0        6.911452   -1.512127   -4.650405
    152          7           0        6.024454   -0.532605   -0.674016
    153          6           0        5.378428    0.238413    0.374736
    154          6           0        5.814182   -0.165647    1.770248
    155          8           0        6.021424    0.661988    2.658601
    156          6           0        3.883239    0.049376    0.117879
    157          6           0        3.378423    0.919447   -1.023539
    158          6           0        1.869650    0.835093   -0.974689
    159          8           0        1.240377    0.778190    0.103493
    160          8           0        1.314091    0.896729   -2.094714
    161          1           0        5.652658   -1.474845   -0.744391
    162          1           0        5.676492    1.273963    0.220486
    163          1           0        3.299944    0.247469    1.017560
    164          1           0        3.716820   -0.996038   -0.110848
    165          1           0        3.849230    0.735883   -2.000906
    166          1           0        3.697566    1.906949   -0.699829
    167          7           0        6.263719   -1.395342    1.993781
    168          6           0        7.055753   -1.692894    3.168789
    169          1           0        8.076238   -1.342783    3.016168
    170          1           0        6.625006   -1.190110    4.034962
    171          1           0        7.063724   -2.769089    3.339436
    172          1           0        5.945989   -2.043653    1.286081
    173         20           0       -1.117927    0.474921   -1.207207
    174          8           0       -1.333198    0.613725   -3.890673
    175          1           0       -1.602281    1.492358   -4.154107
    176          1           0       -1.039189    0.192197   -4.706745
 ---------------------------------------------------------------------

 SCF Done:  E(RB3LYP) =  -5333.59537542     A.U. after   18 cycles

 The electronic state is 1-A.
 Alpha  occ. eigenvalues -- -145.35205 -19.18228 -19.15308 -19.14872 -19.12347
 Alpha  occ. eigenvalues --  -19.12110 -19.12108 -19.11654 -19.10397 -19.09380
 Alpha  occ. eigenvalues --  -19.07681 -19.06523 -19.06502 -19.06330 -19.06099
 Alpha  occ. eigenvalues --  -19.05999 -19.05612 -19.05002 -19.04328 -19.03839
 Alpha  occ. eigenvalues --  -19.03742 -19.03693 -19.02824 -19.02230 -15.41003
 Alpha  occ. eigenvalues --  -14.57981 -14.40660 -14.38870 -14.38420 -14.37148
 Alpha  occ. eigenvalues --  -14.36444 -14.34898 -14.33788 -14.33206 -14.31889
 Alpha  occ. eigenvalues --  -14.31834 -14.31020 -14.29746 -14.29557 -14.28467
 Alpha  occ. eigenvalues --  -12.54621 -12.54576 -12.54545 -10.34022 -10.33145
 Alpha  occ. eigenvalues --  -10.30830 -10.30679 -10.30676 -10.30339 -10.29012
 Alpha  occ. eigenvalues --  -10.28441 -10.28123 -10.27043 -10.26106 -10.26063
 Alpha  occ. eigenvalues --  -10.25840 -10.25612 -10.25348 -10.25200 -10.24815
 Alpha  occ. eigenvalues --  -10.24271 -10.24055 -10.23933 -10.23831 -10.23794
 Alpha  occ. eigenvalues --  -10.23028 -10.23011 -10.22388 -10.22170 -10.22144
 Alpha  occ. eigenvalues --  -10.22068 -10.21967 -10.21497 -10.20900 -10.20745
 Alpha  occ. eigenvalues --  -10.19882 -10.19843 -10.19542 -10.19473 -10.19361
 Alpha  occ. eigenvalues --  -10.19358 -10.19135 -10.18423 -10.18196 -10.17975
 Alpha  occ. eigenvalues --  -10.17926 -10.17812 -10.17466 -10.17414 -10.17336
 Alpha  occ. eigenvalues --  -10.17284 -10.17228 -10.17131 -10.16812 -10.15902
 Alpha  occ. eigenvalues --  -10.15795 -10.13702  -1.77983  -1.13235  -1.08748
 Alpha  occ. eigenvalues --   -1.06181  -1.06003  -1.05858  -1.05640  -1.05567
 Alpha  occ. eigenvalues --   -1.05302  -1.04561  -1.04466  -1.03689  -1.02649
 Alpha  occ. eigenvalues --   -1.01612  -1.00117  -1.00047  -0.99721  -0.99310
 Alpha  occ. eigenvalues --   -0.98986  -0.98522  -0.98147  -0.97584  -0.97429
 Alpha  occ. eigenvalues --   -0.96725  -0.96397  -0.95630  -0.95408  -0.95360
 Alpha  occ. eigenvalues --   -0.94048  -0.92150  -0.91772  -0.90650  -0.90422
 Alpha  occ. eigenvalues --   -0.89537  -0.89169  -0.88941  -0.88235  -0.88099
 Alpha  occ. eigenvalues --   -0.87858  -0.87856  -0.86943  -0.86766  -0.84752
 Alpha  occ. eigenvalues --   -0.83790  -0.83516  -0.82029  -0.80553  -0.80305
 Alpha  occ. eigenvalues --   -0.79180  -0.78580  -0.78141  -0.76891  -0.75941
 Alpha  occ. eigenvalues --   -0.74776  -0.74279  -0.73152  -0.72975  -0.72692
 Alpha  occ. eigenvalues --   -0.72602  -0.72273  -0.71437  -0.71040  -0.70982
 Alpha  occ. eigenvalues --   -0.70591  -0.70088  -0.68994  -0.68028  -0.67824
 Alpha  occ. eigenvalues --   -0.66722  -0.66461  -0.65437  -0.65001  -0.64306
 Alpha  occ. eigenvalues --   -0.63195  -0.62796  -0.62763  -0.62599  -0.62416
 Alpha  occ. eigenvalues --   -0.61284  -0.61020  -0.60988  -0.60530  -0.60281
 Alpha  occ. eigenvalues --   -0.59579  -0.59241  -0.58750  -0.57797  -0.57603
 Alpha  occ. eigenvalues --   -0.57234  -0.56961  -0.56815  -0.56285  -0.56258
 Alpha  occ. eigenvalues --   -0.55741  -0.55463  -0.55067  -0.54968  -0.54730
 Alpha  occ. eigenvalues --   -0.54066  -0.53937  -0.53680  -0.53486  -0.52974
 Alpha  occ. eigenvalues --   -0.52835  -0.52168  -0.51760  -0.51719  -0.51343
 Alpha  occ. eigenvalues --   -0.51039  -0.50885  -0.50757  -0.50384  -0.50049
 Alpha  occ. eigenvalues --   -0.49528  -0.49378  -0.49153  -0.49017  -0.48873
 Alpha  occ. eigenvalues --   -0.48574  -0.48424  -0.47988  -0.47930  -0.47596
 Alpha  occ. eigenvalues --   -0.47532  -0.47328  -0.47222  -0.46963  -0.46494
 Alpha  occ. eigenvalues --   -0.46004  -0.45896  -0.45508  -0.45291  -0.45248
 Alpha  occ. eigenvalues --   -0.45138  -0.44761  -0.44665  -0.44461  -0.44310
 Alpha  occ. eigenvalues --   -0.44245  -0.44102  -0.43821  -0.43551  -0.43421
 Alpha  occ. eigenvalues --   -0.43245  -0.43226  -0.43131  -0.43029  -0.42847
 Alpha  occ. eigenvalues --   -0.42785  -0.42565  -0.42377  -0.42290  -0.42077
 Alpha  occ. eigenvalues --   -0.41952  -0.41545  -0.41519  -0.41378  -0.41207
 Alpha  occ. eigenvalues --   -0.41162  -0.41028  -0.40952  -0.40642  -0.40572
 Alpha  occ. eigenvalues --   -0.40447  -0.40288  -0.40075  -0.40017  -0.39811
 Alpha  occ. eigenvalues --   -0.39746  -0.39475  -0.39405  -0.39203  -0.39124
 Alpha  occ. eigenvalues --   -0.39019  -0.38903  -0.38832  -0.38664  -0.38573
 Alpha  occ. eigenvalues --   -0.38482  -0.38227  -0.38206  -0.37864  -0.37789
 Alpha  occ. eigenvalues --   -0.37562  -0.37314  -0.37220  -0.37088  -0.36996
 Alpha  occ. eigenvalues --   -0.36838  -0.36450  -0.36387  -0.36102  -0.36079
 Alpha  occ. eigenvalues --   -0.35873  -0.35672  -0.35450  -0.35302  -0.35289
 Alpha  occ. eigenvalues --   -0.35056  -0.35050  -0.34846  -0.34520  -0.34208
 Alpha  occ. eigenvalues --   -0.33735  -0.33670  -0.33583  -0.33388  -0.33225
 Alpha  occ. eigenvalues --   -0.32988  -0.32955  -0.32815  -0.32701  -0.32679
 Alpha  occ. eigenvalues --   -0.32615  -0.32195  -0.32015  -0.31922  -0.31840
 Alpha  occ. eigenvalues --   -0.31635  -0.31537  -0.30824  -0.30412  -0.29986
 Alpha  occ. eigenvalues --   -0.29535  -0.29484  -0.29034  -0.28666  -0.28600
 Alpha  occ. eigenvalues --   -0.28032  -0.27564  -0.27418  -0.27240  -0.26537
 Alpha  occ. eigenvalues --   -0.25407  -0.25193  -0.25115  -0.24796  -0.24671
 Alpha  occ. eigenvalues --   -0.24550  -0.24031  -0.23783  -0.23300  -0.22883
 Alpha  occ. eigenvalues --   -0.22766  -0.22668  -0.22414  -0.22166  -0.22063
 Alpha  occ. eigenvalues --   -0.21488  -0.21343  -0.21154  -0.20971  -0.20910
 Alpha  occ. eigenvalues --   -0.20659  -0.20518  -0.20291  -0.20056  -0.19044
 Alpha  occ. eigenvalues --   -0.18743  -0.18471  -0.17356
 Alpha virt. eigenvalues --   -0.09958  -0.03890  -0.03465  -0.03080  -0.02309
 Alpha virt. eigenvalues --   -0.01413  -0.01053  -0.00569  -0.00376  -0.00205
 Alpha virt. eigenvalues --   -0.00042   0.00385   0.01191   0.01667   0.01818

 Mulliken charges:
               1
     1  C    0.073144
     2  C    0.015622
     3  O   -0.302033
     4  H    0.043101
     5  H    0.001241
     6  H    0.031528
     7  N   -0.108986
     8  C    0.039011
     9  C    0.064960
    10  O   -0.284637
    11  C    0.141796
    12  C    0.162691
    13  O   -0.486629
    14  O   -0.383470
    15  H    0.111163
    16  H    0.020909
    17  H    0.013561
    18  H    0.008076
    19  N   -0.129751
    20  C    0.162894
    21  C    0.060117
    22  O   -0.300366
    23  C   -0.019932
    24  C   -0.019290
    25  C   -0.045694
    26  C    0.025430
    27  N    0.087876
    28  H    0.157766
    29  H   -0.017687
    30  H    0.032600
    31  H    0.032523
    32  H    0.016148
    33  H    0.033318
    34  H    0.039026
    35  H    0.036678
    36  H    0.063329
    37  H    0.083845
    38  H    0.198451
    39  H    0.181518
    40  H    0.198923
    41  N   -0.147387
    42  C    0.138447
    43  C    0.063257
    44  O   -0.286409
    45  C    0.086055
    46  C    0.153272
    47  O   -0.414266
    48  O   -0.465837
    49  H    0.146166
    50  H    0.005872
    51  H   -0.012817
    52  H    0.026458
    53  N   -0.155952
    54  C    0.238527
    55  C    0.008433
    56  O   -0.267371
    57  H    0.154502
    58  H    0.003341
    59  H    0.033860
    60  N   -0.157095
    61  C    0.106925
    62  C    0.041791
    63  O   -0.284913
    64  C    0.102731
    65  C    0.103333
    66  N   -0.041001
    67  O   -0.378933
    68  H    0.137443
    69  H    0.029706
    70  H    0.069377
    71  H   -0.004497
    72  H    0.125717
    73  H    0.118833
    74  N   -0.173171
    75  C    0.269085
    76  C   -0.001926
    77  O   -0.303136
    78  H    0.136445
    79  H    0.045167
    80  H    0.032863
    81  N   -0.123101
    82  C    0.106077
    83  C    0.137844
    84  O   -0.343127
    85  C    0.114699
    86  C   -0.006033
    87  C   -0.000826
    88  C    0.019152
    89  C   -0.010338
    90  C   -0.035845
    91  C    0.150534
    92  O   -0.198318
    93  H    0.147309
    94  H    0.001715
    95  H   -0.010772
    96  H   -0.049166
    97  H   -0.032798
    98  H   -0.038170
    99  H   -0.015649
   100  H   -0.047631
   101  H    0.173431
   102  N   -0.119792
   103  C    0.103751
   104  C    0.075764
   105  O   -0.274981
   106  C   -0.047913
   107  C   -0.026650
   108  C    0.042001
   109  C    0.041087
   110  H    0.136004
   111  H    0.015240
   112  H   -0.024825
   113  H    0.014691
   114  H    0.043460
   115  H    0.008889
   116  H    0.000462
   117  H    0.020002
   118  H    0.010730
   119  H    0.007772
   120  H   -0.004549
   121  N   -0.127266
   122  C    0.113312
   123  C    0.087869
   124  O   -0.269836
   125  C    0.223112
   126  O   -0.319516
   127  H    0.154189
   128  H    0.044455
   129  H    0.019412
   130  H   -0.026300
   131  H    0.200387
   132  N   -0.137988
   133  C    0.087110
   134  C    0.041458
   135  O   -0.243388
   136  C    0.042481
   137  H    0.114803
   138  H    0.028582
   139  H    0.026979
   140  H    0.009864
   141  H    0.041555
   142  N   -0.141586
   143  C    0.088385
   144  C    0.065730
   145  O   -0.300102
   146  C    0.052897
   147  H    0.103056
   148  H    0.025123
   149  H    0.001016
   150  H    0.030652
   151  H    0.001422
   152  N   -0.153262
   153  C    0.116670
   154  C    0.086616
   155  O   -0.301696
   156  C   -0.061753
   157  C    0.162060
   158  C    0.078401
   159  O   -0.404037
   160  O   -0.399264
   161  H    0.153606
   162  H   -0.017915
   163  H    0.071189
   164  H   -0.025528
   165  H   -0.029282
   166  H   -0.040568
   167  N   -0.161350
   168  C    0.162314
   169  H    0.018399
   170  H    0.030545
   171  H   -0.001018
   172  H    0.115000
   173  Ca   1.295227
   174  O   -0.318725
   175  H    0.151539
   176  H    0.153172
 Sum of Mulliken charges =  -0.00000

 Dipole moment (field-independent basis, Debye):
    X=             35.1188    Y=             -5.9040    Z=            -13.5885  Tot=             38.1161
 Quadrupole moment (field-independent basis, Debye-Ang):
   XX=           -554.1095   YY=           -457.2286   ZZ=           -513.1920
   XY=            167.2123   XZ=            -75.9649   YZ=             -1.9619

 ESP charges:
               1
     1  C   -0.382325
     2  C    0.773961
     3  O   -0.643171
     4  H    0.136039
     5  H    0.072917
     6  H    0.094607
     7  N   -0.777389
     8  C    0.394833
     9  C    0.583929
    10  O   -0.552464
    11  C   -0.499138
    12  C    0.780851
    13  O   -0.476350
    14  O   -0.677009
    15  H    0.368027
    16  H   -0.084075
    17  H    0.132642
    18  H    0.125052
    19  N   -0.214231
    20  C   -0.434237
    21  C    0.781255
    22  O   -0.610524
    23  C    0.278460
    24  C   -0.304425
    25  C    0.055060
    26  C    0.149604
    27  N   -0.550674
    28  H    0.182294
    29  H    0.148569
    30  H    0.045079
    31  H    0.060894
    32  H    0.090564
    33  H    0.075693
    34  H    0.004819
    35  H    0.022345
    36  H    0.050895
    37  H    0.080054
    38  H    0.360522
    39  H    0.367242
    40  H    0.386564
    41  N   -0.566992
    42  C    0.239240
    43  C    0.362162
    44  O   -0.512936
    45  C   -0.461624
    46  C    0.875460
    47  O   -0.729738
    48  O   -0.720514
    49  H    0.238004
    50  H    0.055024
    51  H    0.106775
    52  H    0.130616
    53  N    0.139280
    54  C   -0.324572
    55  C    0.562774
    56  O   -0.540247
    57  H   -0.147022
    58  H    0.103923
    59  H    0.161270
    60  N   -0.214612
    61  C   -0.047738
    62  C    0.419920
    63  O   -0.543878
    64  C   -0.019659
    65  C    0.515459
    66  N   -0.818056
    67  O   -0.629059
    68  H    0.023071
    69  H    0.115381
    70  H    0.113706
    71  H    0.029878
    72  H    0.380778
    73  H    0.397579
    74  N   -0.191915
    75  C   -0.152768
    76  C    0.647459
    77  O   -0.571241
    78  H    0.209353
    79  H    0.127703
    80  H    0.086510
    81  N   -0.809438
    82  C    0.554475
    83  C    0.384245
    84  O   -0.577950
    85  C    0.177867
    86  C   -0.186678
    87  C   -0.149575
    88  C    0.003306
    89  C   -0.152622
    90  C   -0.307071
    91  C    0.326052
    92  O   -0.543818
    93  H    0.581665
    94  H   -0.050980
    95  H   -0.034352
    96  H   -0.106527
    97  H    0.137082
    98  H    0.088214
    99  H    0.136167
   100  H    0.129082
   101  H    0.413863
   102  N   -0.679152
   103  C    0.131386
   104  C    0.570320
   105  O   -0.547377
   106  C    0.129566
   107  C    0.007982
   108  C   -0.285892
   109  C   -0.387449
   110  H    0.343696
   111  H    0.074301
   112  H    0.014749
   113  H    0.090087
   114  H    0.127455
   115  H    0.103451
   116  H    0.027075
   117  H    0.013137
   118  H    0.108241
   119  H    0.086002
   120  H    0.089008
   121  N   -0.285613
   122  C    0.051451
   123  C    0.542000
   124  O   -0.392483
   125  C   -0.113986
   126  O   -0.379792
   127  H    0.143172
   128  H    0.087725
   129  H    0.089035
   130  H    0.061582
   131  H    0.385237
   132  N   -0.492987
   133  C    0.158052
   134  C    0.550598
   135  O   -0.537832
   136  C   -0.245987
   137  H    0.278730
   138  H    0.087046
   139  H    0.093877
   140  H    0.035444
   141  H    0.096007
   142  N   -0.460061
   143  C    0.177910
   144  C    0.444089
   145  O   -0.593786
   146  C   -0.356145
   147  H    0.305693
   148  H    0.082707
   149  H    0.098221
   150  H    0.118437
   151  H    0.086114
   152  N    0.229185
   153  C   -0.249711
   154  C    0.447830
   155  O   -0.546574
   156  C    0.104445
   157  C   -0.083456
   158  C    0.717055
   159  O   -0.749469
   160  O   -0.764386
   161  H   -0.441772
   162  H    0.132347
   163  H    0.127009
   164  H    0.001833
   165  H    0.022247
   166  H   -0.073332
   167  N   -0.036682
   168  C   -0.256831
   169  H    0.107361
   170  H    0.107545
   171  H    0.084110
   172  H    0.161667
   173  Ca   1.595353
   174  O   -0.820441
   175  H    0.417411
   176  H    0.377691
 Sum of ESP charges =   0.00000

 Normal termination of Gaussian 16 at Sat Sep 14 22:39:23 2019.
