 Gaussian 16, Revision A.03,
 Gaussian 16:  ES64L-G16RevA.03 25-Dec-2016

 ----------------------------------------------------------------------
 #b3lyp/svp scf=(tight,noincore) Test #IOP(5/87=12) Density=Current Pop
 =(MK,readradii) iop(6/33=2) iop(6/42=6)
 ----------------------------------------------------------------------

 ------------------
 holoCaM_loop3_70.0
 ------------------
 Symbolic Z-matrix:
 Charge =  0 Multiplicity = 1

                         Standard orientation:
 ---------------------------------------------------------------------
 Center     Atomic      Atomic             Coordinates (Angstroms)
 Number     Number       Type             X           Y           Z
 ---------------------------------------------------------------------
      1          6           0       -2.213731   -3.830233    5.001774
      2          6           0       -1.679557   -3.315135    3.673229
      3          8           0       -2.463787   -3.381670    2.720467
      4          1           0       -2.306348   -3.000316    5.702342
      5          1           0       -3.191523   -4.286603    4.848135
      6          1           0       -1.525900   -4.571721    5.407181
      7          7           0       -0.421570   -2.876878    3.551991
      8          6           0        0.249774   -2.616322    2.296878
      9          6           0        0.295167   -3.933683    1.529480
     10          8           0        0.760800   -4.974865    1.980287
     11          6           0        1.629102   -2.043360    2.605210
     12          6           0        2.326203   -1.544642    1.354038
     13          8           0        3.379898   -0.892156    1.522231
     14          8           0        1.905508   -1.860398    0.221468
     15          1           0        0.150168   -2.713631    4.362649
     16          1           0       -0.309845   -1.925219    1.667432
     17          1           0        2.145185   -2.843535    3.132636
     18          1           0        1.455928   -1.169213    3.232488
     19          7           0       -0.378187   -3.938365    0.377016
     20          6           0       -0.584893   -5.150278   -0.395538
     21          6           0        0.627409   -5.638780   -1.177707
     22          8           0        0.673652   -6.795497   -1.610452
     23          6           0       -1.881035   -5.059334   -1.201171
     24          6           0       -3.145306   -5.086732   -0.341248
     25          6           0       -3.538393   -6.273859    0.535001
     26          6           0       -4.810080   -6.014437    1.339434
     27          7           0       -5.985041   -5.917038    0.442841
     28          1           0       -0.921690   -3.109912    0.197654
     29          1           0       -0.800862   -5.993372    0.252960
     30          1           0       -2.061759   -5.717739   -2.048249
     31          1           0       -1.847206   -4.080097   -1.680286
     32          1           0       -3.978473   -4.959053   -1.038694
     33          1           0       -3.126212   -4.183813    0.259479
     34          1           0       -2.674321   -6.539824    1.140676
     35          1           0       -3.709435   -7.129458   -0.105387
     36          1           0       -4.545905   -5.103697    1.870343
     37          1           0       -5.044023   -6.722766    2.131861
     38          1           0       -6.785773   -6.273655    0.939382
     39          1           0       -6.071969   -4.931080    0.245280
     40          1           0       -5.920970   -6.370690   -0.447268
     41          7           0        1.617019   -4.771438   -1.395170
     42          6           0        2.906633   -5.138081   -1.952455
     43          6           0        4.104731   -4.780611   -1.088408
     44          8           0        5.212712   -5.161282   -1.488492
     45          6           0        3.085559   -4.579917   -3.358741
     46          6           0        3.085270   -3.066462   -3.521081
     47          8           0        3.161178   -2.629157   -4.689499
     48          8           0        2.911388   -2.305055   -2.546543
     49          1           0        1.454379   -3.797671   -1.223924
     50          1           0        2.854699   -6.218696   -2.079636
     51          1           0        2.358513   -5.047189   -4.015294
     52          1           0        4.018341   -4.934695   -3.798002
     53          7           0        3.902675   -4.074244    0.021690
     54          6           0        4.935095   -3.721705    0.972493
     55          6           0        5.846931   -2.558978    0.591022
     56          8           0        6.917817   -2.447471    1.190080
     57          1           0        3.041525   -3.552334    0.143877
     58          1           0        5.593305   -4.582116    1.115508
     59          1           0        4.362927   -3.579352    1.894696
     60          7           0        5.440806   -1.748192   -0.382831
     61          6           0        6.356447   -0.731712   -0.857561
     62          6           0        6.582943    0.529779   -0.038635
     63          8           0        7.399539    1.381370   -0.381071
     64          6           0        5.942351   -0.314213   -2.270119
     65          6           0        4.793201    0.689422   -2.302843
     66          7           0        5.037428    1.853121   -2.896440
     67          8           0        3.713544    0.421597   -1.771420
     68          1           0        4.536350   -1.905741   -0.809606
     69          1           0        7.363678   -1.143615   -0.868576
     70          1           0        5.666085   -1.167168   -2.889993
     71          1           0        6.791705    0.153014   -2.765495
     72          1           0        6.024593    1.991449   -3.066648
     73          1           0        4.338096    2.581666   -2.794669
     74          7           0        6.013199    0.461099    1.162063
     75          6           0        6.121356    1.546190    2.123042
     76          6           0        4.943483    2.512174    2.142829
     77          8           0        5.089818    3.553165    2.778849
     78          1           0        5.334415   -0.288601    1.272064
     79          1           0        7.024151    2.106349    1.904447
     80          1           0        6.187435    1.133160    3.129441
     81          7           0        3.866373    2.301124    1.383294
     82          6           0        2.776177    3.252078    1.230783
     83          6           0        1.490636    2.471664    0.996396
     84          8           0        1.428243    1.586782    0.146872
     85          6           0        3.074113    4.233307    0.097723
     86          6           0        4.318129    5.083318    0.178383
     87          6           0        5.520807    4.574349   -0.319026
     88          6           0        4.193255    6.400811    0.645310
     89          6           0        6.636032    5.415782   -0.400660
     90          6           0        5.323472    7.227642    0.637582
     91          6           0        6.522922    6.739640    0.086788
     92          8           0        7.603366    7.546095   -0.115125
     93          1           0        3.857475    1.453718    0.837471
     94          1           0        2.728104    3.847610    2.145677
     95          1           0        2.182887    4.841385   -0.096587
     96          1           0        3.084491    3.613561   -0.807543
     97          1           0        5.658165    3.616636   -0.787767
     98          1           0        3.223413    6.819222    0.881403
     99          1           0        7.575783    5.137483   -0.838403
    100          1           0        5.176703    8.239561    0.987693
    101          1           0        7.549145    8.335559    0.411759
    102          7           0        0.508402    2.767950    1.842760
    103          6           0       -0.869332    2.332568    1.710123
    104          6           0       -1.560647    3.428732    0.908683
    105          8           0       -1.636325    4.597262    1.276666
    106          6           0       -1.460063    2.197797    3.109042
    107          6           0       -1.130540    0.786775    3.582046
    108          6           0       -2.962750    2.357521    3.277630
    109          6           0       -1.510331    0.550493    5.042604
    110          1           0        0.657885    3.656703    2.295169
    111          1           0       -0.910511    1.398336    1.141517
    112          1           0       -0.958798    2.937343    3.732583
    113          1           0       -0.078518    0.579294    3.408841
    114          1           0       -1.585030   -0.052905    3.045598
    115          1           0       -3.355770    3.239091    2.761618
    116          1           0       -3.495453    1.423207    3.059031
    117          1           0       -3.093861    2.607512    4.327828
    118          1           0       -0.967504   -0.364298    5.292995
    119          1           0       -1.388364    1.390197    5.720926
    120          1           0       -2.576994    0.331949    5.073724
    121          7           0       -2.148792    3.056484   -0.232202
    122          6           0       -2.794196    3.945816   -1.166355
    123          6           0       -4.313870    3.887527   -1.134813
    124          8           0       -4.827083    3.251792   -0.214566
    125          6           0       -2.201285    3.770358   -2.557998
    126          8           0       -2.131229    2.429441   -2.976488
    127          1           0       -1.935566    2.104921   -0.502685
    128          1           0       -2.439426    4.965057   -0.984187
    129          1           0       -1.179241    4.155282   -2.532314
    130          1           0       -2.824133    4.380139   -3.213687
    131          1           0       -1.568707    1.915813   -2.408637
    132          7           0       -5.135771    4.574620   -1.939165
    133          6           0       -6.557559    4.663195   -1.653557
    134          6           0       -7.340875    3.357415   -1.637624
    135          8           0       -8.192896    3.134440   -0.787658
    136          6           0       -7.210891    5.720934   -2.537948
    137          1           0       -4.808658    5.202289   -2.652767
    138          1           0       -6.568669    5.117766   -0.657644
    139          1           0       -6.703085    6.685988   -2.568015
    140          1           0       -7.341861    5.299054   -3.540526
    141          1           0       -8.234827    5.878218   -2.204457
    142          7           0       -6.863776    2.415028   -2.461811
    143          6           0       -7.384835    1.060822   -2.527586
    144          6           0       -6.935796    0.217314   -1.353764
    145          8           0       -7.537700   -0.826580   -1.069867
    146          6           0       -6.933724    0.452539   -3.859610
    147          1           0       -6.203928    2.686557   -3.163076
    148          1           0       -8.475873    1.097814   -2.478923
    149          1           0       -7.209508   -0.604901   -3.797439
    150          1           0       -7.501905    0.929582   -4.666270
    151          1           0       -5.850381    0.442477   -3.912216
    152          7           0       -5.795606    0.487815   -0.717057
    153          6           0       -5.302919   -0.088949    0.519552
    154          6           0       -5.990727    0.382684    1.785996
    155          8           0       -6.298730   -0.416038    2.663537
    156          6           0       -3.777557   -0.101966    0.497124
    157          6           0       -3.234169   -0.789718   -0.746189
    158          6           0       -1.737290   -0.578986   -0.909418
    159          8           0       -0.918670   -1.484275   -0.625143
    160          8           0       -1.263572    0.517776   -1.292176
    161          1           0       -5.311408    1.308865   -1.025162
    162          1           0       -5.605457   -1.138153    0.487297
    163          1           0       -3.426341   -0.744918    1.304193
    164          1           0       -3.428805    0.918440    0.648270
    165          1           0       -3.696838   -0.377958   -1.646684
    166          1           0       -3.570335   -1.829841   -0.752238
    167          7           0       -6.239964    1.687144    1.899421
    168          6           0       -6.995449    2.298057    2.981146
    169          1           0       -6.327515    2.505902    3.817365
    170          1           0       -7.441195    3.229884    2.632296
    171          1           0       -7.782069    1.616552    3.305776
    172          1           0       -5.850283    2.255852    1.168244
    173         20           0        1.267507   -0.342365   -1.657555
    174          8           0       -0.090578   -2.090718   -3.187445
    175          1           0       -0.473957   -1.833742   -4.031770
    176          1           0       -0.824564   -2.449619   -2.684599
 ---------------------------------------------------------------------

 SCF Done:  E(RB3LYP) =  -5333.59917404     A.U. after   18 cycles

 The electronic state is 1-A.
 Alpha  occ. eigenvalues -- -145.39113 -19.16992 -19.14801 -19.14571 -19.14419
 Alpha  occ. eigenvalues --  -19.13956 -19.13380 -19.12610 -19.11903 -19.11380
 Alpha  occ. eigenvalues --  -19.11303 -19.11193 -19.10505 -19.08923 -19.07846
 Alpha  occ. eigenvalues --  -19.06841 -19.06588 -19.06336 -19.05922 -19.04716
 Alpha  occ. eigenvalues --  -19.04532 -19.03611 -19.01440 -18.98458 -15.44842
 Alpha  occ. eigenvalues --  -14.57524 -14.40837 -14.38546 -14.38498 -14.37034
 Alpha  occ. eigenvalues --  -14.36593 -14.36480 -14.36384 -14.34344 -14.33355
 Alpha  occ. eigenvalues --  -14.32605 -14.31547 -14.30909 -14.30757 -14.29668
 Alpha  occ. eigenvalues --  -12.58462 -12.58424 -12.58392 -10.33506 -10.33276
 Alpha  occ. eigenvalues --  -10.31703 -10.31553 -10.31334 -10.29936 -10.29859
 Alpha  occ. eigenvalues --  -10.29630 -10.29468 -10.27620 -10.27063 -10.26992
 Alpha  occ. eigenvalues --  -10.26550 -10.26128 -10.26108 -10.26061 -10.25499
 Alpha  occ. eigenvalues --  -10.25466 -10.25132 -10.25008 -10.24747 -10.24179
 Alpha  occ. eigenvalues --  -10.23793 -10.23733 -10.23712 -10.23173 -10.23061
 Alpha  occ. eigenvalues --  -10.22477 -10.22454 -10.22416 -10.22139 -10.21898
 Alpha  occ. eigenvalues --  -10.21810 -10.21667 -10.21499 -10.20759 -10.20529
 Alpha  occ. eigenvalues --  -10.20323 -10.19726 -10.19414 -10.19410 -10.19069
 Alpha  occ. eigenvalues --  -10.18546 -10.18505 -10.18293 -10.18206 -10.17977
 Alpha  occ. eigenvalues --  -10.17967 -10.17856 -10.17722 -10.17693 -10.17202
 Alpha  occ. eigenvalues --  -10.17124 -10.11902  -1.81643  -1.12869  -1.09438
 Alpha  occ. eigenvalues --   -1.09230  -1.08933  -1.08401  -1.07422  -1.06472
 Alpha  occ. eigenvalues --   -1.05566  -1.04718  -1.03760  -1.03708  -1.03628
 Alpha  occ. eigenvalues --   -1.03559  -1.03389  -1.02923  -1.01910  -1.01107
 Alpha  occ. eigenvalues --   -1.00539  -1.00102  -0.99415  -0.98652  -0.97598
 Alpha  occ. eigenvalues --   -0.97187  -0.96924  -0.96103  -0.95913  -0.95503
 Alpha  occ. eigenvalues --   -0.94696  -0.93868  -0.93360  -0.93147  -0.91561
 Alpha  occ. eigenvalues --   -0.90743  -0.90607  -0.90537  -0.90344  -0.89034
 Alpha  occ. eigenvalues --   -0.87927  -0.87576  -0.87391  -0.85971  -0.84334
 Alpha  occ. eigenvalues --   -0.83812  -0.83636  -0.82862  -0.81924  -0.81371
 Alpha  occ. eigenvalues --   -0.80189  -0.79087  -0.78320  -0.78276  -0.75984
 Alpha  occ. eigenvalues --   -0.75748  -0.75702  -0.74932  -0.73509  -0.73371
 Alpha  occ. eigenvalues --   -0.72873  -0.72803  -0.72351  -0.71541  -0.70898
 Alpha  occ. eigenvalues --   -0.70353  -0.70071  -0.69999  -0.68455  -0.68392
 Alpha  occ. eigenvalues --   -0.67938  -0.67478  -0.65934  -0.65461  -0.65370
 Alpha  occ. eigenvalues --   -0.64539  -0.64068  -0.63660  -0.62655  -0.62584
 Alpha  occ. eigenvalues --   -0.61984  -0.61625  -0.61122  -0.60927  -0.60917
 Alpha  occ. eigenvalues --   -0.60448  -0.59798  -0.58713  -0.58485  -0.58180
 Alpha  occ. eigenvalues --   -0.57960  -0.57893  -0.57437  -0.57171  -0.56980
 Alpha  occ. eigenvalues --   -0.56844  -0.56358  -0.56132  -0.55915  -0.55495
 Alpha  occ. eigenvalues --   -0.55009  -0.54842  -0.54654  -0.54334  -0.53744
 Alpha  occ. eigenvalues --   -0.53476  -0.53457  -0.53016  -0.52849  -0.52374
 Alpha  occ. eigenvalues --   -0.51848  -0.51725  -0.51574  -0.51157  -0.50785
 Alpha  occ. eigenvalues --   -0.50384  -0.50236  -0.49849  -0.49748  -0.49649
 Alpha  occ. eigenvalues --   -0.49423  -0.49205  -0.49030  -0.48783  -0.48563
 Alpha  occ. eigenvalues --   -0.48183  -0.48100  -0.47929  -0.47720  -0.47394
 Alpha  occ. eigenvalues --   -0.47151  -0.46889  -0.46795  -0.46467  -0.46390
 Alpha  occ. eigenvalues --   -0.46204  -0.46047  -0.45960  -0.45737  -0.45505
 Alpha  occ. eigenvalues --   -0.45120  -0.44992  -0.44869  -0.44669  -0.44477
 Alpha  occ. eigenvalues --   -0.44427  -0.44129  -0.44053  -0.43887  -0.43837
 Alpha  occ. eigenvalues --   -0.43779  -0.43453  -0.43347  -0.43273  -0.42845
 Alpha  occ. eigenvalues --   -0.42732  -0.42694  -0.42666  -0.42487  -0.42449
 Alpha  occ. eigenvalues --   -0.42299  -0.42218  -0.41832  -0.41765  -0.41700
 Alpha  occ. eigenvalues --   -0.41599  -0.41501  -0.41424  -0.41321  -0.41119
 Alpha  occ. eigenvalues --   -0.40973  -0.40475  -0.40388  -0.40286  -0.40180
 Alpha  occ. eigenvalues --   -0.40134  -0.39900  -0.39804  -0.39583  -0.39571
 Alpha  occ. eigenvalues --   -0.39079  -0.38946  -0.38802  -0.38710  -0.38552
 Alpha  occ. eigenvalues --   -0.38537  -0.38433  -0.38110  -0.37903  -0.37799
 Alpha  occ. eigenvalues --   -0.37544  -0.37334  -0.37293  -0.37261  -0.37202
 Alpha  occ. eigenvalues --   -0.37097  -0.36796  -0.36633  -0.36409  -0.36190
 Alpha  occ. eigenvalues --   -0.35838  -0.35655  -0.35434  -0.35343  -0.35234
 Alpha  occ. eigenvalues --   -0.35077  -0.34980  -0.34682  -0.34631  -0.34509
 Alpha  occ. eigenvalues --   -0.34405  -0.34145  -0.33662  -0.33429  -0.33266
 Alpha  occ. eigenvalues --   -0.32987  -0.32623  -0.32500  -0.32049  -0.31991
 Alpha  occ. eigenvalues --   -0.31954  -0.31929  -0.31378  -0.30951  -0.30640
 Alpha  occ. eigenvalues --   -0.30383  -0.30299  -0.29882  -0.29611  -0.29473
 Alpha  occ. eigenvalues --   -0.29167  -0.28643  -0.28382  -0.28130  -0.28028
 Alpha  occ. eigenvalues --   -0.27907  -0.27382  -0.26832  -0.26704  -0.26615
 Alpha  occ. eigenvalues --   -0.26130  -0.25532  -0.25299  -0.25244  -0.24661
 Alpha  occ. eigenvalues --   -0.24509  -0.24291  -0.24170  -0.23709  -0.23528
 Alpha  occ. eigenvalues --   -0.23301  -0.22857  -0.22559  -0.21692  -0.21471
 Alpha  occ. eigenvalues --   -0.21096  -0.20486  -0.20032  -0.19091  -0.18853
 Alpha  occ. eigenvalues --   -0.18199  -0.17704  -0.14712
 Alpha virt. eigenvalues --   -0.09359  -0.04170  -0.04016  -0.03668  -0.03038
 Alpha virt. eigenvalues --   -0.01795  -0.01746  -0.00858  -0.00458  -0.00137
 Alpha virt. eigenvalues --   -0.00020   0.00176   0.00190   0.00766   0.00795

 Mulliken charges:
               1
     1  C    0.061016
     2  C    0.052382
     3  O   -0.321994
     4  H    0.034094
     5  H    0.011269
     6  H    0.036448
     7  N   -0.102470
     8  C    0.073720
     9  C    0.056576
    10  O   -0.281743
    11  C    0.055871
    12  C    0.135851
    13  O   -0.361933
    14  O   -0.472902
    15  H    0.121351
    16  H   -0.005191
    17  H    0.033088
    18  H    0.010894
    19  N   -0.123194
    20  C    0.138786
    21  C    0.061104
    22  O   -0.302569
    23  C    0.102499
    24  C   -0.071586
    25  C    0.008517
    26  C    0.004341
    27  N    0.075972
    28  H    0.134208
    29  H   -0.003883
    30  H    0.006885
    31  H   -0.045377
    32  H   -0.057847
    33  H    0.044089
    34  H    0.073229
    35  H    0.008169
    36  H    0.103972
    37  H    0.064163
    38  H    0.194441
    39  H    0.209658
    40  H    0.183350
    41  N   -0.141874
    42  C    0.142469
    43  C    0.073216
    44  O   -0.294278
    45  C    0.045384
    46  C    0.107567
    47  O   -0.386216
    48  O   -0.457048
    49  H    0.138303
    50  H    0.012052
    51  H   -0.013240
    52  H    0.016351
    53  N   -0.187648
    54  C    0.228684
    55  C    0.034773
    56  O   -0.300997
    57  H    0.156178
    58  H    0.022583
    59  H    0.013214
    60  N   -0.154762
    61  C    0.142686
    62  C    0.020949
    63  O   -0.297219
    64  C    0.078425
    65  C    0.045842
    66  N   -0.018514
    67  O   -0.358459
    68  H    0.166399
    69  H    0.038591
    70  H    0.080481
    71  H   -0.009495
    72  H    0.150245
    73  H    0.132817
    74  N   -0.162477
    75  C    0.250614
    76  C    0.014590
    77  O   -0.303821
    78  H    0.167937
    79  H    0.043052
    80  H    0.028913
    81  N   -0.146863
    82  C    0.127711
    83  C    0.144318
    84  O   -0.361101
    85  C    0.116388
    86  C    0.042557
    87  C    0.020378
    88  C   -0.006407
    89  C   -0.014751
    90  C   -0.042838
    91  C    0.167362
    92  O   -0.199585
    93  H    0.142108
    94  H   -0.004048
    95  H   -0.024333
    96  H   -0.044152
    97  H   -0.050512
    98  H   -0.038245
    99  H   -0.021258
   100  H   -0.046465
   101  H    0.166757
   102  N   -0.105423
   103  C    0.150804
   104  C    0.032473
   105  O   -0.287342
   106  C   -0.067829
   107  C   -0.054766
   108  C    0.059512
   109  C    0.045978
   110  H    0.137455
   111  H    0.010894
   112  H   -0.013140
   113  H    0.004266
   114  H    0.019692
   115  H    0.026269
   116  H    0.040380
   117  H    0.006263
   118  H   -0.008069
   119  H    0.013546
   120  H    0.009027
   121  N   -0.135625
   122  C    0.089832
   123  C    0.131712
   124  O   -0.292890
   125  C    0.235738
   126  O   -0.332497
   127  H    0.129566
   128  H    0.032696
   129  H    0.001981
   130  H   -0.022477
   131  H    0.160153
   132  N   -0.128067
   133  C    0.059757
   134  C    0.088089
   135  O   -0.248128
   136  C    0.027021
   137  H    0.118497
   138  H    0.026958
   139  H    0.036301
   140  H    0.006318
   141  H    0.043386
   142  N   -0.151144
   143  C    0.086593
   144  C    0.061577
   145  O   -0.308637
   146  C    0.045835
   147  H    0.110481
   148  H    0.029689
   149  H    0.023058
   150  H    0.039492
   151  H    0.017131
   152  N   -0.143175
   153  C    0.147234
   154  C    0.062445
   155  O   -0.285109
   156  C   -0.043921
   157  C    0.123294
   158  C    0.154702
   159  O   -0.389711
   160  O   -0.455105
   161  H    0.122520
   162  H   -0.034611
   163  H    0.040456
   164  H    0.018217
   165  H   -0.010840
   166  H   -0.030700
   167  N   -0.160020
   168  C    0.143571
   169  H    0.017227
   170  H    0.023627
   171  H    0.032272
   172  H    0.126598
   173  Ca   1.313913
   174  O   -0.267301
   175  H    0.178867
   176  H    0.174624
 Sum of Mulliken charges =  -0.00000

 Dipole moment (field-independent basis, Debye):
    X=            -35.7104    Y=              3.6631    Z=             -1.1062  Tot=             35.9148
 Quadrupole moment (field-independent basis, Debye-Ang):
   XX=           -600.8968   YY=           -479.7771   ZZ=           -554.7436
   XY=            150.5986   XZ=             37.9066   YZ=            -68.4296

 ESP charges:
               1
     1  C   -0.419137
     2  C    0.837475
     3  O   -0.632108
     4  H    0.101590
     5  H    0.115198
     6  H    0.107513
     7  N   -0.762907
     8  C    0.438290
     9  C    0.383392
    10  O   -0.547422
    11  C   -0.493450
    12  C    1.053852
    13  O   -0.810894
    14  O   -0.867213
    15  H    0.366021
    16  H   -0.066516
    17  H    0.138429
    18  H    0.090663
    19  N    0.070139
    20  C   -0.457192
    21  C    0.697204
    22  O   -0.589639
    23  C    0.119143
    24  C    0.239091
    25  C   -0.393973
    26  C    0.291105
    27  N   -0.562055
    28  H    0.110347
    29  H    0.139227
    30  H    0.022276
    31  H   -0.042300
    32  H   -0.085914
    33  H    0.019121
    34  H    0.148765
    35  H    0.077676
    36  H    0.014818
    37  H    0.045231
    38  H    0.377703
    39  H    0.369530
    40  H    0.388982
    41  N   -0.467591
    42  C    0.027291
    43  C    0.414373
    44  O   -0.524000
    45  C   -0.272165
    46  C    0.811068
    47  O   -0.709419
    48  O   -0.847342
    49  H    0.308061
    50  H    0.122866
    51  H    0.077884
    52  H    0.087240
    53  N   -0.182906
    54  C   -0.298034
    55  C    0.613496
    56  O   -0.593268
    57  H    0.142258
    58  H    0.149721
    59  H    0.114432
    60  N   -0.380748
    61  C   -0.046852
    62  C    0.440517
    63  O   -0.537305
    64  C   -0.321457
    65  C    0.710344
    66  N   -0.773214
    67  O   -0.662190
    68  H    0.405297
    69  H    0.148573
    70  H    0.168176
    71  H    0.080237
    72  H    0.380015
    73  H    0.377855
    74  N   -0.176346
    75  C   -0.313486
    76  C    0.623280
    77  O   -0.541684
    78  H    0.302866
    79  H    0.170561
    80  H    0.123856
    81  N   -0.551180
    82  C    0.115441
    83  C    0.669464
    84  O   -0.662160
    85  C    0.017109
    86  C   -0.231777
    87  C    0.057725
    88  C    0.062472
    89  C   -0.307769
    90  C   -0.394866
    91  C    0.444063
    92  O   -0.577500
    93  H    0.377111
    94  H    0.062123
    95  H    0.022204
    96  H   -0.006652
    97  H    0.062489
    98  H    0.083637
    99  H    0.177681
   100  H    0.148790
   101  H    0.415247
   102  N   -0.648986
   103  C   -0.072684
   104  C    0.436154
   105  O   -0.526544
   106  C    0.112452
   107  C    0.004401
   108  C   -0.317300
   109  C   -0.395179
   110  H    0.339093
   111  H    0.170143
   112  H    0.072185
   113  H    0.067085
   114  H    0.070291
   115  H    0.101703
   116  H    0.074710
   117  H    0.097867
   118  H    0.079159
   119  H    0.109627
   120  H    0.103157
   121  N   -0.069190
   122  C   -0.167068
   123  C    0.525495
   124  O   -0.447102
   125  C    0.254254
   126  O   -0.641050
   127  H    0.209054
   128  H    0.082454
   129  H    0.001862
   130  H    0.009301
   131  H    0.395290
   132  N   -0.408714
   133  C    0.082517
   134  C    0.513076
   135  O   -0.535163
   136  C   -0.282256
   137  H    0.281217
   138  H    0.081672
   139  H    0.101689
   140  H    0.058486
   141  H    0.110154
   142  N   -0.381494
   143  C    0.156964
   144  C    0.318377
   145  O   -0.535017
   146  C   -0.422917
   147  H    0.248544
   148  H    0.098935
   149  H    0.128382
   150  H    0.130810
   151  H    0.118776
   152  N    0.018335
   153  C   -0.470235
   154  C    0.683697
   155  O   -0.594756
   156  C    0.411652
   157  C    0.124505
   158  C    0.544280
   159  O   -0.641271
   160  O   -0.750487
   161  H    0.114908
   162  H    0.123981
   163  H   -0.038048
   164  H   -0.222376
   165  H   -0.039541
   166  H   -0.071539
   167  N   -0.199952
   168  C   -0.166869
   169  H    0.058536
   170  H    0.089972
   171  H    0.099048
   172  H    0.170985
   173  Ca   1.655937
   174  O   -0.716882
   175  H    0.394500
   176  H    0.358974
 Sum of ESP charges =  -0.00000

 Normal termination of Gaussian 16 at Sat Sep 14 22:39:58 2019.
