 Gaussian 16, Revision A.03,
 Gaussian 16:  ES64L-G16RevA.03 25-Dec-2016

 ----------------------------------------------------------------------
 #b3lyp/svp scf=(tight,noincore) Test #IOP(5/87=12) Density=Current Pop
 =(MK,readradii) iop(6/33=2) iop(6/42=6)
 ----------------------------------------------------------------------

 ------------------
 holoCaM_loop3_85.0
 ------------------
 Symbolic Z-matrix:
 Charge =  0 Multiplicity = 1

                         Standard orientation:
 ---------------------------------------------------------------------
 Center     Atomic      Atomic             Coordinates (Angstroms)
 Number     Number       Type             X           Y           Z
 ---------------------------------------------------------------------
      1          6           0        2.391446    3.177555    5.207304
      2          6           0        1.868440    2.625119    3.890725
      3          8           0        2.665659    2.327452    3.017091
      4          1           0        1.577562    3.220915    5.930741
      5          1           0        3.179854    2.527764    5.586359
      6          1           0        2.790199    4.179917    5.048809
      7          7           0        0.540785    2.568939    3.714440
      8          6           0       -0.077564    2.361255    2.423467
      9          6           0       -0.166313    3.610723    1.555737
     10          8           0       -1.128533    4.373371    1.654731
     11          6           0       -1.463941    1.738305    2.610257
     12          6           0       -2.283645    1.539546    1.335903
     13          8           0       -3.451744    1.118477    1.429430
     14          8           0       -1.789710    1.785246    0.214538
     15          1           0       -0.067435    2.749644    4.503816
     16          1           0        0.513136    1.718293    1.778353
     17          1           0       -2.038766    2.389596    3.268737
     18          1           0       -1.477454    0.806599    3.169491
     19          7           0        0.809947    3.849319    0.673983
     20          6           0        1.062814    5.063935   -0.061520
     21          6           0        0.083438    5.456473   -1.163037
     22          8           0        0.339138    6.509358   -1.741266
     23          6           0        2.499720    5.065594   -0.572107
     24          6           0        3.603170    4.487787    0.302957
     25          6           0        3.805548    5.345532    1.548234
     26          6           0        4.881289    4.784298    2.475810
     27          7           0        5.043379    5.813194    3.520129
     28          1           0        1.527094    3.137778    0.677104
     29          1           0        0.960879    5.788581    0.745261
     30          1           0        2.801303    6.084261   -0.846817
     31          1           0        2.446464    4.518738   -1.507367
     32          1           0        4.587919    4.446486   -0.145109
     33          1           0        3.346729    3.461930    0.580905
     34          1           0        2.864437    5.328786    2.092872
     35          1           0        4.068409    6.331109    1.153085
     36          1           0        5.779856    4.574757    1.898255
     37          1           0        4.618428    3.798722    2.870960
     38          1           0        5.471122    6.677937    3.213936
     39          1           0        4.137497    5.994915    3.921695
     40          1           0        5.697693    5.628504    4.272168
     41          7           0       -0.968344    4.665993   -1.411425
     42          6           0       -1.981217    5.187963   -2.314383
     43          6           0       -3.354458    5.006807   -1.700223
     44          8           0       -4.431902    5.227317   -2.248848
     45          6           0       -1.837318    4.645715   -3.733594
     46          6           0       -1.955779    3.145917   -3.930242
     47          8           0       -1.697205    2.353204   -2.995177
     48          8           0       -2.029614    2.663795   -5.083414
     49          1           0       -1.133111    3.903021   -0.777685
     50          1           0       -1.774120    6.258699   -2.329746
     51          1           0       -0.828914    4.925954   -4.013574
     52          1           0       -2.472812    5.156300   -4.456679
     53          7           0       -3.436240    4.457504   -0.482653
     54          6           0       -4.621438    4.267890    0.332426
     55          6           0       -5.678602    3.322405   -0.246937
     56          8           0       -6.868072    3.606715   -0.111179
     57          1           0       -2.538492    4.244035   -0.069156
     58          1           0       -5.154540    5.195879    0.529498
     59          1           0       -4.267495    3.799151    1.244133
     60          7           0       -5.286623    2.173368   -0.789585
     61          6           0       -6.212638    1.164734   -1.268388
     62          6           0       -6.676322    0.076481   -0.308856
     63          8           0       -7.221182   -0.905832   -0.792891
     64          6           0       -5.651790    0.596048   -2.567790
     65          6           0       -4.776691   -0.636925   -2.434827
     66          7           0       -4.862761   -1.634633   -3.326999
     67          8           0       -3.922031   -0.672232   -1.549948
     68          1           0       -4.298567    2.011186   -0.687399
     69          1           0       -7.147164    1.615692   -1.599142
     70          1           0       -5.113076    1.360561   -3.130381
     71          1           0       -6.495424    0.373076   -3.222515
     72          1           0       -5.624420   -1.509783   -3.981590
     73          1           0       -4.213205   -2.402160   -3.216191
     74          7           0       -6.185259    0.156344    0.928633
     75          6           0       -6.360297   -0.722566    2.065813
     76          6           0       -5.279543   -1.793816    2.130569
     77          8           0       -5.276214   -2.467179    3.152269
     78          1           0       -5.707249    1.031487    1.087482
     79          1           0       -7.263797   -1.320061    1.969969
     80          1           0       -6.321069   -0.121793    2.976655
     81          7           0       -4.315947   -1.956165    1.214422
     82          6           0       -3.241484   -2.918427    1.330965
     83          6           0       -1.853047   -2.290552    1.280819
     84          8           0       -1.720246   -1.384270    0.453585
     85          6           0       -3.352433   -4.022046    0.272468
     86          6           0       -4.708353   -4.697271    0.350908
     87          6           0       -5.781665   -4.093303   -0.299417
     88          6           0       -4.863541   -5.882583    1.086811
     89          6           0       -7.063154   -4.662169   -0.188609
     90          6           0       -6.113014   -6.502669    1.131654
     91          6           0       -7.215569   -5.856761    0.549782
     92          8           0       -8.454505   -6.404632    0.731643
     93          1           0       -4.244309   -1.351445    0.415810
     94          1           0       -3.347568   -3.451259    2.275336
     95          1           0       -2.642256   -4.789266    0.557991
     96          1           0       -3.155162   -3.601541   -0.710212
     97          1           0       -5.582353   -3.193885   -0.864679
     98          1           0       -3.986890   -6.306150    1.544056
     99          1           0       -7.885664   -4.045563   -0.508724
    100          1           0       -6.208674   -7.466738    1.621573
    101          1           0       -8.407374   -7.270362    1.147806
    102          7           0       -0.842237   -2.714800    2.028066
    103          6           0        0.558151   -2.377481    1.845503
    104          6           0        1.172456   -3.457454    0.950859
    105          8           0        1.108924   -4.635751    1.289207
    106          6           0        1.300994   -2.264414    3.167283
    107          6           0        0.616009   -1.318762    4.162239
    108          6           0        2.742213   -1.796992    2.982343
    109          6           0        1.007929   -1.600579    5.608192
    110          1           0       -1.078507   -3.498281    2.624835
    111          1           0        0.576945   -1.396458    1.383942
    112          1           0        1.300873   -3.219967    3.703024
    113          1           0       -0.462611   -1.408684    4.145151
    114          1           0        0.898072   -0.277423    3.993854
    115          1           0        3.310488   -1.786096    3.916712
    116          1           0        3.273717   -2.405269    2.251247
    117          1           0        2.703980   -0.836719    2.466770
    118          1           0        0.401989   -0.996014    6.287852
    119          1           0        0.779381   -2.624105    5.903931
    120          1           0        2.021323   -1.268813    5.836366
    121          7           0        1.743412   -3.133578   -0.205953
    122          6           0        2.561284   -4.019774   -1.006730
    123          6           0        4.045074   -3.981192   -0.668235
    124          8           0        4.415399   -3.255769    0.258005
    125          6           0        2.345485   -3.492837   -2.418065
    126          8           0        2.619874   -2.119364   -2.544881
    127          1           0        1.680032   -2.147939   -0.438111
    128          1           0        2.275762   -5.074608   -1.005394
    129          1           0        1.327566   -3.629988   -2.799551
    130          1           0        3.052667   -4.012317   -3.054017
    131          1           0        2.769554   -1.902718   -3.471196
    132          7           0        4.943393   -4.596845   -1.433869
    133          6           0        6.353971   -4.777603   -1.148571
    134          6           0        7.135939   -3.496963   -1.423865
    135          8           0        7.943907   -3.089122   -0.602553
    136          6           0        6.889911   -5.994125   -1.902457
    137          1           0        4.487058   -5.202909   -2.100387
    138          1           0        6.459479   -5.000395   -0.087566
    139          1           0        6.426687   -6.061100   -2.881762
    140          1           0        7.978043   -5.968798   -1.976126
    141          1           0        6.640201   -6.909250   -1.379778
    142          7           0        6.943828   -2.827359   -2.570654
    143          6           0        7.440124   -1.514721   -2.930613
    144          6           0        7.028153   -0.462354   -1.922395
    145          8           0        7.833910    0.424336   -1.643760
    146          6           0        6.878779   -1.085770   -4.281980
    147          1           0        6.160951   -3.186609   -3.077945
    148          1           0        8.519279   -1.560555   -3.098916
    149          1           0        7.215536   -1.809147   -5.024287
    150          1           0        5.807633   -1.155389   -4.111101
    151          1           0        7.298806   -0.147031   -4.625119
    152          7           0        5.839174   -0.547782   -1.317390
    153          6           0        5.343686    0.387425   -0.331501
    154          6           0        6.029062    0.220773    1.015862
    155          8           0        6.507571    1.163186    1.626015
    156          6           0        3.816155    0.325358   -0.266715
    157          6           0        3.110189    0.825441   -1.513081
    158          6           0        1.621287    0.485484   -1.523024
    159          8           0        0.934125    0.407257   -0.486014
    160          8           0        1.025519    0.370440   -2.614227
    161          1           0        5.244516   -1.333596   -1.535515
    162          1           0        5.570650    1.383475   -0.727950
    163          1           0        3.499639    0.869965    0.630292
    164          1           0        3.550311   -0.696265   -0.002682
    165          1           0        3.510515    0.356538   -2.422129
    166          1           0        3.276873    1.895972   -1.644920
    167          7           0        6.324186   -1.047225    1.343253
    168          6           0        7.059571   -1.365050    2.553334
    169          1           0        7.623337   -2.286025    2.404507
    170          1           0        7.747768   -0.552009    2.784802
    171          1           0        6.360825   -1.496671    3.379993
    172          1           0        5.977742   -1.816370    0.789998
    173         20           0       -1.447823    0.187851   -1.703358
    174          8           0       -1.164184   -2.483723   -2.297596
    175          1           0       -1.872909   -3.003099   -2.680946
    176          1           0       -0.369683   -2.861161   -2.661888
 ---------------------------------------------------------------------

 SCF Done:  E(RB3LYP) =  -5333.56302743     A.U. after   18 cycles

 The electronic state is 1-A.
 Alpha  occ. eigenvalues -- -145.35058 -19.19137 -19.17813 -19.14549 -19.14197
 Alpha  occ. eigenvalues --  -19.12894 -19.12438 -19.11661 -19.10370 -19.10004
 Alpha  occ. eigenvalues --  -19.08906 -19.08815 -19.08122 -19.07195 -19.07013
 Alpha  occ. eigenvalues --  -19.05640 -19.05511 -19.04421 -19.04416 -19.04321
 Alpha  occ. eigenvalues --  -19.03423 -19.02846 -19.00049 -18.97200 -15.40814
 Alpha  occ. eigenvalues --  -14.57273 -14.40895 -14.38319 -14.38059 -14.37834
 Alpha  occ. eigenvalues --  -14.37151 -14.36521 -14.35462 -14.35085 -14.33067
 Alpha  occ. eigenvalues --  -14.32299 -14.31963 -14.31923 -14.30854 -14.29471
 Alpha  occ. eigenvalues --  -12.54420 -12.54395 -12.54374 -10.32835 -10.32161
 Alpha  occ. eigenvalues --  -10.31633 -10.30911 -10.30598 -10.29083 -10.29020
 Alpha  occ. eigenvalues --  -10.28704 -10.28122 -10.27932 -10.27671 -10.27544
 Alpha  occ. eigenvalues --  -10.26387 -10.25641 -10.25632 -10.25625 -10.24999
 Alpha  occ. eigenvalues --  -10.24913 -10.24340 -10.23980 -10.23790 -10.23583
 Alpha  occ. eigenvalues --  -10.23418 -10.23203 -10.23188 -10.23099 -10.22575
 Alpha  occ. eigenvalues --  -10.22505 -10.22283 -10.22100 -10.22084 -10.21272
 Alpha  occ. eigenvalues --  -10.21098 -10.20668 -10.20340 -10.20237 -10.19308
 Alpha  occ. eigenvalues --  -10.19104 -10.18705 -10.18615 -10.18340 -10.18104
 Alpha  occ. eigenvalues --  -10.18010 -10.18003 -10.17999 -10.17909 -10.17777
 Alpha  occ. eigenvalues --  -10.17341 -10.17291 -10.17267 -10.17068 -10.16985
 Alpha  occ. eigenvalues --  -10.16943 -10.12335  -1.77667  -1.12338  -1.07796
 Alpha  occ. eigenvalues --   -1.06258  -1.06084  -1.05894  -1.05666  -1.05164
 Alpha  occ. eigenvalues --   -1.05110  -1.04733  -1.04576  -1.04010  -1.03165
 Alpha  occ. eigenvalues --   -1.02870  -1.02311  -1.02200  -1.00925  -1.00396
 Alpha  occ. eigenvalues --   -1.00353  -1.00033  -0.99343  -0.98651  -0.97787
 Alpha  occ. eigenvalues --   -0.97483  -0.96797  -0.94844  -0.94526  -0.93875
 Alpha  occ. eigenvalues --   -0.93617  -0.92993  -0.92362  -0.92335  -0.92201
 Alpha  occ. eigenvalues --   -0.89906  -0.89291  -0.89154  -0.89110  -0.88916
 Alpha  occ. eigenvalues --   -0.88245  -0.87699  -0.87243  -0.85236  -0.83482
 Alpha  occ. eigenvalues --   -0.83398  -0.82402  -0.81801  -0.80767  -0.80407
 Alpha  occ. eigenvalues --   -0.79334  -0.79320  -0.78012  -0.77516  -0.76914
 Alpha  occ. eigenvalues --   -0.75868  -0.74798  -0.74461  -0.72946  -0.72644
 Alpha  occ. eigenvalues --   -0.72427  -0.72292  -0.72032  -0.71129  -0.70762
 Alpha  occ. eigenvalues --   -0.69982  -0.69707  -0.68724  -0.68473  -0.67926
 Alpha  occ. eigenvalues --   -0.67442  -0.66323  -0.65654  -0.65356  -0.64464
 Alpha  occ. eigenvalues --   -0.63814  -0.63038  -0.62473  -0.61882  -0.61763
 Alpha  occ. eigenvalues --   -0.61725  -0.60789  -0.60748  -0.60721  -0.59721
 Alpha  occ. eigenvalues --   -0.59530  -0.59470  -0.59184  -0.58806  -0.58716
 Alpha  occ. eigenvalues --   -0.58164  -0.57828  -0.57476  -0.57369  -0.56634
 Alpha  occ. eigenvalues --   -0.56173  -0.56041  -0.55887  -0.55600  -0.55392
 Alpha  occ. eigenvalues --   -0.55150  -0.54893  -0.54545  -0.54279  -0.53536
 Alpha  occ. eigenvalues --   -0.53306  -0.53278  -0.53240  -0.52651  -0.52100
 Alpha  occ. eigenvalues --   -0.52058  -0.51716  -0.51308  -0.51111  -0.50614
 Alpha  occ. eigenvalues --   -0.50461  -0.50121  -0.49719  -0.49594  -0.49423
 Alpha  occ. eigenvalues --   -0.48796  -0.48746  -0.48478  -0.48080  -0.47899
 Alpha  occ. eigenvalues --   -0.47649  -0.47296  -0.47062  -0.46892  -0.46818
 Alpha  occ. eigenvalues --   -0.46747  -0.46503  -0.46256  -0.45742  -0.45239
 Alpha  occ. eigenvalues --   -0.45130  -0.45080  -0.44946  -0.44903  -0.44811
 Alpha  occ. eigenvalues --   -0.44641  -0.44558  -0.44519  -0.44207  -0.43995
 Alpha  occ. eigenvalues --   -0.43955  -0.43907  -0.43475  -0.43257  -0.43201
 Alpha  occ. eigenvalues --   -0.43044  -0.42812  -0.42783  -0.42523  -0.42445
 Alpha  occ. eigenvalues --   -0.42312  -0.42205  -0.42040  -0.41877  -0.41664
 Alpha  occ. eigenvalues --   -0.41569  -0.41473  -0.41362  -0.41243  -0.41139
 Alpha  occ. eigenvalues --   -0.40987  -0.40789  -0.40545  -0.40448  -0.40271
 Alpha  occ. eigenvalues --   -0.40068  -0.39901  -0.39860  -0.39721  -0.39647
 Alpha  occ. eigenvalues --   -0.39327  -0.39199  -0.38974  -0.38894  -0.38839
 Alpha  occ. eigenvalues --   -0.38638  -0.38468  -0.38348  -0.38217  -0.38206
 Alpha  occ. eigenvalues --   -0.37958  -0.37859  -0.37722  -0.37588  -0.37434
 Alpha  occ. eigenvalues --   -0.37276  -0.36858  -0.36750  -0.36662  -0.36471
 Alpha  occ. eigenvalues --   -0.36296  -0.36193  -0.36093  -0.35990  -0.35705
 Alpha  occ. eigenvalues --   -0.35646  -0.35401  -0.35239  -0.34933  -0.34762
 Alpha  occ. eigenvalues --   -0.34378  -0.34141  -0.34063  -0.33797  -0.33660
 Alpha  occ. eigenvalues --   -0.33508  -0.33264  -0.33194  -0.32965  -0.32937
 Alpha  occ. eigenvalues --   -0.32859  -0.32621  -0.32492  -0.32370  -0.32008
 Alpha  occ. eigenvalues --   -0.31712  -0.31539  -0.31313  -0.30409  -0.30005
 Alpha  occ. eigenvalues --   -0.29983  -0.29714  -0.29371  -0.28769  -0.28206
 Alpha  occ. eigenvalues --   -0.28100  -0.28017  -0.27593  -0.27134  -0.27043
 Alpha  occ. eigenvalues --   -0.26918  -0.26246  -0.25519  -0.25253  -0.24691
 Alpha  occ. eigenvalues --   -0.24600  -0.24550  -0.24286  -0.24196  -0.23904
 Alpha  occ. eigenvalues --   -0.23268  -0.23053  -0.22809  -0.22745  -0.22424
 Alpha  occ. eigenvalues --   -0.22329  -0.21852  -0.21212  -0.21064  -0.20653
 Alpha  occ. eigenvalues --   -0.20589  -0.20301  -0.19250  -0.19053  -0.18803
 Alpha  occ. eigenvalues --   -0.17702  -0.16132  -0.13092
 Alpha virt. eigenvalues --   -0.09771  -0.04211  -0.03786  -0.03664  -0.03130
 Alpha virt. eigenvalues --   -0.01675  -0.01268  -0.01164  -0.00342  -0.00046
 Alpha virt. eigenvalues --    0.00137   0.00598   0.01009   0.01439   0.01682

 Mulliken charges:
               1
     1  C    0.064651
     2  C    0.041977
     3  O   -0.285427
     4  H    0.016016
     5  H    0.050599
     6  H   -0.024809
     7  N   -0.115580
     8  C    0.112770
     9  C    0.027562
    10  O   -0.295750
    11  C    0.069858
    12  C    0.152105
    13  O   -0.381781
    14  O   -0.472279
    15  H    0.127191
    16  H    0.039562
    17  H   -0.007712
    18  H    0.003290
    19  N   -0.141612
    20  C    0.145204
    21  C    0.072361
    22  O   -0.302108
    23  C    0.037453
    24  C    0.014272
    25  C   -0.106077
    26  C    0.061088
    27  N    0.081313
    28  H    0.137782
    29  H   -0.007449
    30  H    0.016901
    31  H    0.028015
    32  H    0.012180
    33  H    0.035446
    34  H    0.027839
    35  H    0.018777
    36  H    0.078344
    37  H    0.098659
    38  H    0.180234
    39  H    0.186015
    40  H    0.175537
    41  N   -0.140255
    42  C    0.143701
    43  C    0.028915
    44  O   -0.281124
    45  C    0.106499
    46  C    0.091481
    47  O   -0.481599
    48  O   -0.372134
    49  H    0.153864
    50  H    0.018603
    51  H    0.002897
    52  H    0.007503
    53  N   -0.169923
    54  C    0.263918
    55  C   -0.000546
    56  O   -0.293240
    57  H    0.123364
    58  H    0.009610
    59  H    0.013594
    60  N   -0.148980
    61  C    0.168527
    62  C    0.037055
    63  O   -0.298510
    64  C    0.072848
    65  C    0.045107
    66  N   -0.012161
    67  O   -0.374748
    68  H    0.137704
    69  H    0.032945
    70  H    0.083707
    71  H   -0.008089
    72  H    0.147066
    73  H    0.119531
    74  N   -0.146158
    75  C    0.257695
    76  C    0.033771
    77  O   -0.307997
    78  H    0.150690
    79  H    0.036815
    80  H    0.040026
    81  N   -0.134312
    82  C    0.100996
    83  C    0.147432
    84  O   -0.352836
    85  C    0.165545
    86  C   -0.034227
    87  C   -0.003312
    88  C    0.008665
    89  C   -0.023830
    90  C   -0.033641
    91  C    0.186235
    92  O   -0.204791
    93  H    0.164730
    94  H   -0.018609
    95  H   -0.023849
    96  H   -0.059789
    97  H   -0.046431
    98  H   -0.045116
    99  H   -0.006422
   100  H   -0.047483
   101  H    0.169579
   102  N   -0.106806
   103  C    0.160971
   104  C    0.058420
   105  O   -0.291843
   106  C   -0.091099
   107  C    0.012351
   108  C    0.041039
   109  C    0.014786
   110  H    0.127016
   111  H    0.029137
   112  H   -0.017520
   113  H    0.007103
   114  H   -0.002699
   115  H    0.007605
   116  H    0.023790
   117  H    0.018090
   118  H   -0.010674
   119  H    0.009875
   120  H    0.000878
   121  N   -0.127471
   122  C    0.137934
   123  C    0.079896
   124  O   -0.258810
   125  C    0.202466
   126  O   -0.294838
   127  H    0.172144
   128  H    0.037507
   129  H   -0.018501
   130  H   -0.038428
   131  H    0.194113
   132  N   -0.133833
   133  C    0.097697
   134  C    0.041169
   135  O   -0.243958
   136  C    0.046578
   137  H    0.116154
   138  H    0.025935
   139  H    0.005113
   140  H    0.048216
   141  H    0.032699
   142  N   -0.120990
   143  C    0.092680
   144  C    0.080121
   145  O   -0.267418
   146  C    0.045585
   147  H    0.085927
   148  H    0.020079
   149  H    0.015090
   150  H   -0.005971
   151  H    0.049733
   152  N   -0.154276
   153  C    0.128710
   154  C    0.097064
   155  O   -0.295825
   156  C   -0.042831
   157  C    0.116864
   158  C    0.115458
   159  O   -0.415002
   160  O   -0.416264
   161  H    0.109100
   162  H   -0.017733
   163  H    0.038480
   164  H   -0.025205
   165  H   -0.030471
   166  H    0.004474
   167  N   -0.179073
   168  C    0.136661
   169  H    0.020425
   170  H    0.025314
   171  H    0.006574
   172  H    0.134790
   173  Ca   1.283628
   174  O   -0.254967
   175  H    0.171976
   176  H    0.162173
 Sum of Mulliken charges =  -0.00000

 Dipole moment (field-independent basis, Debye):
    X=             27.0118    Y=             -6.1011    Z=             12.3141  Tot=             30.3067
 Quadrupole moment (field-independent basis, Debye-Ang):
   XX=           -613.8753   YY=           -451.0301   ZZ=           -506.8721
   XY=            117.0782   XZ=             31.5706   YZ=            173.2122

 ESP charges:
               1
     1  C   -0.462320
     2  C    0.890328
     3  O   -0.636465
     4  H    0.107139
     5  H    0.136062
     6  H    0.094117
     7  N   -0.812389
     8  C    0.339624
     9  C    0.465328
    10  O   -0.528637
    11  C   -0.419617
    12  C    0.933277
    13  O   -0.772602
    14  O   -0.704607
    15  H    0.385673
    16  H    0.000964
    17  H    0.102201
    18  H    0.093440
    19  N   -0.269021
    20  C    0.082481
    21  C    0.501708
    22  O   -0.559999
    23  C   -0.322146
    24  C    0.140919
    25  C   -0.225973
    26  C    0.217323
    27  N   -0.523118
    28  H    0.237466
    29  H    0.042026
    30  H    0.112363
    31  H    0.114489
    32  H    0.027606
    33  H   -0.015546
    34  H    0.059369
    35  H    0.076165
    36  H    0.073043
    37  H    0.046840
    38  H    0.357859
    39  H    0.340047
    40  H    0.359128
    41  N   -0.259952
    42  C    0.114906
    43  C    0.301921
    44  O   -0.503173
    45  C   -0.287790
    46  C    0.808953
    47  O   -0.771628
    48  O   -0.713478
    49  H    0.135442
    50  H    0.088475
    51  H    0.111171
    52  H    0.064063
    53  N    0.018684
    54  C   -0.185709
    55  C    0.576508
    56  O   -0.590433
    57  H    0.002269
    58  H    0.092631
    59  H    0.096386
    60  N   -0.137322
    61  C   -0.296708
    62  C    0.447590
    63  O   -0.531531
    64  C    0.122355
    65  C    0.256110
    66  N   -0.706004
    67  O   -0.299987
    68  H    0.054612
    69  H    0.182471
    70  H    0.049380
    71  H    0.029109
    72  H    0.384125
    73  H    0.369513
    74  N   -0.131099
    75  C   -0.460951
    76  C    0.823635
    77  O   -0.619713
    78  H    0.248915
    79  H    0.182754
    80  H    0.178601
    81  N   -0.799434
    82  C    0.617832
    83  C    0.161829
    84  O   -0.451952
    85  C   -0.041173
    86  C   -0.181802
    87  C   -0.000516
    88  C    0.031377
    89  C   -0.398590
    90  C   -0.435769
    91  C    0.517381
    92  O   -0.573275
    93  H    0.539922
    94  H   -0.046880
    95  H    0.007145
    96  H   -0.020261
    97  H    0.094304
    98  H    0.096059
    99  H    0.201472
   100  H    0.157266
   101  H    0.403185
   102  N   -0.401359
   103  C    0.013017
   104  C    0.527440
   105  O   -0.560687
   106  C    0.218638
   107  C    0.208878
   108  C   -0.380240
   109  C   -0.354646
   110  H    0.267465
   111  H    0.103215
   112  H   -0.030090
   113  H   -0.021865
   114  H   -0.003362
   115  H    0.106554
   116  H    0.082270
   117  H    0.044832
   118  H    0.069300
   119  H    0.084268
   120  H    0.069557
   121  N   -0.264382
   122  C   -0.056460
   123  C    0.545156
   124  O   -0.463021
   125  C    0.069865
   126  O   -0.439664
   127  H    0.286747
   128  H    0.097451
   129  H    0.009442
   130  H    0.003501
   131  H    0.390021
   132  N   -0.454178
   133  C    0.176059
   134  C    0.580433
   135  O   -0.538997
   136  C   -0.387155
   137  H    0.278812
   138  H    0.073377
   139  H    0.089590
   140  H    0.135406
   141  H    0.126126
   142  N   -0.595009
   143  C    0.395299
   144  C    0.094227
   145  O   -0.477441
   146  C   -0.397515
   147  H    0.274158
   148  H    0.056354
   149  H    0.097998
   150  H    0.074214
   151  H    0.155035
   152  N    0.268417
   153  C   -0.181809
   154  C    0.458589
   155  O   -0.571572
   156  C   -0.243646
   157  C   -0.215896
   158  C    0.882925
   159  O   -0.809443
   160  O   -0.760854
   161  H    0.008681
   162  H    0.103824
   163  H    0.206832
   164  H   -0.016890
   165  H    0.007709
   166  H    0.085328
   167  N    0.001116
   168  C   -0.216624
   169  H    0.083428
   170  H    0.103957
   171  H    0.057679
   172  H    0.102884
   173  Ca   1.480843
   174  O   -0.866632
   175  H    0.408982
   176  H    0.435774
 Sum of ESP charges =  -0.00000

 Normal termination of Gaussian 16 at Sat Sep 14 23:26:31 2019.
