 Gaussian 16, Revision A.03,
 Gaussian 16:  ES64L-G16RevA.03 25-Dec-2016

 ----------------------------------------------------------------------
 #b3lyp/svp scf=(tight,noincore) Test #IOP(5/87=12) Density=Current Pop
 =(MK,readradii) iop(6/33=2) iop(6/42=6)
 ----------------------------------------------------------------------

 -----------------
 Ng-293_loop3_48.0
 -----------------
 Symbolic Z-matrix:
 Charge =  0 Multiplicity = 1

                         Standard orientation:
 ---------------------------------------------------------------------
 Center     Atomic      Atomic             Coordinates (Angstroms)
 Number     Number       Type             X           Y           Z
 ---------------------------------------------------------------------
      1          6           0       -8.993805   -1.748324    5.715432
      2          6           0       -9.222855   -2.133089    4.265297
      3          8           0      -10.380417   -2.075027    3.867955
      4          1           0       -8.457041   -2.550034    6.222890
      5          1           0       -8.405068   -0.831885    5.760356
      6          1           0       -9.954478   -1.587827    6.205331
      7          7           0       -8.187277   -2.400906    3.460714
      8          6           0       -8.447408   -2.779628    2.085396
      9          6           0       -8.510393   -1.573941    1.170599
     10          8           0       -7.870782   -0.540858    1.372928
     11          6           0       -7.375560   -3.739623    1.572316
     12          6           0       -5.886217   -3.592052    1.863658
     13          8           0       -5.155716   -4.314270    1.164180
     14          8           0       -5.375489   -2.804188    2.692529
     15          1           0       -7.254412   -2.316191    3.837391
     16          1           0       -9.404831   -3.292529    2.003089
     17          1           0       -7.505063   -4.060539    0.540646
     18          1           0       -7.590694   -4.628339    2.174896
     19          7           0       -9.288652   -1.747690    0.099467
     20          6           0       -9.664635   -0.932984   -1.032738
     21          6           0       -8.575125   -0.352549   -1.924851
     22          8           0       -8.767038   -0.218857   -3.134105
     23          6           0      -10.750512    0.078649   -0.653960
     24          6           0      -11.998510   -0.551146   -0.044239
     25          6           0      -12.896320    0.541888    0.526386
     26          6           0      -14.322284    0.010121    0.646597
     27          7           0      -14.578304   -0.982692    1.700389
     28          1           0       -9.632547   -2.694051    0.034366
     29          1           0      -10.150137   -1.593117   -1.751844
     30          1           0      -11.027863    0.539095   -1.604309
     31          1           0      -10.319818    0.865514   -0.036023
     32          1           0      -11.663120   -1.120847    0.826769
     33          1           0      -12.403014   -1.161634   -0.860683
     34          1           0      -12.840028    1.358072   -0.185777
     35          1           0      -12.361417    0.808270    1.438153
     36          1           0      -14.643474   -0.499832   -0.264986
     37          1           0      -15.008932    0.836536    0.843960
     38          1           0      -14.102241   -0.824208    2.579051
     39          1           0      -15.562366   -1.127926    1.868705
     40          1           0      -14.082825   -1.835209    1.489877
     41          7           0       -7.398956   -0.156023   -1.345193
     42          6           0       -6.121325    0.014865   -2.007127
     43          6           0       -5.145113   -1.105175   -1.671538
     44          8           0       -5.157656   -1.688086   -0.583118
     45          6           0       -5.487147    1.323789   -1.543299
     46          6           0       -4.218237    1.792467   -2.220874
     47          8           0       -3.891952    1.553579   -3.402640
     48          8           0       -3.524693    2.655964   -1.652306
     49          1           0       -7.486750   -0.226957   -0.338734
     50          1           0       -6.184392    0.046978   -3.093171
     51          1           0       -5.178996    1.254605   -0.494129
     52          1           0       -6.217341    2.123680   -1.641233
     53          7           0       -4.260092   -1.470701   -2.602950
     54          6           0       -3.137476   -2.355611   -2.360527
     55          6           0       -1.874818   -1.550122   -2.094853
     56          8           0       -1.541993   -0.573790   -2.757199
     57          1           0       -4.220346   -1.003772   -3.491599
     58          1           0       -3.028980   -2.954120   -3.266902
     59          1           0       -3.243227   -3.018427   -1.507538
     60          7           0       -1.078254   -1.944174   -1.090558
     61          6           0        0.207417   -1.327483   -0.845521
     62          6           0        1.302245   -2.378244   -0.919360
     63          8           0        2.432462   -1.978420   -0.675944
     64          6           0        0.154000   -0.673311    0.533683
     65          6           0       -0.606387    0.642071    0.497862
     66          7           0       -1.942347    0.647708    0.410239
     67          8           0        0.011137    1.702362    0.412142
     68          1           0       -1.314249   -2.732966   -0.504713
     69          1           0        0.443983   -0.580201   -1.608218
     70          1           0        1.180692   -0.468141    0.843374
     71          1           0       -0.373955   -1.346647    1.210795
     72          1           0       -2.379295   -0.253868    0.316232
     73          1           0       -2.388437    1.514464    0.148249
     74          7           0        1.131433   -3.676660   -1.204913
     75          6           0        2.128448   -4.713943   -1.351215
     76          6           0        3.267511   -4.675693   -0.343806
     77          8           0        3.020942   -4.843513    0.843772
     78          1           0        0.168471   -3.956351   -1.357808
     79          1           0        2.605456   -4.858610   -2.325604
     80          1           0        1.638186   -5.685196   -1.322736
     81          7           0        4.475688   -4.510237   -0.897820
     82          6           0        5.739414   -4.488056   -0.195535
     83          6           0        5.937358   -3.274576    0.708283
     84          8           0        6.995708   -3.095193    1.308547
     85          6           0        6.040927   -5.793327    0.544369
     86          6           0        6.660799   -6.844309   -0.342929
     87          6           0        5.923779   -7.901936   -0.875119
     88          6           0        7.939920   -6.583326   -0.863157
     89          6           0        6.453473   -8.770574   -1.839999
     90          6           0        8.512876   -7.479657   -1.778423
     91          6           0        7.775169   -8.553479   -2.298898
     92          8           0        8.308553   -9.338837   -3.285009
     93          1           0        4.480816   -4.447377   -1.903216
     94          1           0        6.371139   -4.370858   -1.071998
     95          1           0        5.086780   -6.199999    0.865181
     96          1           0        6.636566   -5.510227    1.414523
     97          1           0        4.886657   -7.971290   -0.587947
     98          1           0        8.514458   -5.742703   -0.503907
     99          1           0        5.860528   -9.515783   -2.341577
    100          1           0        9.492619   -7.336766   -2.206307
    101          1           0        9.197843   -9.046055   -3.493916
    102          7           0        5.002631   -2.319850    0.744110
    103          6           0        5.102732   -1.001552    1.326151
    104          6           0        6.066454   -0.005378    0.677016
    105          8           0        5.659689    1.049677    0.199628
    106          6           0        4.934593   -0.864654    2.837140
    107          6           0        3.729869   -1.650320    3.370497
    108          6           0        4.675491    0.571925    3.288480
    109          6           0        3.897566   -2.060848    4.827289
    110          1           0        4.167424   -2.542732    0.233373
    111          1           0        4.181266   -0.556898    0.964926
    112          1           0        5.742696   -1.379509    3.350749
    113          1           0        3.591557   -2.553823    2.779184
    114          1           0        2.821693   -1.069052    3.198904
    115          1           0        3.765581    0.932614    2.811859
    116          1           0        4.597688    0.644480    4.374381
    117          1           0        5.386829    1.286077    2.883405
    118          1           0        4.833502   -2.528176    5.106804
    119          1           0        3.907368   -1.205994    5.497459
    120          1           0        3.099753   -2.780807    5.048547
    121          7           0        7.344198   -0.364867    0.511067
    122          6           0        8.384709    0.434736   -0.080939
    123          6           0        8.521120    1.859175    0.462170
    124          8           0        9.117956    2.722706   -0.186984
    125          6           0        9.746613   -0.256340    0.016677
    126          8           0        9.643803   -1.572432   -0.477116
    127          1           0        7.573957   -1.266558    0.899866
    128          1           0        8.221245    0.555311   -1.153013
    129          1           0       10.121978   -0.237011    1.038502
    130          1           0       10.397238    0.327988   -0.639713
    131          1           0        9.464406   -1.467367   -1.400846
    132          7           0        7.891940    2.194781    1.589158
    133          6           0        7.790485    3.539834    2.128080
    134          6           0        7.115403    4.577171    1.251953
    135          8           0        7.664515    5.671395    1.089628
    136          6           0        9.105194    3.995485    2.749709
    137          1           0        7.347437    1.458693    2.007835
    138          1           0        7.124255    3.362777    2.970984
    139          1           0        9.059483    5.067290    2.914162
    140          1           0        9.286707    3.448057    3.676627
    141          1           0        9.928947    3.721735    2.078150
    142          7           0        5.980230    4.240868    0.635120
    143          6           0        5.343318    5.082929   -0.355070
    144          6           0        3.927394    5.371482    0.097366
    145          8           0        3.394313    4.771846    1.029707
    146          6           0        5.323984    4.430201   -1.736544
    147          1           0        5.494794    3.419819    0.956883
    148          1           0        5.966165    5.974691   -0.366160
    149          1           0        4.797923    5.106588   -2.420036
    150          1           0        6.323650    4.168165   -2.091375
    151          1           0        4.776156    3.505826   -1.595422
    152          7           0        3.289124    6.361243   -0.535078
    153          6           0        1.987671    6.878261   -0.169823
    154          6           0        1.850558    7.356815    1.268991
    155          8           0        0.839941    7.140211    1.934601
    156          6           0        0.869840    5.925511   -0.545220
    157          6           0        0.756418    5.723030   -2.060949
    158          6           0       -0.464332    5.030858   -2.628457
    159          8           0       -1.373010    5.765841   -3.082665
    160          8           0       -0.706759    3.800810   -2.601766
    161          1           0        3.710689    6.860693   -1.305164
    162          1           0        1.857248    7.758537   -0.804333
    163          1           0       -0.085191    6.335496   -0.205180
    164          1           0        1.037401    4.968918   -0.048174
    165          1           0        1.625703    5.247167   -2.514159
    166          1           0        0.667910    6.738387   -2.455051
    167          7           0        2.840312    8.131554    1.715160
    168          6           0        2.919100    8.487900    3.117197
    169          1           0        3.443474    7.702814    3.662274
    170          1           0        3.461014    9.427390    3.223678
    171          1           0        1.913121    8.599344    3.521263
    172          1           0        3.630309    8.362793    1.125131
    173         20           0       -3.127821    3.930335   -3.913361
    174          8           0       -4.594498    5.520129   -2.416227
    175          1           0       -5.484360    5.412109   -2.071441
    176          1           0       -4.283626    6.338399   -2.035053
 ---------------------------------------------------------------------

 SCF Done:  E(RB3LYP) =  -5333.37395132     A.U. after   29 cycles

 The electronic state is 1-A.
 Alpha  occ. eigenvalues -- -145.43948 -19.19164 -19.15704 -19.12207 -19.09359
 Alpha  occ. eigenvalues --  -19.09265 -19.08996 -19.08451 -19.08321 -19.07497
 Alpha  occ. eigenvalues --  -19.07339 -19.07266 -19.06847 -19.06465 -19.06462
 Alpha  occ. eigenvalues --  -19.06049 -19.05807 -19.05577 -19.04676 -19.03705
 Alpha  occ. eigenvalues --  -19.02636 -19.02277 -18.96589 -18.95752 -15.49863
 Alpha  occ. eigenvalues --  -14.57476 -14.36616 -14.35949 -14.35930 -14.34443
 Alpha  occ. eigenvalues --  -14.33360 -14.33021 -14.32952 -14.32946 -14.32854
 Alpha  occ. eigenvalues --  -14.32571 -14.32356 -14.31869 -14.31018 -14.28517
 Alpha  occ. eigenvalues --  -12.63454 -12.63436 -12.63375 -10.35336 -10.28325
 Alpha  occ. eigenvalues --  -10.28145 -10.27725 -10.27350 -10.27294 -10.26887
 Alpha  occ. eigenvalues --  -10.26330 -10.26146 -10.25806 -10.25400 -10.25338
 Alpha  occ. eigenvalues --  -10.25183 -10.25174 -10.24820 -10.24656 -10.24506
 Alpha  occ. eigenvalues --  -10.24452 -10.24342 -10.23911 -10.23212 -10.22428
 Alpha  occ. eigenvalues --  -10.22251 -10.22154 -10.22107 -10.22064 -10.21704
 Alpha  occ. eigenvalues --  -10.21261 -10.21253 -10.20704 -10.20397 -10.20316
 Alpha  occ. eigenvalues --  -10.20209 -10.19849 -10.19099 -10.18389 -10.18316
 Alpha  occ. eigenvalues --  -10.18269 -10.18171 -10.18008 -10.17506 -10.17451
 Alpha  occ. eigenvalues --  -10.17149 -10.16470 -10.16298 -10.16120 -10.15667
 Alpha  occ. eigenvalues --  -10.15162 -10.14493 -10.14414 -10.14309 -10.13949
 Alpha  occ. eigenvalues --  -10.13564 -10.13355  -1.86599  -1.14052  -1.13684
 Alpha  occ. eigenvalues --   -1.13473  -1.13156  -1.04999  -1.04245  -1.03546
 Alpha  occ. eigenvalues --   -1.02554  -1.02329  -1.01755  -1.01722  -1.01218
 Alpha  occ. eigenvalues --   -1.01156  -1.01045  -1.00580  -1.00244  -1.00207
 Alpha  occ. eigenvalues --   -0.99417  -0.99118  -0.98683  -0.98175  -0.98049
 Alpha  occ. eigenvalues --   -0.95597  -0.93226  -0.93168  -0.92382  -0.91181
 Alpha  occ. eigenvalues --   -0.90639  -0.90407  -0.90111  -0.90098  -0.89785
 Alpha  occ. eigenvalues --   -0.89742  -0.89181  -0.88949  -0.88928  -0.88733
 Alpha  occ. eigenvalues --   -0.88206  -0.87841  -0.86592  -0.84090  -0.83354
 Alpha  occ. eigenvalues --   -0.82883  -0.80636  -0.79287  -0.78668  -0.78307
 Alpha  occ. eigenvalues --   -0.77004  -0.76570  -0.76244  -0.75602  -0.74755
 Alpha  occ. eigenvalues --   -0.74354  -0.73791  -0.73396  -0.72977  -0.72390
 Alpha  occ. eigenvalues --   -0.71842  -0.71018  -0.70826  -0.70627  -0.69925
 Alpha  occ. eigenvalues --   -0.69839  -0.68573  -0.67737  -0.66086  -0.65908
 Alpha  occ. eigenvalues --   -0.65370  -0.64857  -0.64357  -0.63778  -0.63062
 Alpha  occ. eigenvalues --   -0.61715  -0.61620  -0.61557  -0.61224  -0.60774
 Alpha  occ. eigenvalues --   -0.60302  -0.59701  -0.59270  -0.58874  -0.58497
 Alpha  occ. eigenvalues --   -0.58239  -0.58214  -0.57131  -0.57009  -0.56931
 Alpha  occ. eigenvalues --   -0.56143  -0.56115  -0.55960  -0.55616  -0.55001
 Alpha  occ. eigenvalues --   -0.54739  -0.54712  -0.54403  -0.53970  -0.53955
 Alpha  occ. eigenvalues --   -0.53760  -0.53634  -0.53229  -0.52803  -0.52725
 Alpha  occ. eigenvalues --   -0.52551  -0.51674  -0.51487  -0.51029  -0.50832
 Alpha  occ. eigenvalues --   -0.50185  -0.49696  -0.49161  -0.48474  -0.48449
 Alpha  occ. eigenvalues --   -0.48431  -0.48178  -0.47656  -0.47498  -0.47409
 Alpha  occ. eigenvalues --   -0.47176  -0.47001  -0.46491  -0.46316  -0.46163
 Alpha  occ. eigenvalues --   -0.46011  -0.45755  -0.45538  -0.45520  -0.45055
 Alpha  occ. eigenvalues --   -0.44932  -0.44679  -0.44584  -0.44231  -0.44172
 Alpha  occ. eigenvalues --   -0.44044  -0.43851  -0.43507  -0.43464  -0.43403
 Alpha  occ. eigenvalues --   -0.43144  -0.42811  -0.42644  -0.42591  -0.42154
 Alpha  occ. eigenvalues --   -0.42086  -0.41958  -0.41922  -0.41685  -0.41388
 Alpha  occ. eigenvalues --   -0.41306  -0.40991  -0.40787  -0.40607  -0.40515
 Alpha  occ. eigenvalues --   -0.40370  -0.40291  -0.40262  -0.39991  -0.39955
 Alpha  occ. eigenvalues --   -0.39804  -0.39729  -0.39526  -0.39415  -0.39245
 Alpha  occ. eigenvalues --   -0.39074  -0.38855  -0.38639  -0.38628  -0.38429
 Alpha  occ. eigenvalues --   -0.38369  -0.38175  -0.37965  -0.37893  -0.37867
 Alpha  occ. eigenvalues --   -0.37737  -0.37527  -0.37356  -0.37262  -0.37138
 Alpha  occ. eigenvalues --   -0.37096  -0.37073  -0.36880  -0.36743  -0.36725
 Alpha  occ. eigenvalues --   -0.36423  -0.36373  -0.36067  -0.35843  -0.35663
 Alpha  occ. eigenvalues --   -0.35468  -0.35288  -0.35225  -0.35150  -0.35072
 Alpha  occ. eigenvalues --   -0.34988  -0.34903  -0.34715  -0.34609  -0.34445
 Alpha  occ. eigenvalues --   -0.34074  -0.34033  -0.33993  -0.33908  -0.33741
 Alpha  occ. eigenvalues --   -0.33602  -0.33259  -0.33100  -0.33094  -0.33002
 Alpha  occ. eigenvalues --   -0.32420  -0.32021  -0.31895  -0.31870  -0.31807
 Alpha  occ. eigenvalues --   -0.31332  -0.30713  -0.30276  -0.29806  -0.29308
 Alpha  occ. eigenvalues --   -0.28356  -0.28094  -0.27870  -0.27422  -0.27319
 Alpha  occ. eigenvalues --   -0.27152  -0.26748  -0.26428  -0.26224  -0.25621
 Alpha  occ. eigenvalues --   -0.25055  -0.24908  -0.24884  -0.24537  -0.24414
 Alpha  occ. eigenvalues --   -0.24374  -0.24265  -0.24236  -0.24063  -0.23950
 Alpha  occ. eigenvalues --   -0.23714  -0.23371  -0.23280  -0.22679  -0.22612
 Alpha  occ. eigenvalues --   -0.22574  -0.22385  -0.22216  -0.22065  -0.21768
 Alpha  occ. eigenvalues --   -0.21727  -0.21700  -0.21376  -0.21052  -0.20719
 Alpha  occ. eigenvalues --   -0.20506  -0.20391  -0.20120  -0.18398  -0.17613
 Alpha  occ. eigenvalues --   -0.14450  -0.13355  -0.11167
 Alpha virt. eigenvalues --   -0.10018  -0.08588  -0.03687  -0.03645  -0.01040
 Alpha virt. eigenvalues --   -0.00801   0.00114   0.00519   0.00818   0.01246
 Alpha virt. eigenvalues --    0.01403   0.01613   0.02052   0.02257   0.03135

 Mulliken charges:
               1
     1  C    0.066459
     2  C    0.007319
     3  O   -0.353187
     4  H    0.028007
     5  H    0.039761
     6  H    0.000944
     7  N   -0.099524
     8  C    0.149697
     9  C    0.095347
    10  O   -0.282834
    11  C    0.026820
    12  C    0.080585
    13  O   -0.376278
    14  O   -0.364153
    15  H    0.118618
    16  H   -0.042644
    17  H   -0.023032
    18  H   -0.001674
    19  N   -0.121808
    20  C    0.092965
    21  C    0.048453
    22  O   -0.300685
    23  C    0.025329
    24  C   -0.044991
    25  C    0.000307
    26  C    0.063289
    27  N    0.094919
    28  H    0.114916
    29  H   -0.000322
    30  H    0.009333
    31  H    0.017483
    32  H    0.017088
    33  H    0.002288
    34  H    0.045335
    35  H    0.061019
    36  H    0.058202
    37  H    0.057343
    38  H    0.168320
    39  H    0.156020
    40  H    0.161852
    41  N   -0.110751
    42  C    0.178459
    43  C    0.032027
    44  O   -0.238576
    45  C    0.081696
    46  C    0.068489
    47  O   -0.460734
    48  O   -0.390104
    49  H    0.137255
    50  H   -0.011692
    51  H    0.039003
    52  H   -0.005909
    53  N   -0.124695
    54  C    0.236048
    55  C    0.003575
    56  O   -0.253710
    57  H    0.120471
    58  H    0.014926
    59  H    0.039026
    60  N   -0.185507
    61  C    0.106945
    62  C    0.084871
    63  O   -0.297100
    64  C    0.104418
    65  C   -0.020003
    66  N   -0.055387
    67  O   -0.249325
    68  H    0.135394
    69  H    0.074505
    70  H    0.035070
    71  H    0.004845
    72  H    0.116621
    73  H    0.152026
    74  N   -0.099528
    75  C    0.224943
    76  C    0.035568
    77  O   -0.256402
    78  H    0.108879
    79  H   -0.023070
    80  H    0.020233
    81  N   -0.169096
    82  C    0.116921
    83  C    0.087806
    84  O   -0.312477
    85  C    0.173393
    86  C   -0.045703
    87  C   -0.012276
    88  C   -0.020589
    89  C   -0.008976
    90  C   -0.020110
    91  C    0.139039
    92  O   -0.197712
    93  H    0.124529
    94  H    0.004854
    95  H    0.012168
    96  H    0.026634
    97  H   -0.030132
    98  H   -0.006097
    99  H   -0.028122
   100  H   -0.051408
   101  H    0.170967
   102  N   -0.105189
   103  C    0.213718
   104  C   -0.018118
   105  O   -0.271106
   106  C   -0.101996
   107  C   -0.000503
   108  C    0.099144
   109  C    0.037703
   110  H    0.143448
   111  H    0.003778
   112  H   -0.017397
   113  H   -0.001549
   114  H   -0.003819
   115  H    0.028390
   116  H    0.011365
   117  H   -0.033901
   118  H   -0.003524
   119  H   -0.006780
   120  H    0.016574
   121  N   -0.113862
   122  C    0.090467
   123  C    0.045575
   124  O   -0.291209
   125  C    0.240455
   126  O   -0.291608
   127  H    0.133543
   128  H   -0.000787
   129  H    0.007226
   130  H    0.015358
   131  H    0.151330
   132  N   -0.112834
   133  C    0.056378
   134  C    0.079496
   135  O   -0.287399
   136  C    0.090170
   137  H    0.114307
   138  H    0.007416
   139  H    0.022533
   140  H   -0.019076
   141  H    0.024820
   142  N   -0.122340
   143  C    0.073037
   144  C    0.073137
   145  O   -0.256026
   146  C    0.078551
   147  H    0.136128
   148  H    0.011022
   149  H   -0.010072
   150  H    0.033693
   151  H    0.030357
   152  N   -0.132173
   153  C    0.047205
   154  C    0.100089
   155  O   -0.263078
   156  C    0.073505
   157  C    0.100806
   158  C    0.081058
   159  O   -0.478973
   160  O   -0.372266
   161  H    0.112048
   162  H   -0.012422
   163  H    0.005853
   164  H    0.062229
   165  H   -0.010990
   166  H   -0.045174
   167  N   -0.156357
   168  C    0.133151
   169  H    0.029844
   170  H    0.001943
   171  H    0.039120
   172  H    0.105343
   173  Ca   1.377349
   174  O   -0.305449
   175  H    0.183547
   176  H    0.200472
 Sum of Mulliken charges =  -0.00000

 Dipole moment (field-independent basis, Debye):
    X=            -44.9153    Y=              3.3572    Z=            -13.2525  Tot=             46.9498
 Quadrupole moment (field-independent basis, Debye-Ang):
   XX=             67.4601   YY=           -555.3015   ZZ=           -512.0157
   XY=            -75.6066   XZ=            -37.5894   YZ=             -9.1890

 ESP charges:
               1
     1  C   -0.402856
     2  C    0.748380
     3  O   -0.649274
     4  H    0.100326
     5  H    0.117463
     6  H    0.094434
     7  N   -0.642086
     8  C    0.410747
     9  C    0.506796
    10  O   -0.526350
    11  C   -0.492504
    12  C    0.770024
    13  O   -0.674564
    14  O   -0.685251
    15  H    0.335373
    16  H   -0.044510
    17  H    0.103941
    18  H    0.106023
    19  N   -0.432347
    20  C   -0.014879
    21  C    0.533894
    22  O   -0.577539
    23  C   -0.007175
    24  C    0.307979
    25  C   -0.240762
    26  C    0.040608
    27  N   -0.283012
    28  H    0.241150
    29  H    0.085878
    30  H    0.001504
    31  H    0.025773
    32  H   -0.093797
    33  H   -0.065440
    34  H    0.074637
    35  H    0.112707
    36  H    0.085724
    37  H    0.073764
    38  H    0.311959
    39  H    0.279514
    40  H    0.262240
    41  N   -0.535346
    42  C    0.537497
    43  C    0.302519
    44  O   -0.397300
    45  C   -0.684006
    46  C    1.002387
    47  O   -0.859824
    48  O   -0.723369
    49  H    0.335481
    50  H   -0.040555
    51  H    0.163530
    52  H    0.148045
    53  N   -0.404279
    54  C   -0.017242
    55  C    0.584147
    56  O   -0.503690
    57  H    0.305390
    58  H    0.058917
    59  H    0.097024
    60  N   -0.816762
    61  C    0.386633
    62  C    0.482556
    63  O   -0.551603
    64  C   -0.307849
    65  C    0.758636
    66  N   -0.901117
    67  O   -0.557499
    68  H    0.385323
    69  H    0.079362
    70  H    0.052030
    71  H    0.082973
    72  H    0.418827
    73  H    0.416807
    74  N   -0.438664
    75  C    0.065467
    76  C    0.524741
    77  O   -0.514773
    78  H    0.271090
    79  H    0.003610
    80  H    0.082376
    81  N   -0.552435
    82  C    0.084399
    83  C    0.387748
    84  O   -0.511678
    85  C   -0.251370
    86  C    0.057921
    87  C   -0.156345
    88  C   -0.059745
    89  C   -0.258926
    90  C   -0.355629
    91  C    0.388604
    92  O   -0.550446
    93  H    0.340508
    94  H    0.089572
    95  H    0.136878
    96  H    0.115716
    97  H    0.128294
    98  H    0.120538
    99  H    0.159948
   100  H    0.143008
   101  H    0.404934
   102  N   -0.144386
   103  C   -0.507704
   104  C    0.714338
   105  O   -0.525379
   106  C    0.517994
   107  C    0.205429
   108  C   -0.662174
   109  C   -0.411050
   110  H    0.255719
   111  H    0.149589
   112  H   -0.074980
   113  H   -0.007960
   114  H   -0.023475
   115  H    0.157567
   116  H    0.150366
   117  H    0.194620
   118  H    0.101389
   119  H    0.080394
   120  H    0.089363
   121  N   -0.580452
   122  C    0.150788
   123  C    0.299396
   124  O   -0.488653
   125  C    0.299771
   126  O   -0.614236
   127  H    0.346610
   128  H    0.051954
   129  H    0.032124
   130  H   -0.034659
   131  H    0.389904
   132  N   -0.293093
   133  C    0.416816
   134  C    0.352904
   135  O   -0.488832
   136  C   -0.355984
   137  H    0.121816
   138  H   -0.024812
   139  H    0.086481
   140  H    0.063886
   141  H    0.100426
   142  N   -0.446664
   143  C    0.688077
   144  C    0.194279
   145  O   -0.379167
   146  C   -0.314246
   147  H    0.163564
   148  H   -0.120057
   149  H    0.023886
   150  H    0.089653
   151  H    0.097877
   152  N   -0.284295
   153  C   -0.415601
   154  C    0.613015
   155  O   -0.516396
   156  C    0.377083
   157  C    0.204338
   158  C    0.533543
   159  O   -0.786438
   160  O   -0.683031
   161  H    0.252011
   162  H    0.114060
   163  H   -0.040691
   164  H   -0.036462
   165  H   -0.070168
   166  H   -0.075837
   167  N   -0.394964
   168  C   -0.059390
   169  H    0.072647
   170  H    0.050338
   171  H    0.074994
   172  H    0.276485
   173  Ca   1.644331
   174  O   -0.880492
   175  H    0.422183
   176  H    0.468240
 Sum of ESP charges =   0.00000

 Normal termination of Gaussian 16 at Tue Sep 17 10:18:01 2019.
