 Gaussian 16, Revision A.03,
 Gaussian 16:  ES64L-G16RevA.03 25-Dec-2016

 ----------------------------------------------------------------------
 #b3lyp/svp scf=(tight,noincore) Test #IOP(5/87=12) Density=Current Pop
 =(MK,readradii) iop(6/33=2) iop(6/42=6)
 ----------------------------------------------------------------------

 -----------------
 Ng-293_loop3_59.0
 -----------------
 Symbolic Z-matrix:
 Charge =  0 Multiplicity = 1

                         Standard orientation:
 ---------------------------------------------------------------------
 Center     Atomic      Atomic             Coordinates (Angstroms)
 Number     Number       Type             X           Y           Z
 ---------------------------------------------------------------------
      1          6           0        8.520606    1.578865    4.752237
      2          6           0        8.514712    1.695694    3.233252
      3          8           0        7.425191    1.529732    2.674413
      4          1           0        7.624894    2.049911    5.155540
      5          1           0        8.535831    0.526609    5.036267
      6          1           0        9.403690    2.077235    5.151996
      7          7           0        9.609314    2.051784    2.562771
      8          6           0        9.719914    2.513363    1.187230
      9          6           0        9.077363    1.585794    0.171039
     10          8           0        8.114676    1.990736   -0.477694
     11          6           0        9.319881    3.975521    1.140672
     12          6           0       10.456187    4.909829    1.534722
     13          8           0       10.861744    5.034667    2.709516
     14          8           0       10.985339    5.582139    0.618535
     15          1           0       10.489087    2.062374    3.047010
     16          1           0       10.785789    2.544499    0.943222
     17          1           0        8.397312    4.234601    1.653452
     18          1           0        9.218599    4.268387    0.088925
     19          7           0        9.670675    0.395378    0.022406
     20          6           0        9.270638   -0.845226   -0.616164
     21          6           0        8.479825   -0.677740   -1.899700
     22          8           0        9.140686   -0.457260   -2.915402
     23          6           0        8.589248   -1.585810    0.527096
     24          6           0        9.352043   -1.896045    1.816746
     25          6           0        8.618086   -2.939258    2.653653
     26          6           0        9.700116   -3.501500    3.578636
     27          7           0        9.241886   -4.340300    4.694451
     28          1           0       10.456299    0.281972    0.647574
     29          1           0       10.195658   -1.351871   -0.878934
     30          1           0        8.314088   -2.545642    0.081329
     31          1           0        7.656513   -1.112579    0.824850
     32          1           0        9.651472   -0.993245    2.350594
     33          1           0       10.274414   -2.386432    1.528904
     34          1           0        8.295595   -3.752060    1.989158
     35          1           0        7.866570   -2.404304    3.227541
     36          1           0       10.136703   -2.638381    4.076247
     37          1           0       10.432440   -4.034248    2.968323
     38          1           0       10.027385   -4.554591    5.286118
     39          1           0        8.570967   -3.812607    5.239159
     40          1           0        8.718691   -5.181526    4.507355
     41          7           0        7.142107   -0.717121   -1.883581
     42          6           0        6.177145   -0.341407   -2.898021
     43          6           0        4.988021    0.329551   -2.233567
     44          8           0        4.819851    0.098732   -1.033341
     45          6           0        5.709495   -1.588994   -3.649639
     46          6           0        4.722806   -1.153751   -4.714913
     47          8           0        5.272419   -0.768540   -5.763597
     48          8           0        3.481369   -1.260433   -4.553190
     49          1           0        6.662064   -0.805215   -1.004549
     50          1           0        6.701484    0.318679   -3.598273
     51          1           0        5.231574   -2.276348   -2.948042
     52          1           0        6.632289   -1.990085   -4.075053
     53          7           0        4.212492    1.203942   -2.872859
     54          6           0        3.241594    2.052037   -2.208334
     55          6           0        1.851132    1.434042   -2.139079
     56          8           0        1.677841    0.302980   -2.583006
     57          1           0        4.591225    1.548946   -3.746090
     58          1           0        3.126804    3.025209   -2.681893
     59          1           0        3.500699    2.235979   -1.175169
     60          7           0        0.956097    2.064434   -1.368484
     61          6           0       -0.364413    1.553252   -1.101751
     62          6           0       -1.442072    2.615064   -1.268506
     63          8           0       -2.571575    2.182077   -1.473793
     64          6           0       -0.410165    1.073851    0.351102
     65          6           0        0.457554   -0.150501    0.602155
     66          7           0       -0.181174   -1.321459    0.692060
     67          8           0        1.674784   -0.120822    0.756003
     68          1           0        1.258601    2.875952   -0.858258
     69          1           0       -0.541259    0.782354   -1.854175
     70          1           0       -1.410417    0.908743    0.744592
     71          1           0       -0.007533    1.939273    0.877725
     72          1           0       -1.163672   -1.399232    0.458289
     73          1           0        0.345617   -2.178815    0.818283
     74          7           0       -1.203416    3.903342   -1.008727
     75          6           0       -2.177321    4.953637   -1.197903
     76          6           0       -3.395246    4.821077   -0.289671
     77          8           0       -3.216867    4.522936    0.894092
     78          1           0       -0.285166    4.159580   -0.664403
     79          1           0       -2.535762    4.883600   -2.218499
     80          1           0       -1.728769    5.941032   -1.047729
     81          7           0       -4.609659    4.991304   -0.800771
     82          6           0       -5.873617    4.736024   -0.122802
     83          6           0       -6.139056    3.312786    0.334405
     84          8           0       -7.295251    2.994901    0.633339
     85          6           0       -6.170936    5.796270    0.927188
     86          6           0       -5.754309    7.206523    0.565237
     87          6           0       -4.594628    7.770425    1.119452
     88          6           0       -6.644226    7.918185   -0.243271
     89          6           0       -4.287951    9.075658    0.712984
     90          6           0       -6.321663    9.230364   -0.611018
     91          6           0       -5.116242    9.804573   -0.162640
     92          8           0       -4.675616   11.000703   -0.638060
     93          1           0       -4.612660    5.417645   -1.720513
     94          1           0       -6.611848    4.937320   -0.899394
     95          1           0       -5.504154    5.526605    1.742776
     96          1           0       -7.205253    5.816541    1.272988
     97          1           0       -3.937475    7.292492    1.836898
     98          1           0       -7.533062    7.456369   -0.640256
     99          1           0       -3.427878    9.526015    1.201300
    100          1           0       -7.028174    9.823233   -1.160972
    101          1           0       -5.361502   11.482320   -1.106788
    102          7           0       -5.129555    2.442270    0.337268
    103          6           0       -5.080051    1.113664    0.914291
    104          6           0       -5.893012   -0.018494    0.293959
    105          8           0       -5.359124   -1.122719    0.151659
    106          6           0       -5.265779    1.191135    2.427963
    107          6           0       -4.182016    1.961958    3.180219
    108          6           0       -5.254097   -0.211695    3.028654
    109          6           0       -4.649132    2.361300    4.573391
    110          1           0       -4.286650    2.743106   -0.127070
    111          1           0       -4.042519    0.834177    0.778959
    112          1           0       -6.219371    1.693489    2.623166
    113          1           0       -4.030081    2.923240    2.702670
    114          1           0       -3.283532    1.338300    3.171426
    115          1           0       -5.268570   -0.303823    4.115118
    116          1           0       -6.164956   -0.766711    2.840784
    117          1           0       -4.400112   -0.757234    2.644472
    118          1           0       -4.808831    1.579963    5.323997
    119          1           0       -3.844075    2.940415    5.035352
    120          1           0       -5.428860    3.115294    4.538489
    121          7           0       -7.142570    0.240711   -0.099891
    122          6           0       -7.953448   -0.664747   -0.880547
    123          6           0       -8.221177   -2.053032   -0.304710
    124          8           0       -8.575120   -2.935995   -1.083170
    125          6           0       -9.298989   -0.001688   -1.149940
    126          8           0       -9.073267    1.292111   -1.670932
    127          1           0       -7.516820    1.174255   -0.005374
    128          1           0       -7.530234   -0.865645   -1.865194
    129          1           0       -9.917613    0.118764   -0.256634
    130          1           0       -9.737041   -0.606585   -1.938616
    131          1           0       -9.946554    1.674791   -1.841009
    132          7           0       -7.957309   -2.196286    0.994386
    133          6           0       -7.976258   -3.486327    1.667466
    134          6           0       -7.165477   -4.611957    1.051276
    135          8           0       -7.432932   -5.802832    1.232613
    136          6           0       -9.426521   -3.808325    1.994810
    137          1           0       -7.841804   -1.349732    1.531140
    138          1           0       -7.492785   -3.367634    2.630621
    139          1           0      -10.076591   -4.025541    1.140920
    140          1           0       -9.440438   -4.551373    2.802700
    141          1           0       -9.812705   -2.983915    2.594151
    142          7           0       -6.174542   -4.218427    0.256492
    143          6           0       -5.348885   -5.138770   -0.503350
    144          6           0       -4.012279   -5.415568    0.173012
    145          8           0       -3.501550   -4.589695    0.925801
    146          6           0       -5.166614   -4.586513   -1.919397
    147          1           0       -6.090381   -3.256153   -0.017820
    148          1           0       -5.854327   -6.097298   -0.632781
    149          1           0       -4.744333   -3.578543   -1.932584
    150          1           0       -4.489958   -5.326247   -2.350942
    151          1           0       -6.074639   -4.657662   -2.507724
    152          7           0       -3.426374   -6.591167   -0.088871
    153          6           0       -2.097233   -7.047752    0.248343
    154          6           0       -1.744026   -7.243554    1.711322
    155          8           0       -0.576275   -7.364144    2.088040
    156          6           0       -0.955520   -6.308222   -0.445693
    157          6           0       -1.060181   -5.931987   -1.921631
    158          6           0        0.112327   -5.129400   -2.474333
    159          8           0        0.247633   -4.904376   -3.698775
    160          8           0        0.949633   -4.640951   -1.691686
    161          1           0       -3.983579   -7.236235   -0.627769
    162          1           0       -2.110732   -8.069149   -0.141357
    163          1           0       -0.059984   -6.904032   -0.308487
    164          1           0       -0.713203   -5.398864    0.110408
    165          1           0       -1.990446   -5.382044   -2.013119
    166          1           0       -1.199275   -6.923402   -2.350408
    167          7           0       -2.720684   -7.244298    2.615721
    168          6           0       -2.637599   -7.116338    4.053958
    169          1           0       -3.474946   -6.518349    4.414157
    170          1           0       -2.675275   -8.105299    4.510258
    171          1           0       -1.701051   -6.626933    4.322602
    172          1           0       -3.606376   -6.990193    2.200054
    173         20           0        1.717046   -2.733704   -3.268070
    174          8           0        2.714426   -1.939494   -0.991874
    175          1           0        2.890590   -2.584722   -0.300175
    176          1           0        2.912934   -1.094090   -0.592267
 ---------------------------------------------------------------------

 SCF Done:  E(RB3LYP) =  -5333.36475647     A.U. after   34 cycles

 The electronic state is 1-A.
 Alpha  occ. eigenvalues -- -145.45235 -19.17871 -19.15957 -19.14730 -19.14425
 Alpha  occ. eigenvalues --  -19.13511 -19.12844 -19.11916 -19.11806 -19.11304
 Alpha  occ. eigenvalues --  -19.10578 -19.10200 -19.09862 -19.08986 -19.08803
 Alpha  occ. eigenvalues --  -19.08668 -19.08407 -19.06986 -19.06464 -19.06027
 Alpha  occ. eigenvalues --  -19.04934 -19.01408 -18.96774 -18.96448 -15.51108
 Alpha  occ. eigenvalues --  -14.56002 -14.41285 -14.39636 -14.39477 -14.37534
 Alpha  occ. eigenvalues --  -14.37098 -14.36891 -14.36568 -14.36177 -14.36066
 Alpha  occ. eigenvalues --  -14.34696 -14.34003 -14.33906 -14.33375 -14.32836
 Alpha  occ. eigenvalues --  -12.64760 -12.64686 -12.64601 -10.33797 -10.33042
 Alpha  occ. eigenvalues --  -10.31913 -10.31880 -10.31313 -10.30763 -10.29785
 Alpha  occ. eigenvalues --  -10.29138 -10.28791 -10.28204 -10.28192 -10.28117
 Alpha  occ. eigenvalues --  -10.27940 -10.27804 -10.27676 -10.26989 -10.26922
 Alpha  occ. eigenvalues --  -10.26747 -10.26409 -10.26183 -10.25204 -10.25098
 Alpha  occ. eigenvalues --  -10.25079 -10.24496 -10.24423 -10.23964 -10.23915
 Alpha  occ. eigenvalues --  -10.23651 -10.23628 -10.23593 -10.23463 -10.22369
 Alpha  occ. eigenvalues --  -10.22292 -10.21701 -10.21054 -10.20959 -10.20894
 Alpha  occ. eigenvalues --  -10.20772 -10.20626 -10.20406 -10.20379 -10.19920
 Alpha  occ. eigenvalues --  -10.19716 -10.19345 -10.18675 -10.18555 -10.18519
 Alpha  occ. eigenvalues --  -10.18240 -10.18221 -10.18158 -10.17481 -10.15955
 Alpha  occ. eigenvalues --  -10.15553 -10.10548  -1.87658  -1.15502  -1.14977
 Alpha  occ. eigenvalues --   -1.14387  -1.11813  -1.08048  -1.06569  -1.06461
 Alpha  occ. eigenvalues --   -1.06081  -1.04838  -1.04798  -1.04195  -1.04176
 Alpha  occ. eigenvalues --   -1.03509  -1.03121  -1.03080  -1.02901  -1.01661
 Alpha  occ. eigenvalues --   -1.01593  -1.01255  -1.00269  -0.99625  -0.98465
 Alpha  occ. eigenvalues --   -0.97734  -0.97400  -0.96379  -0.95964  -0.94099
 Alpha  occ. eigenvalues --   -0.93926  -0.93668  -0.93029  -0.92729  -0.92340
 Alpha  occ. eigenvalues --   -0.92079  -0.91353  -0.91218  -0.91063  -0.90799
 Alpha  occ. eigenvalues --   -0.89855  -0.89474  -0.88465  -0.87849  -0.86782
 Alpha  occ. eigenvalues --   -0.83235  -0.82827  -0.81364  -0.80884  -0.80684
 Alpha  occ. eigenvalues --   -0.80215  -0.79191  -0.77849  -0.77469  -0.77461
 Alpha  occ. eigenvalues --   -0.76319  -0.76203  -0.76097  -0.75455  -0.74442
 Alpha  occ. eigenvalues --   -0.74179  -0.73883  -0.73829  -0.71718  -0.71252
 Alpha  occ. eigenvalues --   -0.70804  -0.70239  -0.70065  -0.69682  -0.67784
 Alpha  occ. eigenvalues --   -0.67562  -0.67067  -0.65842  -0.65104  -0.64829
 Alpha  occ. eigenvalues --   -0.64619  -0.64285  -0.64038  -0.63903  -0.63823
 Alpha  occ. eigenvalues --   -0.63159  -0.62236  -0.62171  -0.61693  -0.61260
 Alpha  occ. eigenvalues --   -0.60729  -0.60326  -0.60139  -0.60019  -0.59848
 Alpha  occ. eigenvalues --   -0.58949  -0.58871  -0.58238  -0.58088  -0.57487
 Alpha  occ. eigenvalues --   -0.56933  -0.56768  -0.56678  -0.56629  -0.56598
 Alpha  occ. eigenvalues --   -0.56409  -0.55796  -0.55694  -0.55300  -0.55093
 Alpha  occ. eigenvalues --   -0.54878  -0.54101  -0.53989  -0.53511  -0.53036
 Alpha  occ. eigenvalues --   -0.52459  -0.52374  -0.52213  -0.52152  -0.51289
 Alpha  occ. eigenvalues --   -0.50908  -0.50671  -0.50125  -0.49882  -0.49544
 Alpha  occ. eigenvalues --   -0.49432  -0.49180  -0.49095  -0.48974  -0.48813
 Alpha  occ. eigenvalues --   -0.48614  -0.48427  -0.48226  -0.48126  -0.47797
 Alpha  occ. eigenvalues --   -0.47449  -0.47287  -0.47225  -0.46861  -0.46837
 Alpha  occ. eigenvalues --   -0.46550  -0.46085  -0.45987  -0.45822  -0.45787
 Alpha  occ. eigenvalues --   -0.45644  -0.45462  -0.45164  -0.45069  -0.44826
 Alpha  occ. eigenvalues --   -0.44667  -0.44639  -0.44589  -0.44281  -0.44202
 Alpha  occ. eigenvalues --   -0.43922  -0.43786  -0.43662  -0.43623  -0.43610
 Alpha  occ. eigenvalues --   -0.43485  -0.43208  -0.42905  -0.42853  -0.42771
 Alpha  occ. eigenvalues --   -0.42669  -0.42480  -0.42291  -0.42110  -0.42066
 Alpha  occ. eigenvalues --   -0.41921  -0.41864  -0.41688  -0.41543  -0.41383
 Alpha  occ. eigenvalues --   -0.41306  -0.41036  -0.40806  -0.40717  -0.40649
 Alpha  occ. eigenvalues --   -0.40540  -0.40242  -0.40167  -0.39979  -0.39784
 Alpha  occ. eigenvalues --   -0.39566  -0.39367  -0.39288  -0.39199  -0.39158
 Alpha  occ. eigenvalues --   -0.38822  -0.38593  -0.38576  -0.38430  -0.38066
 Alpha  occ. eigenvalues --   -0.37708  -0.37602  -0.37503  -0.37175  -0.37050
 Alpha  occ. eigenvalues --   -0.37032  -0.36843  -0.36698  -0.36279  -0.36184
 Alpha  occ. eigenvalues --   -0.36119  -0.35929  -0.35752  -0.35624  -0.35583
 Alpha  occ. eigenvalues --   -0.35270  -0.35039  -0.34880  -0.34763  -0.34649
 Alpha  occ. eigenvalues --   -0.34475  -0.34403  -0.34299  -0.33842  -0.33357
 Alpha  occ. eigenvalues --   -0.33062  -0.32919  -0.32682  -0.32519  -0.32358
 Alpha  occ. eigenvalues --   -0.32227  -0.31977  -0.31045  -0.30760  -0.29802
 Alpha  occ. eigenvalues --   -0.29504  -0.29370  -0.29158  -0.28778  -0.28556
 Alpha  occ. eigenvalues --   -0.28435  -0.28382  -0.28302  -0.27779  -0.27532
 Alpha  occ. eigenvalues --   -0.27517  -0.27321  -0.27207  -0.27132  -0.26648
 Alpha  occ. eigenvalues --   -0.26554  -0.26237  -0.26079  -0.25766  -0.25445
 Alpha  occ. eigenvalues --   -0.25131  -0.24652  -0.24596  -0.24155  -0.24102
 Alpha  occ. eigenvalues --   -0.23973  -0.23931  -0.23889  -0.23453  -0.22547
 Alpha  occ. eigenvalues --   -0.22178  -0.21345  -0.20985  -0.20566  -0.17505
 Alpha  occ. eigenvalues --   -0.14093  -0.13821  -0.10664
 Alpha virt. eigenvalues --   -0.09625  -0.05081  -0.04129  -0.03640  -0.03568
 Alpha virt. eigenvalues --   -0.02915  -0.02732  -0.02195  -0.01616  -0.01288
 Alpha virt. eigenvalues --   -0.00971  -0.00333  -0.00156   0.00290   0.00542

 Mulliken charges:
               1
     1  C    0.078125
     2  C    0.011743
     3  O   -0.304822
     4  H    0.045839
     5  H   -0.024431
     6  H    0.015304
     7  N   -0.107557
     8  C    0.015057
     9  C    0.105791
    10  O   -0.257808
    11  C    0.143935
    12  C   -0.014026
    13  O   -0.364952
    14  O   -0.344920
    15  H    0.105167
    16  H    0.020194
    17  H   -0.001992
    18  H   -0.010545
    19  N   -0.130702
    20  C    0.164233
    21  C    0.087386
    22  O   -0.266097
    23  C    0.010800
    24  C   -0.030910
    25  C    0.023600
    26  C   -0.002959
    27  N    0.159489
    28  H    0.100416
    29  H   -0.004179
    30  H   -0.018109
    31  H    0.047020
    32  H    0.024548
    33  H   -0.016654
    34  H    0.031723
    35  H    0.041324
    36  H    0.047038
    37  H    0.069775
    38  H    0.117998
    39  H    0.115526
    40  H    0.121913
    41  N   -0.109057
    42  C    0.041423
    43  C    0.103287
    44  O   -0.319346
    45  C    0.168182
    46  C    0.063541
    47  O   -0.338517
    48  O   -0.478667
    49  H    0.115413
    50  H    0.037057
    51  H   -0.075546
    52  H    0.019199
    53  N   -0.072447
    54  C    0.171706
    55  C    0.091986
    56  O   -0.309974
    57  H    0.146375
    58  H    0.027486
    59  H    0.051877
    60  N   -0.142695
    61  C    0.078379
    62  C    0.105243
    63  O   -0.286825
    64  C    0.099828
    65  C    0.040693
    66  N   -0.048059
    67  O   -0.277800
    68  H    0.114373
    69  H    0.025029
    70  H    0.031172
    71  H   -0.000479
    72  H    0.134162
    73  H    0.135937
    74  N   -0.118853
    75  C    0.236268
    76  C    0.007098
    77  O   -0.290449
    78  H    0.117525
    79  H    0.003803
    80  H    0.052196
    81  N   -0.126060
    82  C    0.123994
    83  C    0.105155
    84  O   -0.315053
    85  C    0.154282
    86  C   -0.065298
    87  C    0.007660
    88  C   -0.004978
    89  C   -0.049715
    90  C   -0.050357
    91  C    0.190957
    92  O   -0.193302
    93  H    0.133593
    94  H    0.007601
    95  H   -0.005398
    96  H    0.023729
    97  H   -0.008242
    98  H   -0.026511
    99  H   -0.015810
   100  H   -0.040627
   101  H    0.176484
   102  N   -0.110300
   103  C    0.234434
   104  C    0.052220
   105  O   -0.282747
   106  C   -0.170568
   107  C    0.034988
   108  C    0.120949
   109  C    0.022766
   110  H    0.146855
   111  H   -0.027024
   112  H   -0.001363
   113  H    0.013567
   114  H   -0.018892
   115  H   -0.005662
   116  H   -0.043529
   117  H    0.014654
   118  H    0.010273
   119  H   -0.007150
   120  H    0.008488
   121  N   -0.122732
   122  C    0.093262
   123  C    0.029840
   124  O   -0.268282
   125  C    0.219148
   126  O   -0.312359
   127  H    0.143978
   128  H    0.017655
   129  H   -0.006422
   130  H    0.016161
   131  H    0.170352
   132  N   -0.128643
   133  C    0.068848
   134  C    0.066112
   135  O   -0.281337
   136  C    0.088403
   137  H    0.135228
   138  H    0.018335
   139  H    0.047541
   140  H    0.006698
   141  H   -0.026065
   142  N   -0.103406
   143  C    0.062793
   144  C    0.057700
   145  O   -0.270115
   146  C    0.049257
   147  H    0.139654
   148  H   -0.000221
   149  H    0.033139
   150  H   -0.005327
   151  H    0.041938
   152  N   -0.148357
   153  C    0.137260
   154  C    0.028437
   155  O   -0.285374
   156  C   -0.008529
   157  C    0.081521
   158  C    0.105610
   159  O   -0.422822
   160  O   -0.439644
   161  H    0.122577
   162  H    0.006516
   163  H    0.017253
   164  H   -0.005157
   165  H    0.009862
   166  H   -0.001104
   167  N   -0.121629
   168  C    0.137142
   169  H    0.022943
   170  H    0.023531
   171  H    0.030786
   172  H    0.113879
   173  Ca   1.400508
   174  O   -0.338124
   175  H    0.179976
   176  H    0.203939
 Sum of Mulliken charges =  -0.00000

 Dipole moment (field-independent basis, Debye):
    X=            -15.0399    Y=            -16.3691    Z=             15.6956  Tot=             27.2121
 Quadrupole moment (field-independent basis, Debye-Ang):
   XX=           -645.6159   YY=           -550.7837   ZZ=           -546.0160
   XY=           -383.8955   XZ=            175.0633   YZ=           -120.3578

 ESP charges:
               1
     1  C   -0.570644
     2  C    0.828563
     3  O   -0.614393
     4  H    0.172629
     5  H    0.115748
     6  H    0.121591
     7  N   -0.488232
     8  C    0.031345
     9  C    0.709034
    10  O   -0.521561
    11  C   -0.394458
    12  C    0.802469
    13  O   -0.691060
    14  O   -0.659876
    15  H    0.275976
    16  H    0.067976
    17  H    0.121100
    18  H    0.081191
    19  N   -0.588358
    20  C    0.174714
    21  C    0.447877
    22  O   -0.500633
    23  C   -0.302019
    24  C    0.531237
    25  C   -0.274339
    26  C    0.110233
    27  N   -0.145107
    28  H    0.268526
    29  H    0.057375
    30  H    0.015617
    31  H    0.087797
    32  H   -0.169270
    33  H   -0.083348
    34  H    0.082554
    35  H    0.070929
    36  H    0.028750
    37  H    0.055948
    38  H    0.199295
    39  H    0.218613
    40  H    0.226014
    41  N   -0.328712
    42  C    0.123909
    43  C    0.415805
    44  O   -0.437580
    45  C   -0.474738
    46  C    0.805672
    47  O   -0.637498
    48  O   -0.843177
    49  H    0.218469
    50  H    0.094661
    51  H    0.069110
    52  H    0.160721
    53  N   -0.281330
    54  C   -0.144217
    55  C    0.729562
    56  O   -0.521279
    57  H    0.283218
    58  H    0.087304
    59  H    0.118193
    60  N   -0.794374
    61  C    0.155242
    62  C    0.674107
    63  O   -0.565299
    64  C   -0.408649
    65  C    0.797805
    66  N   -0.813738
    67  O   -0.563106
    68  H    0.357758
    69  H    0.075434
    70  H    0.112153
    71  H    0.122562
    72  H    0.366662
    73  H    0.378654
    74  N   -0.472607
    75  C   -0.191081
    76  C    0.736304
    77  O   -0.585835
    78  H    0.343340
    79  H    0.097074
    80  H    0.137890
    81  N   -0.711589
    82  C    0.316234
    83  C    0.352669
    84  O   -0.541947
    85  C   -0.321564
    86  C    0.136375
    87  C   -0.260875
    88  C   -0.109475
    89  C   -0.194783
    90  C   -0.337326
    91  C    0.361303
    92  O   -0.547651
    93  H    0.348318
    94  H    0.050679
    95  H    0.136428
    96  H    0.104880
    97  H    0.186839
    98  H    0.134141
    99  H    0.145661
   100  H    0.150051
   101  H    0.415697
   102  N   -0.172995
   103  C   -0.347400
   104  C    0.813463
   105  O   -0.653872
   106  C    0.400753
   107  C   -0.044202
   108  C   -0.565552
   109  C   -0.216863
   110  H    0.206867
   111  H    0.145530
   112  H   -0.012705
   113  H    0.038695
   114  H    0.028269
   115  H    0.147205
   116  H    0.113448
   117  H    0.137906
   118  H    0.046139
   119  H    0.058279
   120  H    0.055744
   121  N   -0.710006
   122  C    0.454153
   123  C    0.214246
   124  O   -0.471092
   125  C    0.116085
   126  O   -0.617794
   127  H    0.378600
   128  H    0.019929
   129  H    0.018868
   130  H    0.019098
   131  H    0.411350
   132  N   -0.346197
   133  C    0.290591
   134  C    0.639215
   135  O   -0.583377
   136  C   -0.415516
   137  H    0.227543
   138  H    0.032898
   139  H    0.146666
   140  H    0.088913
   141  H    0.094140
   142  N   -0.843472
   143  C    0.806049
   144  C    0.317880
   145  O   -0.453338
   146  C   -0.350578
   147  H    0.344358
   148  H   -0.090226
   149  H    0.110254
   150  H    0.030537
   151  H    0.096446
   152  N   -0.571817
   153  C   -0.203109
   154  C    0.513966
   155  O   -0.538255
   156  C    0.500767
   157  C   -0.237187
   158  C    0.776875
   159  O   -0.766664
   160  O   -0.776444
   161  H    0.330495
   162  H    0.105190
   163  H   -0.087462
   164  H   -0.064931
   165  H    0.008149
   166  H    0.050066
   167  N   -0.289868
   168  C   -0.083498
   169  H    0.079415
   170  H    0.052592
   171  H    0.087870
   172  H    0.248518
   173  Ca   1.645978
   174  O   -0.915362
   175  H    0.452608
   176  H    0.414929
 Sum of ESP charges =   0.00000

 Normal termination of Gaussian 16 at Tue Sep 17 12:58:40 2019.
