 Gaussian 16, Revision A.03,
 Gaussian 16:  ES64L-G16RevA.03 25-Dec-2016

 ----------------------------------------------------------------------
 #b3lyp/svp scf=(tight,noincore) Test #IOP(5/87=12) Density=Current Pop
 =(MK,readradii) iop(6/33=2) iop(6/42=6)
 ----------------------------------------------------------------------

 -----------------
 Ng-293_loop3_19.0
 -----------------
 Symbolic Z-matrix:
 Charge =  0 Multiplicity = 1

                         Standard orientation:
 ---------------------------------------------------------------------
 Center     Atomic      Atomic             Coordinates (Angstroms)
 Number     Number       Type             X           Y           Z
 ---------------------------------------------------------------------
      1          6           0        8.792447    1.265673    4.755970
      2          6           0        9.112290    1.797617    3.368261
      3          8           0        8.253426    2.130769    2.562989
      4          1           0        9.248043    0.284002    4.882225
      5          1           0        9.187823    1.948174    5.507719
      6          1           0        7.712354    1.182172    4.873575
      7          7           0       10.405219    1.826149    3.015529
      8          6           0       10.910131    2.279313    1.733380
      9          6           0       10.143589    1.665121    0.572699
     10          8           0        9.701420    2.317169   -0.378417
     11          6           0       11.116431    3.784864    1.578269
     12          6           0       11.665791    4.410674    2.855557
     13          8           0       10.908750    5.088494    3.580297
     14          8           0       12.891117    4.398464    3.072185
     15          1           0       11.028057    1.495151    3.736024
     16          1           0       11.917685    1.887475    1.661984
     17          1           0       10.164604    4.274357    1.386117
     18          1           0       11.759041    4.074323    0.756707
     19          7           0       10.110343    0.337287    0.541881
     20          6           0        9.692968   -0.522317   -0.552048
     21          6           0        8.325460   -0.245682   -1.157602
     22          8           0        8.249210    0.120521   -2.323184
     23          6           0        9.850850   -2.012262   -0.235605
     24          6           0       11.267843   -2.496852    0.080628
     25          6           0       12.212375   -2.398897   -1.115726
     26          6           0       13.578045   -2.989193   -0.771350
     27          7           0       14.380219   -3.204520   -1.989813
     28          1           0       10.553411   -0.144543    1.309625
     29          1           0       10.363386   -0.330451   -1.390992
     30          1           0        9.442860   -2.605351   -1.050461
     31          1           0        9.223600   -2.194126    0.645010
     32          1           0       11.169652   -3.551520    0.310698
     33          1           0       11.576737   -1.928444    0.956070
     34          1           0       12.311916   -1.331981   -1.297338
     35          1           0       11.739557   -2.877383   -1.970123
     36          1           0       13.450679   -3.972759   -0.302547
     37          1           0       14.106498   -2.429012    0.001007
     38          1           0       15.336425   -3.264904   -1.691613
     39          1           0       14.151476   -4.071063   -2.449573
     40          1           0       14.329109   -2.441391   -2.645574
     41          7           0        7.222336   -0.360453   -0.402457
     42          6           0        5.917185   -0.480412   -1.023014
     43          6           0        4.832593    0.215853   -0.200958
     44          8           0        5.029752    0.764595    0.876544
     45          6           0        5.704877   -1.989034   -1.124914
     46          6           0        5.100926   -2.334128   -2.477819
     47          8           0        3.857062   -2.418908   -2.467183
     48          8           0        5.865156   -2.528142   -3.450913
     49          1           0        7.268812   -0.501010    0.593427
     50          1           0        5.977152   -0.016705   -2.000347
     51          1           0        5.045828   -2.290831   -0.312158
     52          1           0        6.613906   -2.553831   -0.906348
     53          7           0        3.628819    0.202392   -0.762515
     54          6           0        2.438680    0.840108   -0.217825
     55          6           0        1.169854    0.092925   -0.583884
     56          8           0        1.180248   -0.976858   -1.182597
     57          1           0        3.565746   -0.232850   -1.670197
     58          1           0        2.392079    1.853273   -0.619104
     59          1           0        2.394117    0.848999    0.874894
     60          7           0        0.008354    0.612783   -0.177359
     61          6           0       -1.295999    0.087051   -0.526170
     62          6           0       -2.193116    1.148704   -1.145101
     63          8           0       -3.420617    1.074546   -1.213958
     64          6           0       -1.924703   -0.588669    0.685661
     65          6           0       -1.025282   -1.480388    1.527790
     66          7           0       -1.393596   -2.748897    1.755447
     67          8           0        0.031687   -1.125719    2.044344
     68          1           0       -0.007182    1.464200    0.373503
     69          1           0       -1.183575   -0.725403   -1.244347
     70          1           0       -2.842114   -1.136159    0.473974
     71          1           0       -2.214650    0.255418    1.316175
     72          1           0       -2.267063   -3.125861    1.404512
     73          1           0       -0.823063   -3.431408    2.225735
     74          7           0       -1.600220    2.260638   -1.572626
     75          6           0       -2.231963    3.434964   -2.140744
     76          6           0       -3.173352    4.046714   -1.115586
     77          8           0       -2.816965    4.223580    0.049406
     78          1           0       -0.622336    2.352533   -1.323833
     79          1           0       -2.804665    3.054422   -2.979970
     80          1           0       -1.442158    4.120077   -2.451432
     81          7           0       -4.415860    4.271575   -1.552633
     82          6           0       -5.574579    4.534492   -0.734558
     83          6           0       -6.018655    3.486558    0.279360
     84          8           0       -7.224198    3.389036    0.486133
     85          6           0       -5.562827    5.875467   -0.000700
     86          6           0       -5.203933    7.072493   -0.837374
     87          6           0       -3.840275    7.351069   -1.013822
     88          6           0       -6.205899    7.842631   -1.431303
     89          6           0       -3.531675    8.433534   -1.857288
     90          6           0       -5.896515    8.896854   -2.304800
     91          6           0       -4.532613    9.194816   -2.486154
     92          8           0       -4.221342   10.213657   -3.336315
     93          1           0       -4.564637    4.047298   -2.527756
     94          1           0       -6.329977    4.593145   -1.518735
     95          1           0       -4.932567    5.844652    0.887232
     96          1           0       -6.584113    5.996313    0.385139
     97          1           0       -3.047170    6.800311   -0.541751
     98          1           0       -7.230489    7.533491   -1.277202
     99          1           0       -2.545870    8.804758   -2.094101
    100          1           0       -6.752949    9.315251   -2.813883
    101          1           0       -4.982716   10.693868   -3.677939
    102          7           0       -5.163168    2.627324    0.840037
    103          6           0       -5.329157    1.426122    1.629063
    104          6           0       -6.387953    0.474643    1.077664
    105          8           0       -5.987996   -0.594117    0.624690
    106          6           0       -5.400104    1.809208    3.098454
    107          6           0       -4.249047    2.708175    3.528484
    108          6           0       -5.311644    0.504383    3.898334
    109          6           0       -4.768958    3.639341    4.613898
    110          1           0       -4.227387    2.728853    0.472604
    111          1           0       -4.437236    0.813050    1.492978
    112          1           0       -6.358191    2.241487    3.372872
    113          1           0       -3.816962    3.351922    2.751186
    114          1           0       -3.373726    2.138965    3.850221
    115          1           0       -5.963510   -0.269783    3.497164
    116          1           0       -4.295612    0.134968    3.915962
    117          1           0       -5.512955    0.621352    4.961909
    118          1           0       -3.916709    4.171705    5.047903
    119          1           0       -5.594473    4.284337    4.308767
    120          1           0       -5.157630    3.024983    5.427960
    121          7           0       -7.696918    0.753983    1.097143
    122          6           0       -8.588887    0.045878    0.211322
    123          6           0       -8.959205   -1.385709    0.568986
    124          8           0       -9.592683   -2.066313   -0.236050
    125          6           0       -9.824495    0.895435   -0.080442
    126          8           0       -9.771079    1.498081   -1.365107
    127          1           0       -7.931213    1.694011    1.375807
    128          1           0       -8.082023   -0.000276   -0.761025
    129          1           0       -9.966684    1.650385    0.694369
    130          1           0      -10.706742    0.265670   -0.004042
    131          1           0      -10.499353    2.102493   -1.499659
    132          7           0       -8.615054   -1.895057    1.752973
    133          6           0       -8.582361   -3.270761    2.188481
    134          6           0       -7.886081   -4.140016    1.152677
    135          8           0       -8.050449   -5.354969    1.072215
    136          6           0       -9.990575   -3.768331    2.516442
    137          1           0       -8.217555   -1.204320    2.382478
    138          1           0       -8.079373   -3.257745    3.161741
    139          1           0       -9.982389   -4.784713    2.903094
    140          1           0      -10.509490   -3.008011    3.089888
    141          1           0      -10.618407   -3.820527    1.626722
    142          7           0       -6.899236   -3.574636    0.460231
    143          6           0       -6.056035   -4.323999   -0.461380
    144          6           0       -4.673020   -4.657867    0.081852
    145          8           0       -4.126341   -3.947923    0.916970
    146          6           0       -5.716668   -3.543643   -1.722560
    147          1           0       -6.672734   -2.593164    0.558762
    148          1           0       -6.627785   -5.201270   -0.776813
    149          1           0       -6.715924   -3.389184   -2.140328
    150          1           0       -5.304118   -2.563401   -1.538094
    151          1           0       -4.988513   -4.028611   -2.379672
    152          7           0       -4.047647   -5.735209   -0.393799
    153          6           0       -2.697931   -6.204685   -0.143485
    154          6           0       -2.313283   -6.377768    1.311399
    155          8           0       -1.227773   -6.062531    1.795852
    156          6           0       -1.634385   -5.453798   -0.955113
    157          6           0       -1.901466   -5.086884   -2.412729
    158          6           0       -0.814571   -4.244752   -3.066467
    159          8           0       -0.911563   -3.005084   -3.145942
    160          8           0        0.238693   -4.773780   -3.473854
    161          1           0       -4.575287   -6.329898   -1.017130
    162          1           0       -2.593628   -7.213493   -0.537349
    163          1           0       -0.805077   -6.155314   -0.873122
    164          1           0       -1.295199   -4.592366   -0.387762
    165          1           0       -2.851822   -4.575451   -2.558876
    166          1           0       -1.838692   -6.066080   -2.895466
    167          7           0       -3.294738   -6.799777    2.122234
    168          6           0       -3.302839   -6.774510    3.566809
    169          1           0       -2.967075   -7.738671    3.947863
    170          1           0       -2.633095   -5.990965    3.920330
    171          1           0       -4.314200   -6.575974    3.921800
    172          1           0       -4.110514   -7.112755    1.619387
    173         20           0        1.649602   -2.620615   -3.537245
    174          8           0        0.753713   -0.282330   -4.084700
    175          1           0       -0.166969   -0.086374   -4.253060
    176          1           0        1.193478    0.566094   -4.175159
 ---------------------------------------------------------------------

 SCF Done:  E(RB3LYP) =  -5333.37990514     A.U. after   35 cycles

 The electronic state is 1-A.
 Alpha  occ. eigenvalues -- -145.44017 -19.22802 -19.16789 -19.13418 -19.13161
 Alpha  occ. eigenvalues --  -19.13105 -19.12799 -19.11501 -19.11051 -19.10872
 Alpha  occ. eigenvalues --  -19.09569 -19.09295 -19.08656 -19.08510 -19.08405
 Alpha  occ. eigenvalues --  -19.07624 -19.07415 -19.07224 -19.06149 -19.05269
 Alpha  occ. eigenvalues --  -19.04591 -19.03789 -18.95896 -18.95731 -15.49980
 Alpha  occ. eigenvalues --  -14.55293 -14.39303 -14.39097 -14.38605 -14.37279
 Alpha  occ. eigenvalues --  -14.36281 -14.36169 -14.35813 -14.35213 -14.34324
 Alpha  occ. eigenvalues --  -14.34091 -14.33380 -14.32178 -14.31968 -14.31247
 Alpha  occ. eigenvalues --  -12.63609 -12.63545 -12.63472 -10.33447 -10.31910
 Alpha  occ. eigenvalues --  -10.31661 -10.31621 -10.30091 -10.29614 -10.29348
 Alpha  occ. eigenvalues --  -10.28503 -10.28487 -10.27701 -10.27586 -10.27407
 Alpha  occ. eigenvalues --  -10.27200 -10.26247 -10.26183 -10.26161 -10.26148
 Alpha  occ. eigenvalues --  -10.25882 -10.25240 -10.24888 -10.24501 -10.24437
 Alpha  occ. eigenvalues --  -10.24416 -10.24300 -10.24280 -10.24113 -10.23941
 Alpha  occ. eigenvalues --  -10.23734 -10.23635 -10.23552 -10.22392 -10.22301
 Alpha  occ. eigenvalues --  -10.21375 -10.20669 -10.20379 -10.20254 -10.20083
 Alpha  occ. eigenvalues --  -10.20076 -10.20071 -10.19999 -10.19818 -10.19709
 Alpha  occ. eigenvalues --  -10.18970 -10.18803 -10.18653 -10.18629 -10.18432
 Alpha  occ. eigenvalues --  -10.18403 -10.17939 -10.17279 -10.15776 -10.15408
 Alpha  occ. eigenvalues --  -10.15038 -10.09550  -1.86739  -1.14482  -1.14171
 Alpha  occ. eigenvalues --   -1.13673  -1.11196  -1.08609  -1.07058  -1.06233
 Alpha  occ. eigenvalues --   -1.05511  -1.05446  -1.05103  -1.04414  -1.04099
 Alpha  occ. eigenvalues --   -1.03971  -1.02897  -1.02385  -1.01637  -1.01021
 Alpha  occ. eigenvalues --   -1.00933  -1.00402  -0.99927  -0.99730  -0.98683
 Alpha  occ. eigenvalues --   -0.97544  -0.96438  -0.96000  -0.94481  -0.93979
 Alpha  occ. eigenvalues --   -0.93624  -0.93437  -0.92725  -0.92624  -0.91231
 Alpha  occ. eigenvalues --   -0.90878  -0.90599  -0.90510  -0.90092  -0.90063
 Alpha  occ. eigenvalues --   -0.88902  -0.87661  -0.87192  -0.86754  -0.85931
 Alpha  occ. eigenvalues --   -0.82848  -0.81626  -0.80916  -0.80623  -0.80591
 Alpha  occ. eigenvalues --   -0.80051  -0.78742  -0.77384  -0.77291  -0.76578
 Alpha  occ. eigenvalues --   -0.75971  -0.75384  -0.75135  -0.74915  -0.74210
 Alpha  occ. eigenvalues --   -0.73889  -0.73055  -0.72871  -0.71065  -0.70788
 Alpha  occ. eigenvalues --   -0.70380  -0.70250  -0.69000  -0.68142  -0.67228
 Alpha  occ. eigenvalues --   -0.67053  -0.66744  -0.65658  -0.64588  -0.64298
 Alpha  occ. eigenvalues --   -0.63763  -0.63625  -0.63094  -0.62769  -0.62515
 Alpha  occ. eigenvalues --   -0.62349  -0.61703  -0.61669  -0.61098  -0.60709
 Alpha  occ. eigenvalues --   -0.60234  -0.59636  -0.59586  -0.59398  -0.59330
 Alpha  occ. eigenvalues --   -0.58715  -0.58046  -0.57778  -0.57511  -0.57470
 Alpha  occ. eigenvalues --   -0.57363  -0.57161  -0.56920  -0.56283  -0.56094
 Alpha  occ. eigenvalues --   -0.55890  -0.55313  -0.55213  -0.55075  -0.54044
 Alpha  occ. eigenvalues --   -0.53801  -0.53441  -0.52990  -0.52603  -0.52158
 Alpha  occ. eigenvalues --   -0.51737  -0.51380  -0.50849  -0.50537  -0.50481
 Alpha  occ. eigenvalues --   -0.50384  -0.50173  -0.49975  -0.49672  -0.49583
 Alpha  occ. eigenvalues --   -0.49517  -0.49373  -0.49151  -0.48821  -0.48545
 Alpha  occ. eigenvalues --   -0.48210  -0.48091  -0.47852  -0.47588  -0.47472
 Alpha  occ. eigenvalues --   -0.47103  -0.46793  -0.46727  -0.46259  -0.46005
 Alpha  occ. eigenvalues --   -0.45916  -0.45595  -0.45523  -0.45395  -0.45150
 Alpha  occ. eigenvalues --   -0.45074  -0.44970  -0.44634  -0.44589  -0.44567
 Alpha  occ. eigenvalues --   -0.44481  -0.44050  -0.43803  -0.43732  -0.43669
 Alpha  occ. eigenvalues --   -0.43624  -0.43565  -0.43080  -0.43050  -0.42946
 Alpha  occ. eigenvalues --   -0.42842  -0.42812  -0.42573  -0.42428  -0.42019
 Alpha  occ. eigenvalues --   -0.41933  -0.41870  -0.41842  -0.41622  -0.41345
 Alpha  occ. eigenvalues --   -0.41320  -0.41070  -0.40792  -0.40626  -0.40529
 Alpha  occ. eigenvalues --   -0.40458  -0.40394  -0.40205  -0.40154  -0.39985
 Alpha  occ. eigenvalues --   -0.39846  -0.39595  -0.39464  -0.39376  -0.39291
 Alpha  occ. eigenvalues --   -0.39139  -0.39062  -0.38819  -0.38652  -0.38535
 Alpha  occ. eigenvalues --   -0.38438  -0.38083  -0.37990  -0.37840  -0.37783
 Alpha  occ. eigenvalues --   -0.37770  -0.37615  -0.37520  -0.37220  -0.36875
 Alpha  occ. eigenvalues --   -0.36689  -0.36447  -0.36268  -0.36211  -0.36126
 Alpha  occ. eigenvalues --   -0.36025  -0.35561  -0.35405  -0.35378  -0.35207
 Alpha  occ. eigenvalues --   -0.35102  -0.34904  -0.34669  -0.34648  -0.34467
 Alpha  occ. eigenvalues --   -0.34114  -0.33977  -0.33898  -0.33464  -0.33456
 Alpha  occ. eigenvalues --   -0.33427  -0.32983  -0.32436  -0.31812  -0.31197
 Alpha  occ. eigenvalues --   -0.31066  -0.30865  -0.30413  -0.30223  -0.29333
 Alpha  occ. eigenvalues --   -0.29016  -0.28799  -0.28504  -0.28463  -0.27852
 Alpha  occ. eigenvalues --   -0.27725  -0.27587  -0.27102  -0.26984  -0.26814
 Alpha  occ. eigenvalues --   -0.26493  -0.26469  -0.26306  -0.26121  -0.25663
 Alpha  occ. eigenvalues --   -0.25591  -0.25108  -0.24862  -0.24842  -0.24636
 Alpha  occ. eigenvalues --   -0.24509  -0.24455  -0.24056  -0.23964  -0.23834
 Alpha  occ. eigenvalues --   -0.23570  -0.23211  -0.23117  -0.22866  -0.22434
 Alpha  occ. eigenvalues --   -0.21880  -0.21306  -0.20370  -0.20239  -0.19778
 Alpha  occ. eigenvalues --   -0.13233  -0.13012  -0.09925
 Alpha virt. eigenvalues --   -0.08870  -0.06289  -0.03353  -0.03150  -0.02760
 Alpha virt. eigenvalues --   -0.02295  -0.01571  -0.01382  -0.00944  -0.00596
 Alpha virt. eigenvalues --   -0.00471   0.00073   0.00405   0.00762   0.01023

 Mulliken charges:
               1
     1  C    0.044346
     2  C    0.028934
     3  O   -0.256032
     4  H   -0.005390
     5  H    0.051511
     6  H    0.031274
     7  N   -0.136306
     8  C    0.059976
     9  C    0.090032
    10  O   -0.254976
    11  C    0.167896
    12  C   -0.016999
    13  O   -0.337215
    14  O   -0.360345
    15  H    0.106372
    16  H   -0.026224
    17  H   -0.002227
    18  H   -0.027076
    19  N   -0.099606
    20  C    0.131898
    21  C    0.087084
    22  O   -0.251829
    23  C   -0.001153
    24  C    0.026834
    25  C   -0.046336
    26  C    0.046288
    27  N    0.167408
    28  H    0.082045
    29  H   -0.024452
    30  H    0.025341
    31  H    0.005776
    32  H    0.005851
    33  H    0.004504
    34  H    0.056180
    35  H    0.027157
    36  H    0.038167
    37  H    0.068991
    38  H    0.101520
    39  H    0.109777
    40  H    0.134278
    41  N   -0.134805
    42  C    0.045428
    43  C    0.070501
    44  O   -0.242775
    45  C    0.141189
    46  C    0.085130
    47  O   -0.507714
    48  O   -0.338281
    49  H    0.118842
    50  H    0.039798
    51  H   -0.019250
    52  H   -0.014625
    53  N   -0.139278
    54  C    0.223119
    55  C    0.055642
    56  O   -0.320909
    57  H    0.101344
    58  H    0.014599
    59  H    0.076635
    60  N   -0.132517
    61  C    0.077587
    62  C    0.041223
    63  O   -0.278214
    64  C    0.079068
    65  C    0.010104
    66  N   -0.057133
    67  O   -0.284956
    68  H    0.127592
    69  H    0.055144
    70  H    0.046160
    71  H    0.012193
    72  H    0.125038
    73  H    0.134825
    74  N   -0.136674
    75  C    0.241030
    76  C    0.035184
    77  O   -0.303239
    78  H    0.100862
    79  H    0.002454
    80  H    0.038831
    81  N   -0.106072
    82  C    0.120938
    83  C    0.099692
    84  O   -0.313354
    85  C    0.102741
    86  C   -0.032200
    87  C    0.005754
    88  C   -0.007599
    89  C   -0.014674
    90  C   -0.059279
    91  C    0.179724
    92  O   -0.202662
    93  H    0.128896
    94  H    0.000305
    95  H    0.018964
    96  H    0.006258
    97  H   -0.011236
    98  H   -0.030652
    99  H   -0.023573
   100  H   -0.035462
   101  H    0.178266
   102  N   -0.107334
   103  C    0.181498
   104  C    0.039234
   105  O   -0.269103
   106  C   -0.082125
   107  C    0.018326
   108  C    0.061836
   109  C    0.023651
   110  H    0.153933
   111  H    0.000891
   112  H   -0.005630
   113  H    0.005150
   114  H   -0.003028
   115  H    0.001709
   116  H    0.006646
   117  H    0.001853
   118  H    0.010638
   119  H    0.019335
   120  H   -0.009215
   121  N   -0.124544
   122  C    0.104000
   123  C    0.010973
   124  O   -0.270523
   125  C    0.245806
   126  O   -0.309741
   127  H    0.136791
   128  H    0.046110
   129  H   -0.019057
   130  H    0.000663
   131  H    0.163880
   132  N   -0.132242
   133  C    0.070819
   134  C    0.090037
   135  O   -0.288302
   136  C    0.081330
   137  H    0.119258
   138  H    0.028875
   139  H    0.026367
   140  H   -0.010198
   141  H    0.017515
   142  N   -0.119713
   143  C    0.077177
   144  C    0.074184
   145  O   -0.277558
   146  C    0.036378
   147  H    0.133512
   148  H    0.013586
   149  H    0.034871
   150  H    0.034549
   151  H    0.011951
   152  N   -0.116572
   153  C    0.096131
   154  C    0.044987
   155  O   -0.274261
   156  C   -0.007015
   157  C    0.154531
   158  C    0.072119
   159  O   -0.431261
   160  O   -0.446445
   161  H    0.121571
   162  H    0.012781
   163  H    0.014522
   164  H    0.000575
   165  H   -0.001906
   166  H   -0.012404
   167  N   -0.140054
   168  C    0.140182
   169  H    0.022912
   170  H    0.040916
   171  H    0.024088
   172  H    0.106090
   173  Ca   1.395939
   174  O   -0.312494
   175  H    0.200949
   176  H    0.191902
 Sum of Mulliken charges =  -0.00000

 Dipole moment (field-independent basis, Debye):
    X=             -2.4697    Y=            -20.2401    Z=            -17.7458  Tot=             27.0310
 Quadrupole moment (field-independent basis, Debye-Ang):
   XX=           -372.3208   YY=           -578.8951   ZZ=           -536.5004
   XY=           -409.3823   XZ=           -162.4468   YZ=            -71.3011

 ESP charges:
               1
     1  C   -0.452757
     2  C    0.748377
     3  O   -0.529681
     4  H    0.081792
     5  H    0.139630
     6  H    0.128626
     7  N   -0.721360
     8  C    0.271962
     9  C    0.429243
    10  O   -0.465315
    11  C   -0.280082
    12  C    0.806070
    13  O   -0.661042
    14  O   -0.699797
    15  H    0.337494
    16  H    0.001450
    17  H    0.083089
    18  H    0.047388
    19  N   -0.370559
    20  C    0.039551
    21  C    0.461536
    22  O   -0.511741
    23  C   -0.146494
    24  C   -0.076177
    25  C   -0.090628
    26  C    0.150712
    27  N   -0.306110
    28  H    0.241394
    29  H    0.038825
    30  H    0.100815
    31  H    0.063193
    32  H    0.043439
    33  H    0.039949
    34  H    0.062222
    35  H    0.067577
    36  H    0.031293
    37  H    0.060293
    38  H    0.234707
    39  H    0.249454
    40  H    0.262121
    41  N   -0.212993
    42  C   -0.209398
    43  C    0.741516
    44  O   -0.561249
    45  C    0.089985
    46  C    0.717318
    47  O   -0.871651
    48  O   -0.651081
    49  H    0.207856
    50  H    0.117777
    51  H   -0.012434
    52  H   -0.044696
    53  N   -0.498164
    54  C   -0.140186
    55  C    0.823175
    56  O   -0.519763
    57  H    0.267562
    58  H    0.081869
    59  H    0.159762
    60  N   -1.045429
    61  C    0.278548
    62  C    0.479100
    63  O   -0.531559
    64  C   -0.024735
    65  C    0.652456
    66  N   -0.856413
    67  O   -0.534206
    68  H    0.423119
    69  H    0.038039
    70  H    0.011602
    71  H    0.024632
    72  H    0.434053
    73  H    0.398957
    74  N   -0.280342
    75  C   -0.392627
    76  C    0.684121
    77  O   -0.541302
    78  H    0.264246
    79  H    0.139750
    80  H    0.182337
    81  N   -0.565042
    82  C    0.031885
    83  C    0.539398
    84  O   -0.557345
    85  C   -0.341041
    86  C    0.139375
    87  C   -0.180315
    88  C   -0.087878
    89  C   -0.294702
    90  C   -0.393651
    91  C    0.447624
    92  O   -0.579143
    93  H    0.346788
    94  H    0.122264
    95  H    0.137917
    96  H    0.103259
    97  H    0.175610
    98  H    0.119083
    99  H    0.165103
   100  H    0.168805
   101  H    0.421287
   102  N   -0.270692
   103  C   -0.540795
   104  C    1.012911
   105  O   -0.642391
   106  C    0.058818
   107  C    0.367726
   108  C   -0.290535
   109  C   -0.379974
   110  H    0.337463
   111  H    0.175772
   112  H    0.048218
   113  H   -0.073751
   114  H   -0.034040
   115  H    0.065911
   116  H    0.071849
   117  H    0.078738
   118  H    0.079920
   119  H    0.093460
   120  H    0.067389
   121  N   -0.700720
   122  C    0.085629
   123  C    0.397256
   124  O   -0.491489
   125  C    0.187335
   126  O   -0.630706
   127  H    0.371359
   128  H    0.137169
   129  H    0.017333
   130  H    0.021327
   131  H    0.414054
   132  N   -0.264562
   133  C    0.098470
   134  C    0.505646
   135  O   -0.539003
   136  C   -0.249599
   137  H    0.204110
   138  H    0.074861
   139  H    0.072356
   140  H    0.051765
   141  H    0.101824
   142  N   -0.477181
   143  C    0.499851
   144  C    0.470913
   145  O   -0.557224
   146  C   -0.267726
   147  H    0.193445
   148  H   -0.019747
   149  H    0.053814
   150  H    0.117321
   151  H    0.023896
   152  N   -0.706721
   153  C    0.263117
   154  C    0.320056
   155  O   -0.500666
   156  C    0.424966
   157  C   -0.290028
   158  C    0.741947
   159  O   -0.731467
   160  O   -0.753927
   161  H    0.305532
   162  H    0.002217
   163  H   -0.075214
   164  H   -0.130839
   165  H    0.090917
   166  H    0.037212
   167  N   -0.211382
   168  C   -0.110246
   169  H    0.059958
   170  H    0.102625
   171  H    0.079855
   172  H    0.218659
   173  Ca   1.603794
   174  O   -0.857231
   175  H    0.434370
   176  H    0.435432
 Sum of ESP charges =  -0.00000

 Normal termination of Gaussian 16 at Tue Sep 17 00:11:15 2019.
