 Gaussian 16, Revision A.03,
 Gaussian 16:  ES64L-G16RevA.03 25-Dec-2016

 ----------------------------------------------------------------------
 #b3lyp/svp scf=(tight,noincore) Test #IOP(5/87=12) Density=Current Pop
 =(MK,readradii) iop(6/33=2) iop(6/42=6)
 ----------------------------------------------------------------------

 -----------------
 Ng-293_loop3_26.0
 -----------------
 Symbolic Z-matrix:
 Charge =  0 Multiplicity = 1

                         Standard orientation:
 ---------------------------------------------------------------------
 Center     Atomic      Atomic             Coordinates (Angstroms)
 Number     Number       Type             X           Y           Z
 ---------------------------------------------------------------------
      1          6           0        8.713273   -0.959265   -6.978499
      2          6           0        9.253202   -0.819367   -5.556175
      3          8           0       10.437166   -0.554384   -5.385840
      4          1           0        7.900362   -1.685531   -6.988513
      5          1           0        8.341467    0.005820   -7.323213
      6          1           0        9.510639   -1.299074   -7.638900
      7          7           0        8.515913   -1.177720   -4.503660
      8          6           0        8.914604   -1.046922   -3.116960
      9          6           0        7.672561   -0.983554   -2.231402
     10          8           0        6.572239   -1.122003   -2.757256
     11          6           0        9.660548   -2.325364   -2.744193
     12          6           0       10.319168   -2.336822   -1.374819
     13          8           0       10.675541   -1.284383   -0.802481
     14          8           0       10.468225   -3.403031   -0.744596
     15          1           0        7.520431   -1.328385   -4.591497
     16          1           0        9.420049   -0.103552   -2.944974
     17          1           0       10.460158   -2.519898   -3.459022
     18          1           0        9.116626   -3.259098   -2.822230
     19          7           0        7.841938   -0.463029   -1.014782
     20          6           0        6.933667   -0.071698    0.044088
     21          6           0        5.975277   -1.164694    0.521526
     22          8           0        6.069848   -2.291543    0.041454
     23          6           0        6.149414    1.203309   -0.246092
     24          6           0        6.972258    2.441967   -0.593878
     25          6           0        7.721822    3.077258    0.569720
     26          6           0        8.554466    4.248528    0.079586
     27          7           0        9.616246    3.810479   -0.826469
     28          1           0        8.831199   -0.324097   -0.843138
     29          1           0        7.635035    0.110108    0.866177
     30          1           0        5.410624    1.515960    0.492175
     31          1           0        5.488349    0.971903   -1.072134
     32          1           0        6.168409    3.137332   -0.868822
     33          1           0        7.695106    2.149817   -1.347163
     34          1           0        8.290567    2.317705    1.099823
     35          1           0        6.880158    3.452906    1.163597
     36          1           0        9.062014    4.653355    0.959080
     37          1           0        7.916015    4.983548   -0.423330
     38          1           0        9.234067    3.526805   -1.720263
     39          1           0       10.319933    4.478708   -1.100686
     40          1           0       10.146257    3.051551   -0.420862
     41          7           0        5.201189   -0.837346    1.550376
     42          6           0        4.370994   -1.800874    2.241599
     43          6           0        3.116574   -2.094535    1.434385
     44          8           0        2.046462   -1.498330    1.586374
     45          6           0        4.062552   -1.418899    3.689722
     46          6           0        3.963300    0.062474    3.999529
     47          8           0        4.708869    0.654243    4.808317
     48          8           0        3.122696    0.774899    3.414009
     49          1           0        5.303566    0.095235    1.922413
     50          1           0        4.870997   -2.766395    2.277180
     51          1           0        4.701369   -2.007582    4.358725
     52          1           0        3.092868   -1.900208    3.788992
     53          7           0        3.339109   -2.893325    0.394043
     54          6           0        2.389263   -3.395808   -0.582074
     55          6           0        1.798248   -4.782136   -0.369006
     56          8           0        1.848199   -5.634817   -1.253110
     57          1           0        4.267101   -3.259991    0.213525
     58          1           0        2.950442   -3.531275   -1.509180
     59          1           0        1.618690   -2.650646   -0.737799
     60          7           0        1.187029   -4.899139    0.812570
     61          6           0        0.253072   -5.929682    1.236132
     62          6           0       -1.069299   -5.331442    1.725257
     63          8           0       -1.011830   -4.214602    2.236693
     64          6           0        0.988191   -6.808902    2.231960
     65          6           0        2.096477   -7.619122    1.587488
     66          7           0        3.317277   -7.094934    1.486611
     67          8           0        1.835642   -8.712837    1.090443
     68          1           0        1.407626   -4.125283    1.421737
     69          1           0       -0.099303   -6.534825    0.404546
     70          1           0        0.330033   -7.506041    2.751312
     71          1           0        1.319129   -6.178612    3.060702
     72          1           0        3.432298   -6.198538    1.935660
     73          1           0        4.090667   -7.577600    1.058824
     74          7           0       -2.235971   -5.940554    1.546208
     75          6           0       -3.540663   -5.424861    1.910540
     76          6           0       -4.009307   -4.356540    0.929946
     77          8           0       -3.332604   -3.911120    0.013990
     78          1           0       -2.318531   -6.825615    1.058201
     79          1           0       -3.523619   -4.949114    2.894803
     80          1           0       -4.326844   -6.172182    1.931302
     81          7           0       -5.232836   -3.910596    1.226104
     82          6           0       -6.251899   -3.324285    0.378194
     83          6           0       -5.927425   -2.033896   -0.362085
     84          8           0       -6.621842   -1.599875   -1.276422
     85          6           0       -6.858746   -4.425306   -0.493980
     86          6           0       -8.264085   -4.373762   -1.049288
     87          6           0       -8.526502   -4.945259   -2.296657
     88          6           0       -9.264091   -3.964685   -0.161794
     89          6           0       -9.844685   -4.880618   -2.760136
     90          6           0      -10.587469   -3.967315   -0.618372
     91          6           0      -10.871008   -4.343633   -1.949759
     92          8           0      -12.140894   -4.644546   -2.317645
     93          1           0       -5.525495   -4.158113    2.157708
     94          1           0       -7.006444   -2.981315    1.081353
     95          1           0       -6.799678   -5.386223    0.022595
     96          1           0       -6.189354   -4.373398   -1.353410
     97          1           0       -7.708862   -5.317951   -2.894290
     98          1           0       -9.073043   -3.759480    0.881034
     99          1           0      -10.121618   -5.387394   -3.677352
    100          1           0      -11.434400   -3.750489    0.017313
    101          1           0      -12.789529   -4.138841   -1.817710
    102          7           0       -4.830727   -1.423979    0.105413
    103          6           0       -4.399144   -0.074584   -0.181935
    104          6           0       -5.299579    1.097707    0.163535
    105          8           0       -4.837983    2.123217    0.654002
    106          6           0       -3.900050    0.052663   -1.623363
    107          6           0       -2.955197   -1.022725   -2.150043
    108          6           0       -3.303542    1.434345   -1.848605
    109          6           0       -1.618282   -1.145328   -1.426008
    110          1           0       -4.416012   -1.844193    0.929326
    111          1           0       -3.546215    0.032609    0.490614
    112          1           0       -4.764081    0.036497   -2.286379
    113          1           0       -2.717418   -0.786786   -3.192345
    114          1           0       -3.471462   -1.969873   -2.309042
    115          1           0       -4.021698    2.236752   -1.682189
    116          1           0       -2.483319    1.670783   -1.158003
    117          1           0       -2.976849    1.425161   -2.880442
    118          1           0       -1.897342   -1.576119   -0.459393
    119          1           0       -1.046182   -1.912117   -1.934768
    120          1           0       -1.114680   -0.184882   -1.335293
    121          7           0       -6.600238    1.023402   -0.148659
    122          6           0       -7.608145    1.955229    0.322216
    123          6           0       -7.451698    3.357056   -0.240725
    124          8           0       -7.788632    4.313930    0.457679
    125          6           0       -8.998743    1.374810    0.080446
    126          8           0       -9.212725    1.058983   -1.275491
    127          1           0       -6.827857    0.129882   -0.567481
    128          1           0       -7.422478    2.083346    1.392036
    129          1           0       -9.777109    2.064858    0.410417
    130          1           0       -9.199508    0.451528    0.637889
    131          1           0       -9.811835    0.312292   -1.252685
    132          7           0       -6.846273    3.550624   -1.404852
    133          6           0       -6.285939    4.782642   -1.942492
    134          6           0       -5.228099    5.509265   -1.134598
    135          8           0       -4.913166    6.656992   -1.446908
    136          6           0       -7.465644    5.654037   -2.363880
    137          1           0       -6.621234    2.716821   -1.929668
    138          1           0       -5.796491    4.410841   -2.836419
    139          1           0       -8.066661    5.973176   -1.516632
    140          1           0       -7.138263    6.606171   -2.776630
    141          1           0       -8.089754    5.069624   -3.038526
    142          7           0       -4.633053    4.875212   -0.114844
    143          6           0       -3.544536    5.479849    0.613816
    144          6           0       -2.142505    5.390507    0.015711
    145          8           0       -1.858758    4.440937   -0.709483
    146          6           0       -3.521256    4.998730    2.056412
    147          1           0       -4.956409    3.955141    0.164281
    148          1           0       -3.813877    6.538788    0.720600
    149          1           0       -3.632208    3.925991    2.267883
    150          1           0       -2.594841    5.303099    2.547243
    151          1           0       -4.417949    5.398759    2.542228
    152          7           0       -1.305200    6.368303    0.381818
    153          6           0        0.085066    6.571863    0.036240
    154          6           0        0.432851    6.506438   -1.441009
    155          8           0        1.576204    6.247990   -1.795621
    156          6           0        1.009887    5.634536    0.811304
    157          6           0        0.829839    5.810031    2.314030
    158          6           0        1.844325    5.035503    3.149567
    159          8           0        1.777068    5.091235    4.395709
    160          8           0        2.540107    4.151924    2.609773
    161          1           0       -1.761387    7.170787    0.789631
    162          1           0        0.388500    7.583383    0.329252
    163          1           0        2.003585    5.963297    0.518249
    164          1           0        0.795027    4.623097    0.484310
    165          1           0       -0.164382    5.497596    2.649901
    166          1           0        0.940726    6.848455    2.608446
    167          7           0       -0.473519    6.985251   -2.295603
    168          6           0       -0.289303    6.932565   -3.728324
    169          1           0        0.770251    7.036699   -3.961789
    170          1           0       -0.650795    5.976835   -4.106610
    171          1           0       -0.846337    7.744085   -4.196587
    172          1           0       -1.439312    7.090209   -1.999414
    173         20           0        2.916431    2.736820    5.052735
    174          8           0        2.258804    0.870044    6.618293
    175          1           0        2.753681    0.331803    7.235945
    176          1           0        1.588389    0.286734    6.267305
 ---------------------------------------------------------------------

 SCF Done:  E(RB3LYP) =  -5333.37220554     A.U. after   24 cycles

 The electronic state is 1-A.
 Alpha  occ. eigenvalues -- -145.46702 -19.23933 -19.17150 -19.14427 -19.12705
 Alpha  occ. eigenvalues --  -19.12685 -19.11294 -19.10427 -19.09465 -19.08988
 Alpha  occ. eigenvalues --  -19.08720 -19.08659 -19.08481 -19.08387 -19.08093
 Alpha  occ. eigenvalues --  -19.08033 -19.07917 -19.07911 -19.07706 -19.06964
 Alpha  occ. eigenvalues --  -19.06605 -19.04064 -18.96895 -18.95184 -15.52664
 Alpha  occ. eigenvalues --  -14.55758 -14.38876 -14.38310 -14.37236 -14.36153
 Alpha  occ. eigenvalues --  -14.35855 -14.35697 -14.35015 -14.34708 -14.34480
 Alpha  occ. eigenvalues --  -14.34118 -14.33871 -14.33106 -14.32305 -14.30138
 Alpha  occ. eigenvalues --  -12.66297 -12.66228 -12.66149 -10.33594 -10.31211
 Alpha  occ. eigenvalues --  -10.31048 -10.29707 -10.29486 -10.28085 -10.27928
 Alpha  occ. eigenvalues --  -10.27824 -10.27577 -10.27504 -10.27009 -10.26945
 Alpha  occ. eigenvalues --  -10.26874 -10.26835 -10.26667 -10.26617 -10.26273
 Alpha  occ. eigenvalues --  -10.26014 -10.25883 -10.25385 -10.25083 -10.24710
 Alpha  occ. eigenvalues --  -10.24499 -10.23979 -10.23826 -10.23764 -10.23732
 Alpha  occ. eigenvalues --  -10.23050 -10.22868 -10.22607 -10.22177 -10.21039
 Alpha  occ. eigenvalues --  -10.20796 -10.20750 -10.20594 -10.20593 -10.20531
 Alpha  occ. eigenvalues --  -10.20460 -10.20301 -10.20301 -10.19889 -10.19715
 Alpha  occ. eigenvalues --  -10.18702 -10.18088 -10.17963 -10.17462 -10.16282
 Alpha  occ. eigenvalues --  -10.16269 -10.16208 -10.16097 -10.15933 -10.15419
 Alpha  occ. eigenvalues --  -10.15204 -10.11056  -1.89360  -1.17179  -1.16598
 Alpha  occ. eigenvalues --   -1.16156  -1.11470  -1.09819  -1.06252  -1.06110
 Alpha  occ. eigenvalues --   -1.05426  -1.04496  -1.04140  -1.03830  -1.03181
 Alpha  occ. eigenvalues --   -1.02874  -1.02554  -1.02195  -1.01936  -1.01310
 Alpha  occ. eigenvalues --   -1.01076  -1.00808  -1.00596  -1.00483  -0.99758
 Alpha  occ. eigenvalues --   -0.97626  -0.96522  -0.94377  -0.93998  -0.93030
 Alpha  occ. eigenvalues --   -0.93011  -0.92600  -0.92299  -0.92091  -0.91700
 Alpha  occ. eigenvalues --   -0.91689  -0.91401  -0.90509  -0.90117  -0.90053
 Alpha  occ. eigenvalues --   -0.89784  -0.89079  -0.87727  -0.86819  -0.86418
 Alpha  occ. eigenvalues --   -0.82381  -0.81392  -0.80620  -0.80149  -0.79697
 Alpha  occ. eigenvalues --   -0.79035  -0.78949  -0.78203  -0.76873  -0.76192
 Alpha  occ. eigenvalues --   -0.75801  -0.75444  -0.74789  -0.74408  -0.72814
 Alpha  occ. eigenvalues --   -0.72671  -0.72553  -0.72191  -0.71055  -0.69822
 Alpha  occ. eigenvalues --   -0.69696  -0.68731  -0.68612  -0.68395  -0.68115
 Alpha  occ. eigenvalues --   -0.67369  -0.66155  -0.65828  -0.65148  -0.63814
 Alpha  occ. eigenvalues --   -0.63706  -0.63296  -0.63173  -0.62664  -0.62221
 Alpha  occ. eigenvalues --   -0.62110  -0.61679  -0.61355  -0.61005  -0.60285
 Alpha  occ. eigenvalues --   -0.59881  -0.59332  -0.59190  -0.58903  -0.58722
 Alpha  occ. eigenvalues --   -0.58384  -0.58059  -0.57461  -0.57256  -0.56405
 Alpha  occ. eigenvalues --   -0.56357  -0.56221  -0.56093  -0.55692  -0.55457
 Alpha  occ. eigenvalues --   -0.54850  -0.54610  -0.54344  -0.54073  -0.53784
 Alpha  occ. eigenvalues --   -0.53748  -0.53388  -0.53273  -0.53263  -0.52319
 Alpha  occ. eigenvalues --   -0.51820  -0.51792  -0.51568  -0.51312  -0.51192
 Alpha  occ. eigenvalues --   -0.50916  -0.50437  -0.49512  -0.49274  -0.48849
 Alpha  occ. eigenvalues --   -0.48763  -0.48647  -0.48332  -0.48235  -0.48085
 Alpha  occ. eigenvalues --   -0.48035  -0.47809  -0.47644  -0.47214  -0.46922
 Alpha  occ. eigenvalues --   -0.46463  -0.46226  -0.46211  -0.46071  -0.45757
 Alpha  occ. eigenvalues --   -0.45323  -0.45261  -0.45120  -0.45058  -0.44911
 Alpha  occ. eigenvalues --   -0.44702  -0.44649  -0.44443  -0.44256  -0.44171
 Alpha  occ. eigenvalues --   -0.43945  -0.43698  -0.43444  -0.43323  -0.43180
 Alpha  occ. eigenvalues --   -0.43137  -0.42915  -0.42838  -0.42761  -0.42645
 Alpha  occ. eigenvalues --   -0.42358  -0.42059  -0.41874  -0.41762  -0.41662
 Alpha  occ. eigenvalues --   -0.41496  -0.41436  -0.41369  -0.41282  -0.40963
 Alpha  occ. eigenvalues --   -0.40757  -0.40524  -0.40474  -0.40387  -0.40178
 Alpha  occ. eigenvalues --   -0.40045  -0.40008  -0.39791  -0.39671  -0.39576
 Alpha  occ. eigenvalues --   -0.39465  -0.39333  -0.39273  -0.39202  -0.39096
 Alpha  occ. eigenvalues --   -0.38682  -0.38582  -0.38545  -0.38189  -0.38156
 Alpha  occ. eigenvalues --   -0.38051  -0.37976  -0.37813  -0.37793  -0.37679
 Alpha  occ. eigenvalues --   -0.37511  -0.37407  -0.36965  -0.36712  -0.36605
 Alpha  occ. eigenvalues --   -0.36501  -0.36365  -0.36258  -0.36041  -0.35780
 Alpha  occ. eigenvalues --   -0.35624  -0.35491  -0.35457  -0.35050  -0.35028
 Alpha  occ. eigenvalues --   -0.34880  -0.34845  -0.34530  -0.34396  -0.34258
 Alpha  occ. eigenvalues --   -0.34238  -0.34093  -0.33612  -0.33477  -0.33361
 Alpha  occ. eigenvalues --   -0.33120  -0.32357  -0.31732  -0.31469  -0.31231
 Alpha  occ. eigenvalues --   -0.30674  -0.30238  -0.29690  -0.29008  -0.28740
 Alpha  occ. eigenvalues --   -0.28474  -0.28015  -0.27903  -0.27824  -0.27734
 Alpha  occ. eigenvalues --   -0.27206  -0.27116  -0.26982  -0.26908  -0.26644
 Alpha  occ. eigenvalues --   -0.26457  -0.26223  -0.26200  -0.26075  -0.25984
 Alpha  occ. eigenvalues --   -0.25809  -0.25425  -0.25219  -0.25115  -0.24989
 Alpha  occ. eigenvalues --   -0.24505  -0.24188  -0.24100  -0.23686  -0.23528
 Alpha  occ. eigenvalues --   -0.23478  -0.23345  -0.23149  -0.23095  -0.22771
 Alpha  occ. eigenvalues --   -0.22604  -0.22360  -0.22155  -0.21115  -0.20059
 Alpha  occ. eigenvalues --   -0.14577  -0.13586  -0.10628
 Alpha virt. eigenvalues --   -0.08786  -0.07761  -0.03042  -0.02532  -0.02200
 Alpha virt. eigenvalues --   -0.01990  -0.01982  -0.01627  -0.01214  -0.00156
 Alpha virt. eigenvalues --   -0.00049   0.00370   0.00811   0.00859   0.01290

 Mulliken charges:
               1
     1  C    0.069804
     2  C   -0.000705
     3  O   -0.305663
     4  H    0.007233
     5  H    0.017218
     6  H    0.030395
     7  N   -0.112231
     8  C    0.095455
     9  C    0.084454
    10  O   -0.298317
    11  C    0.115267
    12  C    0.010077
    13  O   -0.411987
    14  O   -0.347052
    15  H    0.108549
    16  H   -0.045988
    17  H    0.010800
    18  H   -0.018875
    19  N   -0.122292
    20  C    0.106478
    21  C    0.104280
    22  O   -0.247662
    23  C    0.022348
    24  C   -0.020054
    25  C   -0.049724
    26  C    0.079590
    27  N    0.085137
    28  H    0.082970
    29  H    0.012382
    30  H    0.011854
    31  H    0.031307
    32  H    0.037193
    33  H   -0.018696
    34  H    0.040622
    35  H    0.051684
    36  H    0.061315
    37  H    0.073742
    38  H    0.177605
    39  H    0.166289
    40  H    0.177204
    41  N   -0.120442
    42  C    0.074462
    43  C    0.029797
    44  O   -0.260383
    45  C    0.194011
    46  C    0.012596
    47  O   -0.420004
    48  O   -0.409502
    49  H    0.144333
    50  H   -0.003128
    51  H   -0.005431
    52  H   -0.008172
    53  N   -0.150730
    54  C    0.196586
    55  C    0.008094
    56  O   -0.252364
    57  H    0.138183
    58  H    0.028959
    59  H    0.050638
    60  N   -0.147393
    61  C    0.130938
    62  C    0.092323
    63  O   -0.281008
    64  C    0.097401
    65  C    0.016887
    66  N   -0.024617
    67  O   -0.263642
    68  H    0.125477
    69  H    0.014366
    70  H   -0.002028
    71  H   -0.016778
    72  H    0.103128
    73  H    0.138235
    74  N   -0.111854
    75  C    0.163529
    76  C    0.038822
    77  O   -0.224746
    78  H    0.129979
    79  H    0.033134
    80  H    0.027766
    81  N   -0.165565
    82  C    0.105934
    83  C    0.074934
    84  O   -0.280374
    85  C    0.099967
    86  C    0.009483
    87  C    0.013957
    88  C   -0.011541
    89  C   -0.021284
    90  C   -0.057537
    91  C    0.169007
    92  O   -0.205611
    93  H    0.116665
    94  H    0.003533
    95  H    0.010214
    96  H    0.028894
    97  H   -0.019249
    98  H   -0.036878
    99  H   -0.008916
   100  H   -0.042461
   101  H    0.176246
   102  N   -0.080826
   103  C    0.161968
   104  C    0.037922
   105  O   -0.283316
   106  C   -0.122624
   107  C    0.038207
   108  C    0.077046
   109  C    0.022247
   110  H    0.132301
   111  H    0.004124
   112  H   -0.010193
   113  H   -0.018906
   114  H   -0.008429
   115  H   -0.018923
   116  H    0.032115
   117  H   -0.002309
   118  H    0.010898
   119  H    0.012067
   120  H    0.027423
   121  N   -0.137575
   122  C    0.146709
   123  C    0.036264
   124  O   -0.284243
   125  C    0.212572
   126  O   -0.303746
   127  H    0.129498
   128  H    0.016356
   129  H    0.011568
   130  H   -0.012020
   131  H    0.168978
   132  N   -0.128185
   133  C    0.085495
   134  C    0.086168
   135  O   -0.301288
   136  C    0.068594
   137  H    0.123890
   138  H    0.017935
   139  H    0.024627
   140  H    0.018625
   141  H   -0.000178
   142  N   -0.116160
   143  C    0.085343
   144  C    0.072116
   145  O   -0.257418
   146  C    0.028440
   147  H    0.157411
   148  H   -0.006237
   149  H    0.027424
   150  H   -0.001466
   151  H    0.019825
   152  N   -0.137693
   153  C    0.048703
   154  C    0.086087
   155  O   -0.282814
   156  C    0.085489
   157  C    0.054851
   158  C    0.095188
   159  O   -0.453711
   160  O   -0.386361
   161  H    0.123715
   162  H    0.011748
   163  H    0.006291
   164  H    0.024458
   165  H    0.014255
   166  H   -0.021027
   167  N   -0.149584
   168  C    0.127019
   169  H    0.033350
   170  H    0.028067
   171  H    0.012785
   172  H    0.123138
   173  Ca   1.350825
   174  O   -0.326047
   175  H    0.205801
   176  H    0.206508
 Sum of Mulliken charges =  -0.00000

 Dipole moment (field-independent basis, Debye):
    X=            -12.2789    Y=             15.8571    Z=             21.4968  Tot=             29.3995
 Quadrupole moment (field-independent basis, Debye-Ang):
   XX=           -609.1176   YY=           -577.4885   ZZ=           -472.7340
   XY=            300.1244   XZ=             47.9424   YZ=            -32.9206

 ESP charges:
               1
     1  C   -0.432316
     2  C    0.674253
     3  O   -0.589299
     4  H    0.107086
     5  H    0.096528
     6  H    0.135097
     7  N   -0.530938
     8  C    0.362502
     9  C    0.448526
    10  O   -0.527135
    11  C   -0.481362
    12  C    0.740387
    13  O   -0.720945
    14  O   -0.666693
    15  H    0.257722
    16  H   -0.067834
    17  H    0.157639
    18  H    0.111456
    19  N   -0.221383
    20  C    0.082990
    21  C    0.407447
    22  O   -0.455907
    23  C   -0.215920
    24  C   -0.023928
    25  C   -0.095379
    26  C    0.005142
    27  N   -0.230058
    28  H    0.158985
    29  H    0.071743
    30  H    0.125356
    31  H    0.093703
    32  H    0.072804
    33  H   -0.040181
    34  H    0.062807
    35  H    0.069442
    36  H    0.068036
    37  H    0.092129
    38  H    0.291783
    39  H    0.277820
    40  H    0.305173
    41  N   -0.438992
    42  C    0.367435
    43  C    0.391679
    44  O   -0.498386
    45  C   -0.239574
    46  C    0.630606
    47  O   -0.748366
    48  O   -0.696494
    49  H    0.261052
    50  H   -0.042103
    51  H    0.070820
    52  H    0.046838
    53  N   -0.235152
    54  C   -0.142512
    55  C    0.526969
    56  O   -0.503137
    57  H    0.252680
    58  H    0.093028
    59  H    0.098984
    60  N   -0.433675
    61  C    0.240081
    62  C    0.563129
    63  O   -0.511401
    64  C   -0.343905
    65  C    0.639721
    66  N   -0.696858
    67  O   -0.544271
    68  H    0.214930
    69  H    0.043205
    70  H    0.076807
    71  H    0.104049
    72  H    0.274417
    73  H    0.384402
    74  N   -0.574154
    75  C    0.060720
    76  C    0.644090
    77  O   -0.492055
    78  H    0.332795
    79  H    0.064889
    80  H    0.055656
    81  N   -0.887957
    82  C    0.626929
    83  C    0.431844
    84  O   -0.494547
    85  C   -0.383428
    86  C    0.071226
    87  C   -0.103823
    88  C   -0.207124
    89  C   -0.206750
    90  C   -0.184286
    91  C    0.254870
    92  O   -0.501261
    93  H    0.348518
    94  H   -0.044004
    95  H    0.135896
    96  H    0.121461
    97  H    0.121360
    98  H    0.147860
    99  H    0.152595
   100  H    0.109763
   101  H    0.391373
   102  N   -0.636566
   103  C   -0.069350
   104  C    0.557883
   105  O   -0.582160
   106  C    0.269946
   107  C    0.130307
   108  C   -0.253559
   109  C   -0.326105
   110  H    0.392861
   111  H    0.107510
   112  H   -0.040639
   113  H   -0.039726
   114  H    0.014692
   115  H   -0.036251
   116  H    0.070014
   117  H    0.073743
   118  H    0.079849
   119  H    0.097523
   120  H    0.094667
   121  N   -0.132765
   122  C   -0.438626
   123  C    0.710341
   124  O   -0.581024
   125  C    0.308082
   126  O   -0.589210
   127  H    0.172957
   128  H    0.166113
   129  H    0.023089
   130  H   -0.009740
   131  H    0.382468
   132  N   -0.418289
   133  C    0.225376
   134  C    0.426814
   135  O   -0.538507
   136  C   -0.315474
   137  H    0.272541
   138  H    0.046783
   139  H    0.124114
   140  H    0.076343
   141  H    0.062488
   142  N   -0.314604
   143  C    0.080543
   144  C    0.540338
   145  O   -0.460851
   146  C   -0.154530
   147  H    0.272150
   148  H    0.051355
   149  H    0.083686
   150  H    0.006841
   151  H    0.047089
   152  N   -0.533487
   153  C   -0.191524
   154  C    0.590656
   155  O   -0.524017
   156  C    0.067965
   157  C    0.140518
   158  C    0.657815
   159  O   -0.808010
   160  O   -0.746878
   161  H    0.296522
   162  H    0.121432
   163  H    0.001266
   164  H    0.046769
   165  H    0.011271
   166  H   -0.036250
   167  N   -0.405140
   168  C   -0.059778
   169  H    0.073885
   170  H    0.069691
   171  H    0.060234
   172  H    0.284142
   173  Ca   1.612996
   174  O   -0.783555
   175  H    0.429452
   176  H    0.417747
 Sum of ESP charges =  -0.00000

 Normal termination of Gaussian 16 at Tue Sep 17 00:27:37 2019.
