 Gaussian 16, Revision A.03,
 Gaussian 16:  ES64L-G16RevA.03 25-Dec-2016

 ----------------------------------------------------------------------
 #b3lyp/svp scf=(tight,noincore) Test #IOP(5/87=12) Density=Current Pop
 =(MK,readradii) iop(6/33=2) iop(6/42=6)
 ----------------------------------------------------------------------

 -----------------
 Ng-293_loop3_79.0
 -----------------
 Symbolic Z-matrix:
 Charge =  0 Multiplicity = 1

                         Standard orientation:
 ---------------------------------------------------------------------
 Center     Atomic      Atomic             Coordinates (Angstroms)
 Number     Number       Type             X           Y           Z
 ---------------------------------------------------------------------
      1          6           0       -9.412083    1.176091    5.166131
      2          6           0       -9.880681    0.165345    4.125550
      3          8           0      -11.035421    0.175611    3.698032
      4          1           0       -9.640063    2.184698    4.820771
      5          1           0       -9.925433    0.991650    6.110121
      6          1           0       -8.336236    1.076823    5.311198
      7          7           0       -8.905775   -0.652043    3.728013
      8          6           0       -9.034807   -1.556490    2.608091
      9          6           0       -8.923134   -0.913878    1.238427
     10          8           0       -8.286115    0.105783    0.974993
     11          6           0       -7.951618   -2.638347    2.641055
     12          6           0       -6.521758   -2.352665    3.079673
     13          8           0       -5.762993   -3.337301    2.984975
     14          8           0       -6.162275   -1.263455    3.570584
     15          1           0       -7.960048   -0.440268    4.028599
     16          1           0      -10.021624   -2.023368    2.559961
     17          1           0       -7.886086   -3.177304    1.692777
     18          1           0       -8.278836   -3.478559    3.243194
     19          7           0       -9.517892   -1.537272    0.213418
     20          6           0       -9.761792   -1.068333   -1.136104
     21          6           0       -8.528220   -0.757915   -1.978329
     22          8           0       -8.610611   -0.349708   -3.135169
     23          6           0      -10.843423   -0.000480   -1.212674
     24          6           0      -12.140196   -0.509975   -0.586259
     25          6           0      -13.382023    0.370076   -0.621996
     26          6           0      -14.642696   -0.333786   -0.140559
     27          7           0      -15.840642    0.499572   -0.226239
     28          1           0       -9.725021   -2.512372    0.372405
     29          1           0      -10.260731   -1.842990   -1.719256
     30          1           0      -11.164557    0.163073   -2.244431
     31          1           0      -10.569244    0.943332   -0.730860
     32          1           0      -11.912386   -0.749916    0.452938
     33          1           0      -12.347255   -1.443470   -1.114854
     34          1           0      -13.531354    0.743197   -1.634656
     35          1           0      -13.066492    1.247852   -0.044113
     36          1           0      -14.530094   -0.709838    0.878610
     37          1           0      -14.798041   -1.139345   -0.857457
     38          1           0      -16.704697   -0.020161   -0.097067
     39          1           0      -15.901407    1.268120    0.437494
     40          1           0      -15.797631    0.925829   -1.143602
     41          7           0       -7.321966   -0.964582   -1.456084
     42          6           0       -6.074264   -0.729814   -2.145086
     43          6           0       -4.914680   -1.592530   -1.659198
     44          8           0       -4.635027   -1.756258   -0.477509
     45          6           0       -5.738911    0.760684   -2.070571
     46          6           0       -4.926454    1.222214   -3.269906
     47          8           0       -4.915066    0.589884   -4.350660
     48          8           0       -4.424300    2.357225   -3.166998
     49          1           0       -7.317959   -1.234367   -0.479509
     50          1           0       -6.280464   -1.011440   -3.174245
     51          1           0       -5.128902    0.970249   -1.191895
     52          1           0       -6.672435    1.307818   -2.006726
     53          7           0       -4.171180   -2.159815   -2.620028
     54          6           0       -2.899687   -2.832470   -2.461788
     55          6           0       -1.853452   -1.912717   -1.843768
     56          8           0       -1.847845   -0.711453   -2.100932
     57          1           0       -4.377345   -1.977923   -3.593944
     58          1           0       -2.635805   -2.925280   -3.518742
     59          1           0       -3.016478   -3.754895   -1.892235
     60          7           0       -0.948112   -2.505161   -1.073075
     61          6           0        0.259071   -1.919765   -0.511629
     62          6           0        1.499619   -2.756672   -0.801678
     63          8           0        2.590186   -2.212521   -0.916842
     64          6           0        0.079605   -1.676822    0.981713
     65          6           0       -1.071681   -0.755388    1.337242
     66          7           0       -2.273130   -1.312539    1.204946
     67          8           0       -1.018244    0.439247    1.638888
     68          1           0       -1.153981   -3.420122   -0.710909
     69          1           0        0.477669   -0.986762   -1.039664
     70          1           0        1.040144   -1.316446    1.340595
     71          1           0       -0.159036   -2.655584    1.406771
     72          1           0       -2.364273   -2.207825    0.748485
     73          1           0       -3.146926   -0.823237    1.303256
     74          7           0        1.422379   -4.064247   -1.042678
     75          6           0        2.612706   -4.850006   -1.316548
     76          6           0        3.738275   -4.718888   -0.314000
     77          8           0        3.547881   -4.942367    0.876969
     78          1           0        0.535681   -4.454822   -1.336478
     79          1           0        3.055428   -4.616735   -2.292960
     80          1           0        2.404699   -5.921306   -1.282640
     81          7           0        4.945443   -4.464425   -0.838779
     82          6           0        6.109359   -4.201840   -0.021558
     83          6           0        5.959655   -3.027510    0.937524
     84          8           0        6.738069   -2.942787    1.880654
     85          6           0        6.609198   -5.442166    0.704219
     86          6           0        6.744200   -6.713536   -0.104972
     87          6           0        5.785510   -7.731207   -0.011903
     88          6           0        7.812104   -6.940307   -0.986991
     89          6           0        5.797274   -8.850810   -0.849011
     90          6           0        7.976072   -8.125250   -1.701361
     91          6           0        6.928900   -9.067221   -1.658695
     92          8           0        7.006608  -10.198564   -2.420879
     93          1           0        5.017489   -4.362524   -1.845866
     94          1           0        6.906960   -3.917039   -0.708305
     95          1           0        5.812545   -5.707096    1.405258
     96          1           0        7.512189   -5.291880    1.289045
     97          1           0        4.889617   -7.523853    0.556850
     98          1           0        8.568318   -6.167558   -1.026982
     99          1           0        5.043768   -9.628984   -0.857633
    100          1           0        8.800868   -8.178765   -2.402323
    101          1           0        7.822794  -10.252479   -2.924799
    102          7           0        4.982165   -2.137312    0.800185
    103          6           0        4.821525   -0.876083    1.506227
    104          6           0        5.838893    0.129083    0.985840
    105          8           0        5.431985    1.248339    0.653135
    106          6           0        4.641166   -0.961685    3.015612
    107          6           0        3.656535   -2.032112    3.491622
    108          6           0        4.197072    0.366791    3.611963
    109          6           0        4.046493   -2.688812    4.812636
    110          1           0        4.321911   -2.309207    0.054386
    111          1           0        3.839208   -0.574537    1.138092
    112          1           0        5.553372   -1.296088    3.511045
    113          1           0        3.371756   -2.835280    2.828959
    114          1           0        2.632642   -1.667890    3.500904
    115          1           0        3.776561    0.131401    4.589849
    116          1           0        5.099370    0.847323    4.003561
    117          1           0        3.544750    0.974408    2.985324
    118          1           0        3.289848   -3.452455    5.007923
    119          1           0        4.999829   -3.191198    4.650278
    120          1           0        3.912671   -2.065468    5.690095
    121          7           0        7.126537   -0.177640    0.816157
    122          6           0        7.853735    0.383140   -0.312607
    123          6           0        8.391593    1.796408   -0.144138
    124          8           0        8.894690    2.401489   -1.088739
    125          6           0        8.919901   -0.591700   -0.819141
    126          8           0        8.314552   -1.863639   -0.920745
    127          1           0        7.523302   -0.935360    1.346571
    128          1           0        7.140611    0.410359   -1.128826
    129          1           0        9.685627   -0.613651   -0.041720
    130          1           0        9.290395   -0.316454   -1.800147
    131          1           0        9.064172   -2.439913   -1.036838
    132          7           0        8.316839    2.368841    1.059080
    133          6           0        8.549771    3.765878    1.389280
    134          6           0        7.695297    4.736816    0.599754
    135          8           0        8.170171    5.837607    0.318233
    136          6           0       10.017924    4.157246    1.538478
    137          1           0        8.062029    1.796339    1.836970
    138          1           0        8.238298    3.865154    2.426405
    139          1           0       10.039219    5.150922    1.967726
    140          1           0       10.534325    3.593548    2.308980
    141          1           0       10.577192    3.957114    0.625151
    142          7           0        6.549852    4.301650    0.070238
    143          6           0        5.704459    5.057316   -0.826411
    144          6           0        4.415714    5.598935   -0.234563
    145          8           0        3.938290    5.133058    0.794672
    146          6           0        5.231902    4.107442   -1.923374
    147          1           0        6.282021    3.351034    0.297166
    148          1           0        6.299799    5.870399   -1.233679
    149          1           0        4.611448    4.669184   -2.621287
    150          1           0        5.990466    3.586486   -2.501809
    151          1           0        4.668620    3.339301   -1.391798
    152          7           0        3.811088    6.587275   -0.896917
    153          6           0        2.643815    7.338051   -0.477979
    154          6           0        2.578059    7.873649    0.943784
    155          8           0        1.604461    7.656833    1.666624
    156          6           0        1.342698    6.710141   -0.974087
    157          6           0        1.421821    6.171013   -2.398826
    158          6           0        0.141298    5.412449   -2.714642
    159          8           0       -0.824511    6.030389   -3.215904
    160          8           0        0.068571    4.200868   -2.410697
    161          1           0        4.230379    6.890414   -1.759008
    162          1           0        2.724418    8.300000   -0.988133
    163          1           0        0.480341    7.361564   -0.815063
    164          1           0        1.123897    5.788430   -0.426753
    165          1           0        2.183747    5.403018   -2.501067
    166          1           0        1.519507    6.951964   -3.155248
    167          7           0        3.709046    8.446306    1.346070
    168          6           0        3.954946    8.738751    2.742390
    169          1           0        4.463922    7.893050    3.205768
    170          1           0        4.580939    9.627515    2.823312
    171          1           0        3.006463    8.914247    3.250468
    172          1           0        4.313154    8.669393    0.569034
    173         20           0       -2.447382    3.673595   -2.434423
    174          8           0       -2.220374    1.803026   -0.674355
    175          1           0       -1.936494    1.058938   -1.204965
    176          1           0       -1.911104    1.603219    0.212679
 ---------------------------------------------------------------------

 SCF Done:  E(RB3LYP) =  -5333.40049355     A.U. after   41 cycles

 The electronic state is 1-A.
 Alpha  occ. eigenvalues -- -145.43935 -19.16199 -19.14702 -19.13904 -19.13196
 Alpha  occ. eigenvalues --  -19.12543 -19.10784 -19.09490 -19.08783 -19.08401
 Alpha  occ. eigenvalues --  -19.08236 -19.08205 -19.07336 -19.06870 -19.06607
 Alpha  occ. eigenvalues --  -19.06574 -19.06184 -19.06144 -19.05781 -19.05501
 Alpha  occ. eigenvalues --  -19.04661 -19.02018 -18.97259 -18.95910 -15.49890
 Alpha  occ. eigenvalues --  -14.58894 -14.39377 -14.39167 -14.37055 -14.34672
 Alpha  occ. eigenvalues --  -14.34608 -14.34552 -14.34188 -14.33999 -14.33580
 Alpha  occ. eigenvalues --  -14.33027 -14.32421 -14.32046 -14.31983 -14.30314
 Alpha  occ. eigenvalues --  -12.63531 -12.63466 -12.63366 -10.35357 -10.31719
 Alpha  occ. eigenvalues --  -10.31285 -10.29782 -10.27800 -10.27708 -10.27498
 Alpha  occ. eigenvalues --  -10.27303 -10.27219 -10.27013 -10.26491 -10.26009
 Alpha  occ. eigenvalues --  -10.25818 -10.25714 -10.25634 -10.25353 -10.25312
 Alpha  occ. eigenvalues --  -10.25220 -10.24831 -10.24532 -10.24328 -10.24312
 Alpha  occ. eigenvalues --  -10.24220 -10.23661 -10.23125 -10.22965 -10.22564
 Alpha  occ. eigenvalues --  -10.22015 -10.21817 -10.21398 -10.20957 -10.20922
 Alpha  occ. eigenvalues --  -10.20757 -10.19949 -10.19895 -10.19684 -10.19144
 Alpha  occ. eigenvalues --  -10.19028 -10.18792 -10.18732 -10.18624 -10.17753
 Alpha  occ. eigenvalues --  -10.17009 -10.16891 -10.16333 -10.15910 -10.15699
 Alpha  occ. eigenvalues --  -10.15462 -10.15237 -10.15208 -10.15124 -10.15028
 Alpha  occ. eigenvalues --  -10.14269 -10.13080  -1.86490  -1.14330  -1.14158
 Alpha  occ. eigenvalues --   -1.13866  -1.13154  -1.07062  -1.05473  -1.04748
 Alpha  occ. eigenvalues --   -1.03934  -1.03657  -1.02505  -1.01710  -1.01709
 Alpha  occ. eigenvalues --   -1.01316  -1.01205  -1.00985  -1.00540  -1.00392
 Alpha  occ. eigenvalues --   -0.99786  -0.99732  -0.99252  -0.98894  -0.98020
 Alpha  occ. eigenvalues --   -0.97871  -0.96478  -0.94665  -0.93712  -0.91761
 Alpha  occ. eigenvalues --   -0.91502  -0.91424  -0.91265  -0.90881  -0.90781
 Alpha  occ. eigenvalues --   -0.90349  -0.90111  -0.89196  -0.88925  -0.88716
 Alpha  occ. eigenvalues --   -0.88673  -0.87836  -0.87736  -0.87600  -0.84770
 Alpha  occ. eigenvalues --   -0.81936  -0.81598  -0.81532  -0.79822  -0.78871
 Alpha  occ. eigenvalues --   -0.77720  -0.77319  -0.77055  -0.75865  -0.75674
 Alpha  occ. eigenvalues --   -0.75168  -0.74403  -0.74286  -0.73957  -0.73497
 Alpha  occ. eigenvalues --   -0.73192  -0.72715  -0.71950  -0.71727  -0.71530
 Alpha  occ. eigenvalues --   -0.69267  -0.68884  -0.68722  -0.67890  -0.67261
 Alpha  occ. eigenvalues --   -0.65588  -0.65339  -0.64299  -0.63853  -0.63325
 Alpha  occ. eigenvalues --   -0.63145  -0.62783  -0.62087  -0.62058  -0.62024
 Alpha  occ. eigenvalues --   -0.61054  -0.60733  -0.60507  -0.60208  -0.60033
 Alpha  occ. eigenvalues --   -0.59477  -0.58303  -0.58298  -0.57873  -0.57525
 Alpha  occ. eigenvalues --   -0.57237  -0.57148  -0.56932  -0.56728  -0.55503
 Alpha  occ. eigenvalues --   -0.55228  -0.55091  -0.55045  -0.54997  -0.54770
 Alpha  occ. eigenvalues --   -0.54656  -0.54596  -0.54017  -0.53773  -0.53153
 Alpha  occ. eigenvalues --   -0.52944  -0.52593  -0.51981  -0.51645  -0.51312
 Alpha  occ. eigenvalues --   -0.51160  -0.50952  -0.50461  -0.50176  -0.49935
 Alpha  occ. eigenvalues --   -0.49359  -0.49233  -0.48942  -0.48745  -0.48571
 Alpha  occ. eigenvalues --   -0.48412  -0.47303  -0.47249  -0.46970  -0.46789
 Alpha  occ. eigenvalues --   -0.46690  -0.46428  -0.46189  -0.46138  -0.45997
 Alpha  occ. eigenvalues --   -0.45935  -0.45406  -0.45352  -0.45138  -0.44782
 Alpha  occ. eigenvalues --   -0.44737  -0.44587  -0.44420  -0.44180  -0.44063
 Alpha  occ. eigenvalues --   -0.43856  -0.43612  -0.43544  -0.43483  -0.43355
 Alpha  occ. eigenvalues --   -0.43207  -0.43033  -0.42516  -0.42325  -0.42114
 Alpha  occ. eigenvalues --   -0.42047  -0.41866  -0.41774  -0.41628  -0.41450
 Alpha  occ. eigenvalues --   -0.41335  -0.41275  -0.41062  -0.40981  -0.40844
 Alpha  occ. eigenvalues --   -0.40714  -0.40420  -0.40293  -0.40084  -0.39875
 Alpha  occ. eigenvalues --   -0.39837  -0.39744  -0.39635  -0.39415  -0.39366
 Alpha  occ. eigenvalues --   -0.39100  -0.38979  -0.38869  -0.38721  -0.38534
 Alpha  occ. eigenvalues --   -0.38383  -0.38300  -0.38143  -0.38123  -0.38094
 Alpha  occ. eigenvalues --   -0.37908  -0.37701  -0.37606  -0.37392  -0.37305
 Alpha  occ. eigenvalues --   -0.37097  -0.36908  -0.36867  -0.36642  -0.36620
 Alpha  occ. eigenvalues --   -0.36365  -0.36276  -0.36171  -0.36056  -0.35535
 Alpha  occ. eigenvalues --   -0.35463  -0.35410  -0.34990  -0.34776  -0.34699
 Alpha  occ. eigenvalues --   -0.34673  -0.34330  -0.34128  -0.33923  -0.33885
 Alpha  occ. eigenvalues --   -0.33709  -0.33639  -0.33356  -0.32994  -0.32804
 Alpha  occ. eigenvalues --   -0.32785  -0.32653  -0.32543  -0.32148  -0.32082
 Alpha  occ. eigenvalues --   -0.32029  -0.31800  -0.31359  -0.31275  -0.30640
 Alpha  occ. eigenvalues --   -0.30456  -0.29858  -0.29415  -0.28928  -0.28690
 Alpha  occ. eigenvalues --   -0.28495  -0.28124  -0.27784  -0.27288  -0.26857
 Alpha  occ. eigenvalues --   -0.26584  -0.26258  -0.26009  -0.25921  -0.25843
 Alpha  occ. eigenvalues --   -0.25194  -0.25184  -0.24617  -0.24517  -0.24307
 Alpha  occ. eigenvalues --   -0.24182  -0.24128  -0.23989  -0.23471  -0.23316
 Alpha  occ. eigenvalues --   -0.23245  -0.23147  -0.23084  -0.23035  -0.22227
 Alpha  occ. eigenvalues --   -0.22194  -0.22105  -0.22031  -0.21895  -0.21692
 Alpha  occ. eigenvalues --   -0.21184  -0.21157  -0.21090  -0.20442  -0.18220
 Alpha  occ. eigenvalues --   -0.14662  -0.14076  -0.12105
 Alpha virt. eigenvalues --   -0.11157  -0.04998  -0.04881  -0.04030  -0.02321
 Alpha virt. eigenvalues --   -0.01614  -0.01098  -0.01053  -0.00762  -0.00082
 Alpha virt. eigenvalues --    0.00408   0.01109   0.01720   0.02039   0.02442

 Mulliken charges:
               1
     1  C    0.054301
     2  C    0.015193
     3  O   -0.341411
     4  H    0.020787
     5  H    0.020469
     6  H    0.019496
     7  N   -0.097018
     8  C    0.198359
     9  C    0.031238
    10  O   -0.269359
    11  C   -0.008167
    12  C    0.091083
    13  O   -0.385664
    14  O   -0.372705
    15  H    0.128625
    16  H   -0.044496
    17  H   -0.035376
    18  H   -0.005742
    19  N   -0.156626
    20  C    0.126283
    21  C    0.050399
    22  O   -0.291280
    23  C    0.073644
    24  C   -0.053476
    25  C   -0.011084
    26  C    0.035714
    27  N    0.095527
    28  H    0.112538
    29  H   -0.000725
    30  H    0.003066
    31  H    0.025942
    32  H    0.037510
    33  H   -0.022601
    34  H    0.004243
    35  H    0.048394
    36  H    0.094140
    37  H    0.062254
    38  H    0.175926
    39  H    0.179630
    40  H    0.172607
    41  N   -0.105307
    42  C    0.119456
    43  C    0.083389
    44  O   -0.272192
    45  C    0.081037
    46  C    0.125953
    47  O   -0.349312
    48  O   -0.521268
    49  H    0.133363
    50  H   -0.001373
    51  H   -0.002855
    52  H    0.025397
    53  N   -0.138441
    54  C    0.229104
    55  C    0.049918
    56  O   -0.284836
    57  H    0.130899
    58  H    0.028179
    59  H    0.015838
    60  N   -0.168233
    61  C    0.096922
    62  C    0.107341
    63  O   -0.285550
    64  C    0.076583
    65  C    0.044994
    66  N   -0.017054
    67  O   -0.284516
    68  H    0.126307
    69  H    0.045566
    70  H    0.042111
    71  H    0.018899
    72  H    0.098441
    73  H    0.160033
    74  N   -0.126511
    75  C    0.240689
    76  C    0.005025
    77  O   -0.258780
    78  H    0.118137
    79  H   -0.007265
    80  H    0.036299
    81  N   -0.136340
    82  C    0.135022
    83  C    0.085036
    84  O   -0.315446
    85  C    0.155153
    86  C   -0.059970
    87  C   -0.000995
    88  C   -0.029682
    89  C   -0.015924
    90  C   -0.026388
    91  C    0.147145
    92  O   -0.204558
    93  H    0.130002
    94  H   -0.004425
    95  H    0.006498
    96  H    0.016448
    97  H   -0.010284
    98  H   -0.045953
    99  H   -0.023172
   100  H   -0.039004
   101  H    0.173108
   102  N   -0.119270
   103  C    0.183335
   104  C    0.081245
   105  O   -0.271060
   106  C   -0.094139
   107  C   -0.010595
   108  C    0.127676
   109  C    0.032460
   110  H    0.131282
   111  H   -0.004186
   112  H   -0.010158
   113  H   -0.017301
   114  H   -0.028297
   115  H   -0.012430
   116  H   -0.023621
   117  H    0.047869
   118  H   -0.007562
   119  H    0.031665
   120  H    0.004617
   121  N   -0.146696
   122  C    0.095391
   123  C    0.058378
   124  O   -0.275316
   125  C    0.211693
   126  O   -0.291327
   127  H    0.134727
   128  H    0.023220
   129  H   -0.009423
   130  H    0.024574
   131  H    0.166436
   132  N   -0.111893
   133  C    0.068209
   134  C    0.060264
   135  O   -0.284466
   136  C    0.095956
   137  H    0.112646
   138  H    0.009950
   139  H    0.016013
   140  H   -0.029062
   141  H    0.031303
   142  N   -0.113098
   143  C    0.101028
   144  C    0.055882
   145  O   -0.253524
   146  C    0.033281
   147  H    0.134650
   148  H    0.002626
   149  H   -0.000557
   150  H    0.027480
   151  H    0.033639
   152  N   -0.121391
   153  C    0.106230
   154  C    0.053481
   155  O   -0.263087
   156  C    0.028539
   157  C    0.120495
   158  C    0.052315
   159  O   -0.401054
   160  O   -0.455717
   161  H    0.114263
   162  H   -0.014145
   163  H    0.005659
   164  H    0.024695
   165  H   -0.000476
   166  H   -0.018872
   167  N   -0.144544
   168  C    0.142006
   169  H    0.036266
   170  H    0.007200
   171  H    0.042278
   172  H    0.108290
   173  Ca   1.403645
   174  O   -0.363496
   175  H    0.182817
   176  H    0.196794
 Sum of Mulliken charges =  -0.00000

 Dipole moment (field-independent basis, Debye):
    X=            -33.9702    Y=             -6.6431    Z=            -12.4495  Tot=             36.7844
 Quadrupole moment (field-independent basis, Debye-Ang):
   XX=            214.8836   YY=           -554.0042   ZZ=           -626.1405
   XY=            -81.4064   XZ=             40.9538   YZ=             60.5994

 ESP charges:
               1
     1  C   -0.505795
     2  C    0.673680
     3  O   -0.601846
     4  H    0.133034
     5  H    0.128516
     6  H    0.139156
     7  N   -0.456179
     8  C    0.047889
     9  C    0.686399
    10  O   -0.548045
    11  C   -0.203911
    12  C    0.694389
    13  O   -0.680148
    14  O   -0.669622
    15  H    0.284678
    16  H    0.025091
    17  H    0.021148
    18  H    0.067168
    19  N   -0.634507
    20  C    0.188871
    21  C    0.418542
    22  O   -0.532234
    23  C   -0.066854
    24  C    0.296850
    25  C   -0.037809
    26  C    0.008129
    27  N   -0.196679
    28  H    0.281591
    29  H    0.057524
    30  H   -0.014103
    31  H    0.057381
    32  H   -0.085373
    33  H   -0.079053
    34  H    0.015342
    35  H    0.017580
    36  H    0.088973
    37  H    0.065920
    38  H    0.276251
    39  H    0.281720
    40  H    0.258099
    41  N   -0.413973
    42  C    0.157124
    43  C    0.385061
    44  O   -0.443006
    45  C   -0.054553
    46  C    0.758178
    47  O   -0.654702
    48  O   -0.847970
    49  H    0.266963
    50  H    0.016466
    51  H   -0.024473
    52  H    0.087358
    53  N   -0.245800
    54  C   -0.540284
    55  C    0.832491
    56  O   -0.549198
    57  H    0.275305
    58  H    0.207399
    59  H    0.198640
    60  N   -0.714634
    61  C    0.098265
    62  C    0.635978
    63  O   -0.532055
    64  C   -0.568374
    65  C    0.904085
    66  N   -0.819659
    67  O   -0.627920
    68  H    0.329554
    69  H    0.124303
    70  H    0.177371
    71  H    0.160158
    72  H    0.366897
    73  H    0.408717
    74  N   -0.424692
    75  C   -0.120794
    76  C    0.656052
    77  O   -0.538976
    78  H    0.299805
    79  H    0.064208
    80  H    0.116655
    81  N   -0.769697
    82  C    0.395110
    83  C    0.237239
    84  O   -0.519506
    85  C   -0.223545
    86  C    0.088951
    87  C   -0.150289
    88  C   -0.116903
    89  C   -0.290729
    90  C   -0.345323
    91  C    0.411834
    92  O   -0.565605
    93  H    0.381036
    94  H   -0.000739
    95  H    0.108197
    96  H    0.082014
    97  H    0.142884
    98  H    0.115025
    99  H    0.171049
   100  H    0.146318
   101  H    0.413243
   102  N   -0.115221
   103  C   -0.360307
   104  C    0.611414
   105  O   -0.503778
   106  C    0.199190
   107  C    0.464627
   108  C   -0.453393
   109  C   -0.474524
   110  H    0.222761
   111  H    0.131889
   112  H    0.004373
   113  H   -0.057593
   114  H   -0.104797
   115  H    0.086982
   116  H    0.107820
   117  H    0.139960
   118  H    0.092374
   119  H    0.110467
   120  H    0.101707
   121  N   -0.442803
   122  C    0.121215
   123  C    0.401110
   124  O   -0.501020
   125  C    0.042567
   126  O   -0.520803
   127  H    0.311416
   128  H    0.103014
   129  H    0.040636
   130  H    0.058090
   131  H    0.381851
   132  N   -0.402142
   133  C    0.401011
   134  C    0.421544
   135  O   -0.533444
   136  C   -0.348745
   137  H    0.217152
   138  H    0.000215
   139  H    0.089926
   140  H    0.068983
   141  H    0.105206
   142  N   -0.499290
   143  C    0.405626
   144  C    0.318119
   145  O   -0.427783
   146  C   -0.063517
   147  H    0.185933
   148  H   -0.012666
   149  H   -0.030701
   150  H    0.025664
   151  H    0.055271
   152  N   -0.444661
   153  C    0.269717
   154  C    0.320012
   155  O   -0.479738
   156  C   -0.022796
   157  C    0.047059
   158  C    0.665763
   159  O   -0.719593
   160  O   -0.783976
   161  H    0.238858
   162  H   -0.028040
   163  H    0.006617
   164  H    0.024257
   165  H    0.022250
   166  H   -0.030612
   167  N   -0.233141
   168  C   -0.098491
   169  H    0.084443
   170  H    0.054510
   171  H    0.091956
   172  H    0.216828
   173  Ca   1.610800
   174  O   -0.818104
   175  H    0.358307
   176  H    0.453889
 Sum of ESP charges =  -0.00000

 Normal termination of Gaussian 16 at Tue Sep 17 23:39:53 2019.
