 Gaussian 16, Revision A.03,
 Gaussian 16:  ES64L-G16RevA.03 25-Dec-2016

 ----------------------------------------------------------------------
 #b3lyp/svp scf=(tight,noincore) Test #IOP(5/87=12) Density=Current Pop
 =(MK,readradii) iop(6/33=2) iop(6/42=6)
 ----------------------------------------------------------------------

 -----------------
 Ng-293_loop3_43.0
 -----------------
 Symbolic Z-matrix:
 Charge =  0 Multiplicity = 1

                         Standard orientation:
 ---------------------------------------------------------------------
 Center     Atomic      Atomic             Coordinates (Angstroms)
 Number     Number       Type             X           Y           Z
 ---------------------------------------------------------------------
      1          6           0      -10.220554    0.213748    5.689033
      2          6           0      -10.527039   -0.148674    4.246495
      3          8           0      -11.016321    0.620126    3.419361
      4          1           0       -9.772141   -0.643319    6.191306
      5          1           0       -9.525132    1.052582    5.713671
      6          1           0      -11.143383    0.490615    6.199190
      7          7           0      -10.154193   -1.384617    3.898886
      8          6           0      -10.275368   -2.030247    2.609166
      9          6           0       -9.277072   -1.572636    1.547141
     10          8           0       -8.099097   -1.352140    1.808593
     11          6           0      -10.152712   -3.537460    2.814745
     12          6           0      -10.069592   -4.306251    1.505144
     13          8           0      -10.871522   -4.008399    0.593995
     14          8           0       -9.290466   -5.285710    1.454946
     15          1           0       -9.912144   -2.024186    4.644315
     16          1           0      -11.278735   -1.853421    2.223826
     17          1           0      -11.000325   -3.750496    3.467407
     18          1           0       -9.229216   -3.744162    3.354124
     19          7           0       -9.745239   -1.257549    0.342384
     20          6           0       -9.402337   -0.627287   -0.913677
     21          6           0       -8.120034   -1.049283   -1.610828
     22          8           0       -8.018462   -0.889698   -2.833373
     23          6           0       -9.422179    0.885369   -0.639673
     24          6           0       -9.373279    1.752604   -1.893153
     25          6           0       -9.650053    3.232880   -1.644395
     26          6           0       -9.246293    4.051835   -2.870605
     27          7           0       -9.338900    5.495517   -2.615249
     28          1           0      -10.682157   -1.641549    0.281326
     29          1           0      -10.145892   -0.872214   -1.675212
     30          1           0       -8.568445    1.139284   -0.008828
     31          1           0      -10.357808    1.085318   -0.120040
     32          1           0      -10.053058    1.336661   -2.624926
     33          1           0       -8.338794    1.598994   -2.186998
     34          1           0       -8.973812    3.508940   -0.831875
     35          1           0      -10.698569    3.375272   -1.415182
     36          1           0       -9.813145    3.731084   -3.740891
     37          1           0       -8.188201    3.866695   -3.043419
     38          1           0       -8.730916    5.663166   -1.832531
     39          1           0       -9.083646    6.107432   -3.375647
     40          1           0      -10.324611    5.646212   -2.425867
     41          7           0       -7.201329   -1.685023   -0.892278
     42          6           0       -5.785232   -1.716274   -1.186542
     43          6           0       -4.967151   -2.829584   -0.550470
     44          8           0       -5.422994   -3.423999    0.434557
     45          6           0       -5.072424   -0.393944   -0.911684
     46          6           0       -3.804822   -0.132150   -1.710403
     47          8           0       -3.275449    0.995235   -1.564573
     48          8           0       -3.323069   -0.972895   -2.496826
     49          1           0       -7.496828   -1.910889    0.055860
     50          1           0       -5.793503   -1.913181   -2.259929
     51          1           0       -4.842970   -0.409581    0.159860
     52          1           0       -5.776432    0.424360   -0.987525
     53          7           0       -3.811084   -3.223453   -1.084300
     54          6           0       -2.891592   -4.184136   -0.507566
     55          6           0       -1.517101   -3.788103   -1.029419
     56          8           0       -1.199154   -3.938691   -2.206421
     57          1           0       -3.518703   -2.595675   -1.823020
     58          1           0       -3.183916   -5.162476   -0.896280
     59          1           0       -2.959492   -4.157432    0.580955
     60          7           0       -0.633673   -3.297427   -0.156783
     61          6           0        0.532245   -2.520872   -0.521473
     62          6           0        1.828760   -3.308233   -0.458948
     63          8           0        2.816936   -2.774668   -0.968770
     64          6           0        0.540839   -1.238862    0.301616
     65          6           0       -0.582383   -0.284598   -0.110640
     66          7           0       -1.570313   -0.008702    0.728988
     67          8           0       -0.603397    0.234811   -1.220493
     68          1           0       -1.064342   -3.105985    0.740531
     69          1           0        0.465672   -2.221193   -1.563183
     70          1           0        1.394404   -0.595818    0.094440
     71          1           0        0.534318   -1.425717    1.372103
     72          1           0       -1.628857   -0.608746    1.535908
     73          1           0       -2.387213    0.573795    0.571598
     74          7           0        1.850465   -4.532225    0.058230
     75          6           0        2.983667   -5.435393   -0.100644
     76          6           0        4.281108   -4.972437    0.535296
     77          8           0        4.454091   -5.041943    1.747585
     78          1           0        1.051681   -4.841579    0.587043
     79          1           0        3.216044   -5.402108   -1.173394
     80          1           0        2.830480   -6.458650    0.227805
     81          7           0        5.174490   -4.368958   -0.260055
     82          6           0        6.413334   -3.746853    0.166033
     83          6           0        6.131534   -2.512799    1.023354
     84          8           0        6.904718   -2.150624    1.911282
     85          6           0        7.414577   -4.777192    0.681410
     86          6           0        7.585819   -5.945403   -0.256172
     87          6           0        6.861435   -7.094776    0.054164
     88          6           0        8.310730   -5.799394   -1.447677
     89          6           0        6.909728   -8.159742   -0.849891
     90          6           0        8.309605   -6.863924   -2.364288
     91          6           0        7.569351   -8.030932   -2.087673
     92          8           0        7.502969   -9.052904   -2.992862
     93          1           0        4.980794   -4.274101   -1.238617
     94          1           0        6.887200   -3.322730   -0.720630
     95          1           0        7.322091   -5.096509    1.719284
     96          1           0        8.390932   -4.301139    0.773628
     97          1           0        6.328061   -7.239167    0.985649
     98          1           0        8.891331   -4.926156   -1.655663
     99          1           0        6.313476   -9.045607   -0.684280
    100          1           0        8.814214   -6.829295   -3.313799
    101          1           0        7.896734   -8.876581   -3.851617
    102          7           0        5.057169   -1.773347    0.753818
    103          6           0        4.570511   -0.486924    1.208659
    104          6           0        5.467070    0.578851    0.600049
    105          8           0        4.953576    1.471125   -0.063782
    106          6           0        4.346865   -0.322861    2.707880
    107          6           0        3.162447   -1.177146    3.142683
    108          6           0        4.183337    1.092929    3.257332
    109          6           0        3.292001   -1.879771    4.495950
    110          1           0        4.570865   -2.001987   -0.095789
    111          1           0        3.607644   -0.252762    0.753516
    112          1           0        5.222013   -0.729548    3.199633
    113          1           0        3.174269   -2.042581    2.468752
    114          1           0        2.260422   -0.566466    3.138131
    115          1           0        3.500229    1.630762    2.603651
    116          1           0        3.880943    1.076874    4.303611
    117          1           0        5.158085    1.580119    3.228830
    118          1           0        2.334611   -2.386572    4.582882
    119          1           0        4.186462   -2.508580    4.489819
    120          1           0        3.364760   -1.209684    5.347883
    121          7           0        6.795455    0.409741    0.686049
    122          6           0        7.853871    1.109333   -0.014825
    123          6           0        7.972443    2.586120    0.334378
    124          8           0        8.365963    3.454920   -0.435640
    125          6           0        9.232269    0.491342    0.217137
    126          8           0        9.204830   -0.877395   -0.136565
    127          1           0        6.981420   -0.380649    1.296542
    128          1           0        7.534554    0.974668   -1.048508
    129          1           0        9.476543    0.540601    1.280389
    130          1           0        9.923661    1.115920   -0.339980
    131          1           0        9.652294   -1.389623    0.537525
    132          7           0        7.496292    2.890262    1.550017
    133          6           0        7.109507    4.116005    2.214961
    134          6           0        6.447041    5.053301    1.215154
    135          8           0        6.858394    6.207299    1.165375
    136          6           0        8.428775    4.625862    2.774586
    137          1           0        7.382069    2.089656    2.146996
    138          1           0        6.414393    3.784914    2.988069
    139          1           0        8.311389    5.600021    3.254518
    140          1           0        8.894111    3.857475    3.393330
    141          1           0        9.110271    4.730289    1.927734
    142          7           0        5.443814    4.524084    0.502088
    143          6           0        4.671650    5.156089   -0.538505
    144          6           0        3.317331    5.668738   -0.056519
    145          8           0        2.985084    5.352177    1.080891
    146          6           0        4.580625    4.225455   -1.749717
    147          1           0        5.238333    3.554654    0.663900
    148          1           0        5.180627    6.057694   -0.893682
    149          1           0        4.131248    4.777458   -2.574188
    150          1           0        5.624508    3.918140   -1.854919
    151          1           0        3.998185    3.345800   -1.510822
    152          7           0        2.683877    6.602309   -0.780383
    153          6           0        1.343497    7.125157   -0.615732
    154          6           0        1.130357    7.895676    0.680019
    155          8           0       -0.012083    8.150134    1.075725
    156          6           0        0.194322    6.151232   -0.873349
    157          6           0        0.295065    5.440140   -2.218451
    158          6           0       -0.717933    4.307964   -2.229060
    159          8           0       -0.467226    3.132571   -1.862865
    160          8           0       -1.885120    4.439824   -2.656129
    161          1           0        3.236220    7.094573   -1.463826
    162          1           0        1.210509    7.901834   -1.371501
    163          1           0       -0.748628    6.707106   -0.933771
    164          1           0        0.087901    5.420974   -0.073663
    165          1           0        1.251959    4.929131   -2.131710
    166          1           0        0.196774    6.130382   -3.058036
    167          7           0        2.149815    8.320485    1.437081
    168          6           0        1.937386    9.012625    2.687488
    169          1           0        2.537586    8.545172    3.467635
    170          1           0        2.231398   10.056819    2.580433
    171          1           0        0.883530    8.957693    2.959536
    172          1           0        3.128400    8.161677    1.219709
    173         20           0       -1.481127    1.362893   -3.421253
    174          8           0       -0.336456    2.784888   -5.296688
    175          1           0        0.435485    3.357992   -5.280602
    176          1           0       -0.773731    2.996719   -6.132821
 ---------------------------------------------------------------------

 SCF Done:  E(RB3LYP) =  -5333.35537818     A.U. after   34 cycles

 The electronic state is 1-A.
 Alpha  occ. eigenvalues -- -145.45840 -19.24117 -19.16897 -19.14898 -19.12920
 Alpha  occ. eigenvalues --  -19.11989 -19.11543 -19.10998 -19.10976 -19.10636
 Alpha  occ. eigenvalues --  -19.09759 -19.09064 -19.08660 -19.08177 -19.07533
 Alpha  occ. eigenvalues --  -19.07165 -19.06881 -19.05464 -19.05420 -19.04836
 Alpha  occ. eigenvalues --  -19.03711 -19.02983 -18.95786 -18.95150 -15.51685
 Alpha  occ. eigenvalues --  -14.56942 -14.39425 -14.38152 -14.36960 -14.36875
 Alpha  occ. eigenvalues --  -14.36623 -14.35953 -14.35657 -14.34994 -14.33833
 Alpha  occ. eigenvalues --  -14.33673 -14.31719 -14.31296 -14.31051 -14.30611
 Alpha  occ. eigenvalues --  -12.65305 -12.65251 -12.65210 -10.33473 -10.31538
 Alpha  occ. eigenvalues --  -10.31391 -10.30479 -10.29829 -10.29521 -10.29037
 Alpha  occ. eigenvalues --  -10.28568 -10.27720 -10.27092 -10.27074 -10.26627
 Alpha  occ. eigenvalues --  -10.26570 -10.26289 -10.25977 -10.25839 -10.25693
 Alpha  occ. eigenvalues --  -10.25665 -10.25354 -10.24685 -10.24671 -10.24505
 Alpha  occ. eigenvalues --  -10.24267 -10.23947 -10.23491 -10.23472 -10.23160
 Alpha  occ. eigenvalues --  -10.23098 -10.22610 -10.22565 -10.22122 -10.21370
 Alpha  occ. eigenvalues --  -10.20386 -10.20367 -10.20255 -10.20064 -10.19826
 Alpha  occ. eigenvalues --  -10.19733 -10.19464 -10.19433 -10.19393 -10.19206
 Alpha  occ. eigenvalues --  -10.18704 -10.18503 -10.17812 -10.17795 -10.17732
 Alpha  occ. eigenvalues --  -10.17652 -10.17306 -10.17089 -10.17064 -10.16816
 Alpha  occ. eigenvalues --  -10.15352 -10.11128  -1.88293  -1.15818  -1.15281
 Alpha  occ. eigenvalues --   -1.15205  -1.12557  -1.09509  -1.06233  -1.05273
 Alpha  occ. eigenvalues --   -1.05262  -1.04983  -1.04195  -1.04042  -1.03695
 Alpha  occ. eigenvalues --   -1.02998  -1.02957  -1.02645  -1.02362  -1.00693
 Alpha  occ. eigenvalues --   -1.00402  -0.99779  -0.99166  -0.98695  -0.98518
 Alpha  occ. eigenvalues --   -0.97853  -0.95696  -0.94633  -0.94398  -0.93856
 Alpha  occ. eigenvalues --   -0.93191  -0.92737  -0.92638  -0.92011  -0.91831
 Alpha  occ. eigenvalues --   -0.90692  -0.89936  -0.89220  -0.89111  -0.88737
 Alpha  occ. eigenvalues --   -0.88123  -0.87794  -0.87285  -0.86915  -0.85825
 Alpha  occ. eigenvalues --   -0.82668  -0.81634  -0.80222  -0.80085  -0.79866
 Alpha  occ. eigenvalues --   -0.79525  -0.78964  -0.76749  -0.76632  -0.76555
 Alpha  occ. eigenvalues --   -0.75392  -0.75314  -0.74758  -0.74633  -0.73587
 Alpha  occ. eigenvalues --   -0.73142  -0.72837  -0.72723  -0.72315  -0.71575
 Alpha  occ. eigenvalues --   -0.71297  -0.69769  -0.68806  -0.68220  -0.67310
 Alpha  occ. eigenvalues --   -0.67004  -0.66415  -0.65719  -0.64672  -0.64136
 Alpha  occ. eigenvalues --   -0.63801  -0.63263  -0.62958  -0.62760  -0.62058
 Alpha  occ. eigenvalues --   -0.61616  -0.61518  -0.61233  -0.61108  -0.60621
 Alpha  occ. eigenvalues --   -0.59611  -0.59587  -0.59056  -0.59019  -0.58692
 Alpha  occ. eigenvalues --   -0.58249  -0.58166  -0.56925  -0.56798  -0.56455
 Alpha  occ. eigenvalues --   -0.56409  -0.56246  -0.56048  -0.55909  -0.55899
 Alpha  occ. eigenvalues --   -0.55630  -0.55280  -0.54726  -0.54175  -0.53971
 Alpha  occ. eigenvalues --   -0.53752  -0.53305  -0.52895  -0.52278  -0.52117
 Alpha  occ. eigenvalues --   -0.51834  -0.51392  -0.51284  -0.51162  -0.50707
 Alpha  occ. eigenvalues --   -0.50134  -0.50089  -0.49436  -0.49152  -0.48920
 Alpha  occ. eigenvalues --   -0.48845  -0.48416  -0.48213  -0.47840  -0.47535
 Alpha  occ. eigenvalues --   -0.47437  -0.47391  -0.46913  -0.46882  -0.46655
 Alpha  occ. eigenvalues --   -0.46576  -0.46235  -0.46115  -0.45885  -0.45649
 Alpha  occ. eigenvalues --   -0.45462  -0.45385  -0.45307  -0.45124  -0.45072
 Alpha  occ. eigenvalues --   -0.44903  -0.44771  -0.44617  -0.44447  -0.44373
 Alpha  occ. eigenvalues --   -0.44046  -0.43995  -0.43772  -0.43631  -0.43578
 Alpha  occ. eigenvalues --   -0.43290  -0.42995  -0.42857  -0.42747  -0.42530
 Alpha  occ. eigenvalues --   -0.42351  -0.42089  -0.41985  -0.41944  -0.41776
 Alpha  occ. eigenvalues --   -0.41746  -0.41496  -0.41379  -0.41232  -0.41199
 Alpha  occ. eigenvalues --   -0.41016  -0.40773  -0.40666  -0.40554  -0.40432
 Alpha  occ. eigenvalues --   -0.40302  -0.40172  -0.40014  -0.39849  -0.39791
 Alpha  occ. eigenvalues --   -0.39727  -0.39496  -0.39466  -0.39338  -0.39090
 Alpha  occ. eigenvalues --   -0.38759  -0.38656  -0.38461  -0.38229  -0.38089
 Alpha  occ. eigenvalues --   -0.38009  -0.37577  -0.37534  -0.37348  -0.37300
 Alpha  occ. eigenvalues --   -0.37250  -0.36804  -0.36778  -0.36470  -0.36397
 Alpha  occ. eigenvalues --   -0.36233  -0.36217  -0.36192  -0.36163  -0.35769
 Alpha  occ. eigenvalues --   -0.35572  -0.35552  -0.35488  -0.35058  -0.34817
 Alpha  occ. eigenvalues --   -0.34678  -0.34575  -0.34400  -0.33983  -0.33964
 Alpha  occ. eigenvalues --   -0.33791  -0.33628  -0.33453  -0.33408  -0.33271
 Alpha  occ. eigenvalues --   -0.32183  -0.32062  -0.31891  -0.31724  -0.31311
 Alpha  occ. eigenvalues --   -0.30941  -0.30794  -0.30395  -0.30223  -0.29560
 Alpha  occ. eigenvalues --   -0.29417  -0.28958  -0.28616  -0.28098  -0.27459
 Alpha  occ. eigenvalues --   -0.27273  -0.26930  -0.26796  -0.26751  -0.26463
 Alpha  occ. eigenvalues --   -0.26162  -0.26014  -0.25924  -0.25896  -0.25610
 Alpha  occ. eigenvalues --   -0.25274  -0.24988  -0.24583  -0.24334  -0.23812
 Alpha  occ. eigenvalues --   -0.23798  -0.23745  -0.23441  -0.23322  -0.23114
 Alpha  occ. eigenvalues --   -0.22988  -0.22779  -0.22578  -0.22281  -0.21562
 Alpha  occ. eigenvalues --   -0.21173  -0.21155  -0.20717  -0.20042  -0.17585
 Alpha  occ. eigenvalues --   -0.13070  -0.12871  -0.10665
 Alpha virt. eigenvalues --   -0.09687  -0.09304  -0.03580  -0.03130  -0.02756
 Alpha virt. eigenvalues --   -0.02506  -0.01987  -0.01641  -0.00826  -0.00378
 Alpha virt. eigenvalues --   -0.00041   0.00218   0.00224   0.00769   0.00880

 Mulliken charges:
               1
     1  C    0.058486
     2  C    0.020373
     3  O   -0.309221
     4  H   -0.005280
     5  H    0.034070
     6  H    0.028154
     7  N   -0.100022
     8  C    0.131532
     9  C    0.063301
    10  O   -0.315928
    11  C    0.031460
    12  C    0.054681
    13  O   -0.396404
    14  O   -0.346566
    15  H    0.113703
    16  H   -0.021712
    17  H   -0.009368
    18  H   -0.011935
    19  N   -0.100328
    20  C    0.134797
    21  C    0.035898
    22  O   -0.315215
    23  C    0.016273
    24  C   -0.004009
    25  C   -0.008094
    26  C    0.005274
    27  N    0.118422
    28  H    0.123422
    29  H    0.019809
    30  H    0.021588
    31  H    0.015843
    32  H    0.010670
    33  H    0.021449
    34  H    0.021721
    35  H    0.030435
    36  H    0.074913
    37  H    0.061259
    38  H    0.171758
    39  H    0.156715
    40  H    0.164481
    41  N   -0.089637
    42  C    0.117305
    43  C    0.017747
    44  O   -0.268433
    45  C    0.087350
    46  C    0.123287
    47  O   -0.432031
    48  O   -0.394977
    49  H    0.148874
    50  H    0.014767
    51  H    0.004975
    52  H   -0.000655
    53  N   -0.163200
    54  C    0.300014
    55  C   -0.012536
    56  O   -0.270977
    57  H    0.139824
    58  H    0.032781
    59  H    0.004916
    60  N   -0.136655
    61  C    0.121632
    62  C    0.098211
    63  O   -0.322131
    64  C    0.052520
    65  C    0.069813
    66  N   -0.022319
    67  O   -0.343205
    68  H    0.112714
    69  H    0.030185
    70  H    0.064797
    71  H    0.000139
    72  H    0.105666
    73  H    0.161409
    74  N   -0.100784
    75  C    0.234539
    76  C    0.035762
    77  O   -0.277414
    78  H    0.127443
    79  H    0.000592
    80  H    0.044395
    81  N   -0.122784
    82  C    0.110070
    83  C    0.107731
    84  O   -0.310287
    85  C    0.166244
    86  C   -0.045340
    87  C    0.000802
    88  C   -0.002572
    89  C   -0.023733
    90  C   -0.032766
    91  C    0.157809
    92  O   -0.205300
    93  H    0.122676
    94  H    0.022920
    95  H    0.009235
    96  H   -0.020737
    97  H   -0.005606
    98  H   -0.029594
    99  H   -0.022309
   100  H   -0.049258
   101  H    0.176713
   102  N   -0.108109
   103  C    0.162736
   104  C    0.000148
   105  O   -0.274722
   106  C   -0.116240
   107  C   -0.018219
   108  C    0.109683
   109  C    0.026848
   110  H    0.131847
   111  H    0.000688
   112  H   -0.009431
   113  H    0.009552
   114  H   -0.001695
   115  H    0.031009
   116  H    0.016062
   117  H   -0.023203
   118  H    0.001900
   119  H    0.037025
   120  H   -0.002152
   121  N   -0.145598
   122  C    0.102690
   123  C    0.054496
   124  O   -0.262856
   125  C    0.243840
   126  O   -0.311365
   127  H    0.126059
   128  H    0.021467
   129  H   -0.010378
   130  H    0.023188
   131  H    0.176407
   132  N   -0.163242
   133  C    0.049138
   134  C    0.073045
   135  O   -0.263836
   136  C    0.101812
   137  H    0.109332
   138  H    0.029134
   139  H    0.022039
   140  H   -0.020643
   141  H    0.022661
   142  N   -0.110263
   143  C    0.054567
   144  C    0.079330
   145  O   -0.256800
   146  C    0.058072
   147  H    0.130679
   148  H   -0.000187
   149  H   -0.010864
   150  H    0.042386
   151  H    0.031353
   152  N   -0.152164
   153  C    0.153575
   154  C    0.065684
   155  O   -0.297264
   156  C   -0.031802
   157  C    0.147914
   158  C    0.025907
   159  O   -0.456899
   160  O   -0.400230
   161  H    0.119389
   162  H   -0.000358
   163  H    0.022526
   164  H    0.030850
   165  H   -0.032644
   166  H   -0.031197
   167  N   -0.137981
   168  C    0.116403
   169  H    0.020492
   170  H    0.011000
   171  H    0.047285
   172  H    0.115930
   173  Ca   1.386939
   174  O   -0.320699
   175  H    0.214768
   176  H    0.196160
 Sum of Mulliken charges =  -0.00000

 Dipole moment (field-independent basis, Debye):
    X=              7.0719    Y=             23.9207    Z=            -19.6945  Tot=             31.7818
 Quadrupole moment (field-independent basis, Debye-Ang):
   XX=           -623.4101   YY=           -576.2603   ZZ=           -447.4724
   XY=           -350.6345   XZ=             88.1469   YZ=            -70.3271

 ESP charges:
               1
     1  C   -0.489580
     2  C    0.772988
     3  O   -0.629094
     4  H    0.108405
     5  H    0.138116
     6  H    0.124418
     7  N   -0.616765
     8  C    0.278767
     9  C    0.593085
    10  O   -0.573196
    11  C   -0.324531
    12  C    0.748423
    13  O   -0.713001
    14  O   -0.655331
    15  H    0.309526
    16  H    0.007878
    17  H    0.074549
    18  H    0.052010
    19  N   -0.607078
    20  C    0.193741
    21  C    0.601931
    22  O   -0.615793
    23  C   -0.055494
    24  C    0.070544
    25  C   -0.075755
    26  C    0.195577
    27  N   -0.509921
    28  H    0.280590
    29  H    0.065179
    30  H    0.056680
    31  H    0.036088
    32  H   -0.012043
    33  H   -0.036199
    34  H    0.020279
    35  H    0.040230
    36  H    0.039955
    37  H    0.051052
    38  H    0.352740
    39  H    0.340099
    40  H    0.322811
    41  N   -0.486652
    42  C    0.305554
    43  C    0.443050
    44  O   -0.488353
    45  C   -0.286242
    46  C    0.617423
    47  O   -0.744139
    48  O   -0.663814
    49  H    0.273229
    50  H    0.014733
    51  H    0.062364
    52  H    0.132727
    53  N   -0.330694
    54  C   -0.105136
    55  C    0.584389
    56  O   -0.510812
    57  H    0.221609
    58  H    0.116353
    59  H    0.067094
    60  N   -0.746218
    61  C    0.414817
    62  C    0.430871
    63  O   -0.531498
    64  C   -0.724161
    65  C    1.229259
    66  N   -0.953648
    67  O   -0.796730
    68  H    0.360058
    69  H    0.053154
    70  H    0.136133
    71  H    0.117035
    72  H    0.357806
    73  H    0.474206
    74  N   -0.209029
    75  C   -0.253700
    76  C    0.601336
    77  O   -0.524894
    78  H    0.269427
    79  H    0.083751
    80  H    0.157115
    81  N   -0.556207
    82  C    0.096288
    83  C    0.456865
    84  O   -0.541035
    85  C   -0.130681
    86  C    0.082615
    87  C   -0.221725
    88  C   -0.144719
    89  C   -0.175976
    90  C   -0.294530
    91  C    0.339877
    92  O   -0.558064
    93  H    0.339029
    94  H    0.064461
    95  H    0.102821
    96  H    0.040936
    97  H    0.169412
    98  H    0.142705
    99  H    0.136221
   100  H    0.138263
   101  H    0.418445
   102  N   -0.173763
   103  C   -0.161013
   104  C    0.534632
   105  O   -0.509604
   106  C    0.197298
   107  C    0.323426
   108  C   -0.456799
   109  C   -0.402581
   110  H    0.206828
   111  H    0.100959
   112  H    0.001479
   113  H   -0.071126
   114  H   -0.032305
   115  H    0.105850
   116  H    0.119748
   117  H    0.112524
   118  H    0.073992
   119  H    0.117184
   120  H    0.079071
   121  N   -0.488390
   122  C    0.177489
   123  C    0.126823
   124  O   -0.439486
   125  C    0.197979
   126  O   -0.621594
   127  H    0.271453
   128  H    0.105242
   129  H    0.007987
   130  H    0.042146
   131  H    0.411209
   132  N   -0.050852
   133  C    0.155111
   134  C    0.596936
   135  O   -0.532983
   136  C   -0.341852
   137  H    0.143104
   138  H    0.022461
   139  H    0.091931
   140  H    0.060792
   141  H    0.116788
   142  N   -0.700548
   143  C    0.626104
   144  C    0.453078
   145  O   -0.500640
   146  C   -0.269714
   147  H    0.246896
   148  H   -0.077483
   149  H    0.022693
   150  H    0.073560
   151  H    0.067156
   152  N   -0.544296
   153  C   -0.138896
   154  C    0.373047
   155  O   -0.527955
   156  C    0.507375
   157  C   -0.264280
   158  C    0.746491
   159  O   -0.771773
   160  O   -0.758496
   161  H    0.297834
   162  H    0.109487
   163  H   -0.086427
   164  H   -0.026618
   165  H   -0.007020
   166  H    0.028190
   167  N   -0.182090
   168  C   -0.051907
   169  H    0.052760
   170  H    0.024288
   171  H    0.089158
   172  H    0.216316
   173  Ca   1.698391
   174  O   -0.865451
   175  H    0.449691
   176  H    0.438333
 Sum of ESP charges =   0.00000

 Normal termination of Gaussian 16 at Tue Sep 17 10:20:28 2019.
