 Gaussian 16, Revision A.03,
 Gaussian 16:  ES64L-G16RevA.03 25-Dec-2016

 ----------------------------------------------------------------------
 #b3lyp/svp scf=(tight,noincore) Test #IOP(5/87=12) Density=Current Pop
 =(MK,readradii) iop(6/33=2) iop(6/42=6)
 ----------------------------------------------------------------------

 -----------------
 Ng-293_loop3_66.0
 -----------------
 Symbolic Z-matrix:
 Charge =  0 Multiplicity = 1

                         Standard orientation:
 ---------------------------------------------------------------------
 Center     Atomic      Atomic             Coordinates (Angstroms)
 Number     Number       Type             X           Y           Z
 ---------------------------------------------------------------------
      1          6           0       11.097892    1.345410    6.267529
      2          6           0       11.474368    1.292557    4.797300
      3          8           0       12.659645    1.398690    4.479880
      4          1           0       10.224245    0.716900    6.441339
      5          1           0       11.931453    0.983704    6.869383
      6          1           0       10.866036    2.373334    6.547609
      7          7           0       10.543197    1.245803    3.835618
      8          6           0       10.771953    1.368536    2.408380
      9          6           0        9.567150    0.730425    1.714505
     10          8           0        8.476830    0.834392    2.256071
     11          6           0       10.820840    2.848884    2.056982
     12          6           0       11.288837    2.969827    0.617068
     13          8           0       11.091712    4.120368    0.157940
     14          8           0       11.782678    2.074215   -0.096865
     15          1           0        9.570495    1.216036    4.099368
     16          1           0       11.689071    0.884637    2.067446
     17          1           0       11.468184    3.390716    2.759166
     18          1           0        9.845501    3.311533    2.217198
     19          7           0        9.783461    0.112590    0.559304
     20          6           0        8.789314   -0.439726   -0.351970
     21          6           0        7.969215    0.628972   -1.047326
     22          8           0        8.521618    1.365011   -1.864637
     23          6           0        7.942216   -1.592116    0.192568
     24          6           0        7.351000   -2.332641   -1.007885
     25          6           0        8.233550   -2.944846   -2.085666
     26          6           0        7.609069   -4.001381   -2.993661
     27          7           0        8.573305   -4.809723   -3.764266
     28          1           0       10.735699   -0.024371    0.264203
     29          1           0        9.367217   -0.826510   -1.192105
     30          1           0        7.253123   -1.193375    0.920481
     31          1           0        8.672778   -2.245348    0.669817
     32          1           0        6.652352   -1.647942   -1.494689
     33          1           0        6.653903   -3.098937   -0.668849
     34          1           0        9.092729   -3.419073   -1.604499
     35          1           0        8.506253   -2.167815   -2.791680
     36          1           0        6.982398   -3.384956   -3.642817
     37          1           0        6.986957   -4.751886   -2.519615
     38          1           0        8.723293   -4.489537   -4.710143
     39          1           0        9.433743   -4.850752   -3.233734
     40          1           0        8.273095   -5.763523   -3.931118
     41          7           0        6.675954    0.850267   -0.786739
     42          6           0        5.874402    1.863719   -1.455567
     43          6           0        4.722672    2.335922   -0.586693
     44          8           0        4.311624    1.621420    0.323651
     45          6           0        5.325893    1.462028   -2.820845
     46          6           0        4.427859    0.247330   -2.913271
     47          8           0        4.218859   -0.223892   -4.053827
     48          8           0        3.844768   -0.270620   -1.940732
     49          1           0        6.235234    0.306096   -0.073897
     50          1           0        6.430383    2.797494   -1.546940
     51          1           0        6.208225    1.426303   -3.455599
     52          1           0        4.656556    2.275741   -3.119776
     53          7           0        4.145881    3.512449   -0.846878
     54          6           0        2.801535    3.689581   -0.337213
     55          6           0        1.800622    2.866205   -1.148586
     56          8           0        1.976606    2.675038   -2.352033
     57          1           0        4.523864    4.202884   -1.486431
     58          1           0        2.484780    4.724298   -0.331935
     59          1           0        2.720197    3.474009    0.721990
     60          7           0        0.727988    2.426562   -0.496228
     61          6           0       -0.437506    1.756647   -1.027488
     62          6           0       -1.656046    2.667769   -1.071296
     63          8           0       -2.663023    2.190172   -1.580510
     64          6           0       -0.614369    0.523088   -0.144284
     65          6           0        0.464331   -0.540075   -0.304261
     66          7           0        1.027906   -1.173703    0.726369
     67          8           0        0.714142   -1.060529   -1.393170
     68          1           0        0.715367    2.682892    0.483688
     69          1           0       -0.262049    1.293716   -1.997390
     70          1           0       -1.508934   -0.008852   -0.457002
     71          1           0       -0.696757    0.865846    0.887234
     72          1           0        0.833666   -1.015408    1.708262
     73          1           0        1.674430   -1.926086    0.554537
     74          7           0       -1.647576    3.913523   -0.582496
     75          6           0       -2.685686    4.917305   -0.649953
     76          6           0       -3.991551    4.642211    0.089736
     77          8           0       -3.951927    4.593568    1.317768
     78          1           0       -0.820271    4.175356   -0.065283
     79          1           0       -2.923555    5.205671   -1.677408
     80          1           0       -2.118442    5.721188   -0.179097
     81          7           0       -5.102060    4.480589   -0.635211
     82          6           0       -6.348193    4.035704   -0.045865
     83          6           0       -6.419649    2.634833    0.554680
     84          8           0       -7.434891    2.258828    1.137350
     85          6           0       -6.890047    5.046563    0.960494
     86          6           0       -6.960075    6.446076    0.395729
     87          6           0       -5.821419    7.256717    0.432140
     88          6           0       -8.050911    6.737751   -0.424272
     89          6           0       -5.918348    8.490205   -0.214552
     90          6           0       -8.139391    7.988690   -1.048071
     91          6           0       -7.015223    8.843122   -1.030956
     92          8           0       -7.092219   10.026740   -1.712513
     93          1           0       -5.125015    4.380488   -1.638084
     94          1           0       -7.114147    3.969340   -0.813335
     95          1           0       -6.285841    5.005379    1.869635
     96          1           0       -7.904004    4.819219    1.293969
     97          1           0       -4.999730    6.892981    1.026382
     98          1           0       -8.817818    5.984572   -0.536850
     99          1           0       -5.089596    9.179867   -0.251107
    100          1           0       -8.939565    8.192228   -1.742184
    101          1           0       -7.987103   10.330267   -1.849461
    102          7           0       -5.376526    1.843602    0.292292
    103          6           0       -5.179439    0.448881    0.627420
    104          6           0       -6.216455   -0.490032    0.026637
    105          8           0       -5.766243   -1.533435   -0.440609
    106          6           0       -4.909019    0.325832    2.119644
    107          6           0       -3.618048    0.995162    2.565727
    108          6           0       -4.787278   -1.132443    2.548493
    109          6           0       -3.510825    1.378059    4.038307
    110          1           0       -4.601977    2.195842   -0.262055
    111          1           0       -4.264104    0.014770    0.214250
    112          1           0       -5.702899    0.783588    2.723311
    113          1           0       -3.381085    1.880659    1.982423
    114          1           0       -2.816078    0.275687    2.372593
    115          1           0       -5.654649   -1.702180    2.202130
    116          1           0       -3.916399   -1.556255    2.052152
    117          1           0       -4.707591   -1.280827    3.623729
    118          1           0       -4.376590    1.986838    4.313152
    119          1           0       -3.397721    0.486217    4.650129
    120          1           0       -2.668735    2.031328    4.282283
    121          7           0       -7.522560   -0.259925   -0.051092
    122          6           0       -8.497828   -1.058534   -0.768502
    123          6           0       -8.477475   -2.549967   -0.473521
    124          8           0       -8.586740   -3.305530   -1.442896
    125          6           0       -9.900822   -0.507785   -0.574385
    126          8           0      -10.213637   -0.500297    0.802093
    127          1           0       -7.793104    0.591597    0.426208
    128          1           0       -8.309263   -0.931585   -1.834676
    129          1           0      -10.643344   -1.206586   -0.960181
    130          1           0      -10.029665    0.462832   -1.052614
    131          1           0      -11.153040   -0.493221    0.994895
    132          7           0       -8.328314   -2.812363    0.824592
    133          6           0       -8.142476   -4.126988    1.417320
    134          6           0       -7.143981   -5.076755    0.776813
    135          8           0       -7.239008   -6.293193    0.922244
    136          6           0       -9.482674   -4.749016    1.778912
    137          1           0       -8.230441   -2.022434    1.440005
    138          1           0       -7.739256   -3.931796    2.412667
    139          1           0       -9.823684   -5.362236    0.943823
    140          1           0       -9.495106   -5.307974    2.711871
    141          1           0      -10.119163   -3.913270    2.049486
    142          7           0       -6.163625   -4.572102    0.030336
    143          6           0       -5.105822   -5.351959   -0.595583
    144          6           0       -3.812507   -5.086927    0.149060
    145          8           0       -3.617041   -4.000800    0.694882
    146          6           0       -5.029076   -4.878722   -2.046050
    147          1           0       -6.039258   -3.566355    0.073979
    148          1           0       -5.208771   -6.429784   -0.627137
    149          1           0       -4.194502   -5.362905   -2.548497
    150          1           0       -5.944269   -5.162342   -2.562268
    151          1           0       -5.082795   -3.791419   -2.077468
    152          7           0       -2.792451   -5.947340    0.052750
    153          6           0       -1.491021   -5.881457    0.671005
    154          6           0       -1.519774   -5.893461    2.189007
    155          8           0       -0.414848   -5.942359    2.735767
    156          6           0       -0.652506   -4.786874    0.012080
    157          6           0        0.843365   -5.050153   -0.055410
    158          6           0        1.581148   -4.084250   -0.972201
    159          8           0        1.380831   -4.062436   -2.207837
    160          8           0        2.370307   -3.269296   -0.456276
    161          1           0       -2.981313   -6.810169   -0.447307
    162          1           0       -0.930606   -6.765952    0.352096
    163          1           0       -0.911332   -3.874194    0.552009
    164          1           0       -1.005360   -4.686321   -1.013241
    165          1           0        0.980740   -6.041644   -0.486076
    166          1           0        1.228464   -5.078880    0.968784
    167          7           0       -2.632731   -5.614494    2.854518
    168          6           0       -2.671186   -5.261858    4.264152
    169          1           0       -3.669963   -5.448981    4.658339
    170          1           0       -1.946744   -5.866159    4.809887
    171          1           0       -2.427127   -4.206355    4.381635
    172          1           0       -3.338547   -5.321930    2.193134
    173         20           0        2.176378   -1.877900   -3.397757
    174          8           0        4.080114   -3.591356   -3.916946
    175          1           0        4.183152   -4.342561   -3.325613
    176          1           0        4.818321   -3.659370   -4.521946
 ---------------------------------------------------------------------

 SCF Done:  E(RB3LYP) =  -5333.37446448     A.U. after   32 cycles

 The electronic state is 1-A.
 Alpha  occ. eigenvalues -- -145.44743 -19.22613 -19.17060 -19.14571 -19.13854
 Alpha  occ. eigenvalues --  -19.13454 -19.12626 -19.11869 -19.11346 -19.10416
 Alpha  occ. eigenvalues --  -19.10272 -19.09519 -19.08527 -19.07881 -19.07867
 Alpha  occ. eigenvalues --  -19.07546 -19.06610 -19.06401 -19.06024 -19.05996
 Alpha  occ. eigenvalues --  -19.05505 -19.02729 -18.97421 -18.96369 -15.50601
 Alpha  occ. eigenvalues --  -14.56268 -14.40536 -14.40021 -14.38825 -14.37699
 Alpha  occ. eigenvalues --  -14.36648 -14.35864 -14.35854 -14.35834 -14.34665
 Alpha  occ. eigenvalues --  -14.34236 -14.33481 -14.32790 -14.32187 -14.29194
 Alpha  occ. eigenvalues --  -12.64216 -12.64176 -12.64118 -10.33814 -10.32597
 Alpha  occ. eigenvalues --  -10.32476 -10.31285 -10.31257 -10.30301 -10.29203
 Alpha  occ. eigenvalues --  -10.28891 -10.28312 -10.27439 -10.27425 -10.27166
 Alpha  occ. eigenvalues --  -10.27117 -10.26925 -10.26485 -10.26350 -10.26205
 Alpha  occ. eigenvalues --  -10.25661 -10.25546 -10.25496 -10.25393 -10.24722
 Alpha  occ. eigenvalues --  -10.24548 -10.24356 -10.23765 -10.23539 -10.23484
 Alpha  occ. eigenvalues --  -10.23473 -10.23235 -10.22547 -10.22336 -10.21942
 Alpha  occ. eigenvalues --  -10.21884 -10.21611 -10.20311 -10.20209 -10.20181
 Alpha  occ. eigenvalues --  -10.20055 -10.19806 -10.19726 -10.19707 -10.19566
 Alpha  occ. eigenvalues --  -10.18703 -10.18316 -10.18263 -10.17925 -10.17663
 Alpha  occ. eigenvalues --  -10.17628 -10.17206 -10.16878 -10.16532 -10.16156
 Alpha  occ. eigenvalues --  -10.15269 -10.10798  -1.87224  -1.14746  -1.14489
 Alpha  occ. eigenvalues --   -1.14030  -1.11849  -1.08375  -1.07443  -1.06498
 Alpha  occ. eigenvalues --   -1.05682  -1.05540  -1.04767  -1.04426  -1.04328
 Alpha  occ. eigenvalues --   -1.04175  -1.02927  -1.02084  -1.01786  -1.01468
 Alpha  occ. eigenvalues --   -1.01399  -1.01122  -1.00833  -1.00134  -0.99279
 Alpha  occ. eigenvalues --   -0.96966  -0.96713  -0.96013  -0.95373  -0.94445
 Alpha  occ. eigenvalues --   -0.93455  -0.93237  -0.92209  -0.91728  -0.91382
 Alpha  occ. eigenvalues --   -0.90999  -0.90668  -0.90470  -0.90327  -0.89536
 Alpha  occ. eigenvalues --   -0.89337  -0.88875  -0.87549  -0.86252  -0.85584
 Alpha  occ. eigenvalues --   -0.82857  -0.82470  -0.81193  -0.80921  -0.80728
 Alpha  occ. eigenvalues --   -0.79778  -0.78982  -0.77618  -0.77290  -0.77020
 Alpha  occ. eigenvalues --   -0.75946  -0.75512  -0.75403  -0.74785  -0.74036
 Alpha  occ. eigenvalues --   -0.73525  -0.72580  -0.72250  -0.71522  -0.71022
 Alpha  occ. eigenvalues --   -0.70267  -0.70042  -0.69669  -0.68081  -0.67792
 Alpha  occ. eigenvalues --   -0.67153  -0.66750  -0.65833  -0.65503  -0.64690
 Alpha  occ. eigenvalues --   -0.64333  -0.63553  -0.63496  -0.62826  -0.62549
 Alpha  occ. eigenvalues --   -0.62180  -0.61621  -0.61555  -0.61508  -0.60822
 Alpha  occ. eigenvalues --   -0.60386  -0.60191  -0.60087  -0.59518  -0.59414
 Alpha  occ. eigenvalues --   -0.59303  -0.59044  -0.58854  -0.57727  -0.57348
 Alpha  occ. eigenvalues --   -0.57267  -0.56888  -0.56428  -0.56185  -0.55775
 Alpha  occ. eigenvalues --   -0.55769  -0.55466  -0.55250  -0.54505  -0.54264
 Alpha  occ. eigenvalues --   -0.54137  -0.53484  -0.52839  -0.52551  -0.52417
 Alpha  occ. eigenvalues --   -0.52114  -0.52014  -0.51649  -0.51527  -0.51476
 Alpha  occ. eigenvalues --   -0.50575  -0.50279  -0.50117  -0.49665  -0.49371
 Alpha  occ. eigenvalues --   -0.49268  -0.48922  -0.48530  -0.48310  -0.48084
 Alpha  occ. eigenvalues --   -0.47752  -0.47675  -0.47625  -0.47561  -0.47530
 Alpha  occ. eigenvalues --   -0.47322  -0.46812  -0.46592  -0.46479  -0.46401
 Alpha  occ. eigenvalues --   -0.46236  -0.46006  -0.45593  -0.45559  -0.45462
 Alpha  occ. eigenvalues --   -0.45146  -0.45022  -0.44851  -0.44710  -0.44551
 Alpha  occ. eigenvalues --   -0.44263  -0.43951  -0.43862  -0.43759  -0.43614
 Alpha  occ. eigenvalues --   -0.43477  -0.43291  -0.43247  -0.42984  -0.42809
 Alpha  occ. eigenvalues --   -0.42558  -0.42504  -0.42422  -0.42220  -0.42072
 Alpha  occ. eigenvalues --   -0.41999  -0.41830  -0.41683  -0.41596  -0.41465
 Alpha  occ. eigenvalues --   -0.41368  -0.41059  -0.40889  -0.40776  -0.40737
 Alpha  occ. eigenvalues --   -0.40407  -0.40338  -0.40279  -0.40223  -0.40026
 Alpha  occ. eigenvalues --   -0.39977  -0.39853  -0.39648  -0.39575  -0.39388
 Alpha  occ. eigenvalues --   -0.39133  -0.38764  -0.38694  -0.38564  -0.38509
 Alpha  occ. eigenvalues --   -0.38456  -0.38221  -0.38181  -0.37792  -0.37671
 Alpha  occ. eigenvalues --   -0.37574  -0.37387  -0.37062  -0.36856  -0.36810
 Alpha  occ. eigenvalues --   -0.36627  -0.36491  -0.36257  -0.36065  -0.35949
 Alpha  occ. eigenvalues --   -0.35913  -0.35442  -0.35337  -0.35121  -0.34905
 Alpha  occ. eigenvalues --   -0.34809  -0.34755  -0.34690  -0.34484  -0.33836
 Alpha  occ. eigenvalues --   -0.33808  -0.33719  -0.33536  -0.33495  -0.33449
 Alpha  occ. eigenvalues --   -0.33303  -0.33116  -0.32775  -0.32599  -0.32213
 Alpha  occ. eigenvalues --   -0.31630  -0.31299  -0.31208  -0.30259  -0.29518
 Alpha  occ. eigenvalues --   -0.29359  -0.28587  -0.28246  -0.28078  -0.28025
 Alpha  occ. eigenvalues --   -0.27942  -0.27912  -0.27709  -0.27583  -0.27495
 Alpha  occ. eigenvalues --   -0.26947  -0.26749  -0.26437  -0.26370  -0.25972
 Alpha  occ. eigenvalues --   -0.25922  -0.25531  -0.25249  -0.24819  -0.24687
 Alpha  occ. eigenvalues --   -0.24457  -0.24269  -0.24196  -0.23856  -0.23701
 Alpha  occ. eigenvalues --   -0.23627  -0.23609  -0.23206  -0.22993  -0.22320
 Alpha  occ. eigenvalues --   -0.21498  -0.21410  -0.21251  -0.19862  -0.18775
 Alpha  occ. eigenvalues --   -0.14173  -0.13859  -0.11044
 Alpha virt. eigenvalues --   -0.09981  -0.08003  -0.04841  -0.04492  -0.03967
 Alpha virt. eigenvalues --   -0.03160  -0.02894  -0.02530  -0.01778  -0.00915
 Alpha virt. eigenvalues --   -0.00525  -0.00136   0.00208   0.00527   0.00751

 Mulliken charges:
               1
     1  C    0.067775
     2  C    0.000726
     3  O   -0.305624
     4  H   -0.006009
     5  H    0.020722
     6  H    0.033306
     7  N   -0.119809
     8  C    0.101508
     9  C    0.051504
    10  O   -0.304877
    11  C    0.063999
    12  C    0.085671
    13  O   -0.345401
    14  O   -0.368889
    15  H    0.104251
    16  H   -0.002671
    17  H    0.018438
    18  H   -0.016959
    19  N   -0.047731
    20  C    0.087256
    21  C    0.029384
    22  O   -0.264375
    23  C    0.116864
    24  C   -0.006919
    25  C   -0.031503
    26  C    0.009966
    27  N    0.150102
    28  H    0.122875
    29  H   -0.023788
    30  H    0.046409
    31  H   -0.019450
    32  H    0.030360
    33  H    0.006032
    34  H    0.014277
    35  H    0.055457
    36  H    0.054777
    37  H    0.034880
    38  H    0.118441
    39  H    0.148575
    40  H    0.098322
    41  N   -0.111194
    42  C    0.161475
    43  C    0.067525
    44  O   -0.269689
    45  C    0.081149
    46  C    0.090966
    47  O   -0.462745
    48  O   -0.389124
    49  H    0.125110
    50  H    0.012690
    51  H    0.028479
    52  H    0.013220
    53  N   -0.130285
    54  C    0.188798
    55  C    0.043062
    56  O   -0.278453
    57  H    0.132676
    58  H    0.016581
    59  H    0.010707
    60  N   -0.140411
    61  C    0.119546
    62  C    0.093145
    63  O   -0.296948
    64  C    0.059458
    65  C    0.121156
    66  N   -0.021070
    67  O   -0.395436
    68  H    0.121918
    69  H    0.031105
    70  H    0.066591
    71  H   -0.007422
    72  H    0.112778
    73  H    0.143386
    74  N   -0.118079
    75  C    0.245748
    76  C    0.045533
    77  O   -0.268259
    78  H    0.109092
    79  H    0.014851
    80  H    0.014486
    81  N   -0.107363
    82  C    0.089287
    83  C    0.107137
    84  O   -0.301533
    85  C    0.110036
    86  C   -0.057077
    87  C    0.011594
    88  C   -0.030872
    89  C    0.010739
    90  C   -0.016886
    91  C    0.132494
    92  O   -0.210015
    93  H    0.138927
    94  H    0.012675
    95  H    0.013310
    96  H    0.012034
    97  H   -0.009262
    98  H   -0.024784
    99  H   -0.024911
   100  H   -0.033610
   101  H    0.178990
   102  N   -0.110507
   103  C    0.171180
   104  C    0.022711
   105  O   -0.292991
   106  C   -0.110144
   107  C    0.000238
   108  C    0.076539
   109  C    0.032961
   110  H    0.139713
   111  H    0.014256
   112  H    0.001196
   113  H   -0.013535
   114  H   -0.022360
   115  H   -0.012955
   116  H    0.022956
   117  H    0.002774
   118  H    0.015616
   119  H    0.009139
   120  H    0.000536
   121  N   -0.112628
   122  C    0.117799
   123  C    0.052776
   124  O   -0.264111
   125  C    0.224071
   126  O   -0.331130
   127  H    0.135044
   128  H    0.009000
   129  H    0.007035
   130  H    0.003448
   131  H    0.171740
   132  N   -0.119186
   133  C    0.051924
   134  C    0.048402
   135  O   -0.282884
   136  C    0.089435
   137  H    0.132654
   138  H    0.014477
   139  H    0.039166
   140  H    0.006809
   141  H   -0.017721
   142  N   -0.128708
   143  C    0.122583
   144  C    0.051649
   145  O   -0.301128
   146  C    0.076032
   147  H    0.161438
   148  H    0.000753
   149  H   -0.009891
   150  H    0.030191
   151  H    0.031052
   152  N   -0.119936
   153  C    0.085624
   154  C    0.039623
   155  O   -0.295867
   156  C    0.037047
   157  C    0.115848
   158  C    0.112873
   159  O   -0.487530
   160  O   -0.380405
   161  H    0.116235
   162  H   -0.001015
   163  H    0.005501
   164  H   -0.004979
   165  H   -0.034257
   166  H    0.014227
   167  N   -0.119094
   168  C    0.141261
   169  H    0.018810
   170  H    0.041002
   171  H    0.021771
   172  H    0.111830
   173  Ca   1.360920
   174  O   -0.291376
   175  H    0.192689
   176  H    0.170887
 Sum of Mulliken charges =  -0.00000

 Dipole moment (field-independent basis, Debye):
    X=            -20.1224    Y=            -16.0385    Z=            -18.3654  Tot=             31.6138
 Quadrupole moment (field-independent basis, Debye-Ang):
   XX=           -814.8195   YY=           -501.3098   ZZ=           -496.2628
   XY=           -328.7562   XZ=           -129.0404   YZ=             73.1409

 ESP charges:
               1
     1  C   -0.419154
     2  C    0.755175
     3  O   -0.592636
     4  H    0.076662
     5  H    0.107466
     6  H    0.126136
     7  N   -0.754653
     8  C    0.351292
     9  C    0.559701
    10  O   -0.592072
    11  C   -0.312226
    12  C    0.735522
    13  O   -0.639432
    14  O   -0.671420
    15  H    0.350116
    16  H   -0.011464
    17  H    0.107915
    18  H    0.083932
    19  N   -0.689578
    20  C    0.591292
    21  C    0.513784
    22  O   -0.547085
    23  C   -0.274919
    24  C    0.049558
    25  C   -0.092092
    26  C    0.050802
    27  N   -0.330978
    28  H    0.333532
    29  H   -0.106056
    30  H    0.121373
    31  H    0.038508
    32  H   -0.042706
    33  H    0.025638
    34  H    0.052452
    35  H    0.061198
    36  H    0.098574
    37  H    0.062657
    38  H    0.256324
    39  H    0.295879
    40  H    0.239824
    41  N   -0.324848
    42  C   -0.036962
    43  C    0.564513
    44  O   -0.498551
    45  C   -0.135273
    46  C    0.749635
    47  O   -0.807438
    48  O   -0.692753
    49  H    0.228340
    50  H    0.101111
    51  H    0.063279
    52  H    0.043086
    53  N   -0.560016
    54  C    0.147869
    55  C    0.513042
    56  O   -0.512024
    57  H    0.338393
    58  H    0.035575
    59  H    0.036626
    60  N   -0.679685
    61  C    0.296869
    62  C    0.460957
    63  O   -0.524545
    64  C   -0.274963
    65  C    1.080799
    66  N   -0.998845
    67  O   -0.830255
    68  H    0.318237
    69  H    0.043531
    70  H    0.052204
    71  H    0.029801
    72  H    0.389314
    73  H    0.512712
    74  N   -0.263340
    75  C   -0.315559
    76  C    0.631984
    77  O   -0.495414
    78  H    0.251951
    79  H    0.131166
    80  H    0.159603
    81  N   -0.577066
    82  C    0.116744
    83  C    0.510020
    84  O   -0.527591
    85  C   -0.102974
    86  C    0.005294
    87  C   -0.121944
    88  C   -0.065414
    89  C   -0.275067
    90  C   -0.368929
    91  C    0.426358
    92  O   -0.577552
    93  H    0.354175
    94  H    0.061282
    95  H    0.091546
    96  H    0.046321
    97  H    0.134113
    98  H    0.117960
    99  H    0.149356
   100  H    0.149309
   101  H    0.422995
   102  N   -0.488346
   103  C   -0.115918
   104  C    0.539270
   105  O   -0.503253
   106  C    0.033615
   107  C    0.421059
   108  C   -0.228834
   109  C   -0.394002
   110  H    0.306393
   111  H    0.128559
   112  H    0.027972
   113  H   -0.097658
   114  H   -0.080813
   115  H    0.021595
   116  H    0.077097
   117  H    0.063322
   118  H    0.089959
   119  H    0.075753
   120  H    0.089317
   121  N   -0.264942
   122  C   -0.193160
   123  C    0.701075
   124  O   -0.567044
   125  C    0.127344
   126  O   -0.644115
   127  H    0.285877
   128  H    0.102530
   129  H    0.042341
   130  H    0.059873
   131  H    0.433543
   132  N   -0.514456
   133  C    0.506387
   134  C    0.239111
   135  O   -0.530122
   136  C   -0.467663
   137  H    0.274994
   138  H    0.009472
   139  H    0.135040
   140  H    0.112089
   141  H    0.097072
   142  N   -0.159692
   143  C    0.464398
   144  C    0.323073
   145  O   -0.443216
   146  C   -0.305646
   147  H    0.017375
   148  H   -0.039423
   149  H    0.059920
   150  H    0.079442
   151  H    0.104251
   152  N   -0.708159
   153  C    0.190328
   154  C    0.368546
   155  O   -0.512306
   156  C    0.413964
   157  C   -0.526724
   158  C    0.952979
   159  O   -0.843755
   160  O   -0.780210
   161  H    0.366318
   162  H    0.022865
   163  H   -0.063426
   164  H   -0.038195
   165  H    0.089030
   166  H    0.104799
   167  N   -0.272735
   168  C   -0.092397
   169  H    0.065996
   170  H    0.090463
   171  H    0.079402
   172  H    0.238925
   173  Ca   1.709438
   174  O   -0.850085
   175  H    0.405491
   176  H    0.410727
 Sum of ESP charges =  -0.00000

 Normal termination of Gaussian 16 at Tue Sep 17 18:07:23 2019.
