 Gaussian 16, Revision A.03,
 Gaussian 16:  ES64L-G16RevA.03 25-Dec-2016

 ----------------------------------------------------------------------
 #b3lyp/svp scf=(tight,noincore) Test #IOP(5/87=12) Density=Current Pop
 =(MK,readradii) iop(6/33=2) iop(6/42=6)
 ----------------------------------------------------------------------

 -----------------
 Ng-293_loop3_32.0
 -----------------
 Symbolic Z-matrix:
 Charge =  0 Multiplicity = 1

                         Standard orientation:
 ---------------------------------------------------------------------
 Center     Atomic      Atomic             Coordinates (Angstroms)
 Number     Number       Type             X           Y           Z
 ---------------------------------------------------------------------
      1          6           0        9.376662    0.007056    5.790548
      2          6           0        9.477580    0.500485    4.351645
      3          8           0       10.408662    0.231103    3.601033
      4          1           0        9.628017    0.820110    6.471484
      5          1           0        8.360068   -0.331421    5.988382
      6          1           0       10.071362   -0.819785    5.941503
      7          7           0        8.445575    1.191258    3.865025
      8          6           0        8.341269    1.731221    2.519491
      9          6           0        8.747478    0.815870    1.376282
     10          8           0        8.452585   -0.377826    1.311257
     11          6           0        6.878349    2.088440    2.288710
     12          6           0        6.661202    3.183693    1.252724
     13          8           0        7.574508    3.620207    0.519288
     14          8           0        5.493848    3.644000    1.253921
     15          1           0        7.649162    1.298301    4.475244
     16          1           0        9.002490    2.589461    2.456950
     17          1           0        6.460489    2.479062    3.210506
     18          1           0        6.292555    1.221730    1.973973
     19          7           0        9.264285    1.465971    0.333219
     20          6           0        9.660287    0.893315   -0.943240
     21          6           0        8.686449   -0.004844   -1.682869
     22          8           0        9.065424   -0.940011   -2.383398
     23          6           0       11.034173    0.229733   -0.806873
     24          6           0       12.173853    1.121584   -0.317557
     25          6           0       13.276025    0.338152    0.387675
     26          6           0       12.772942   -0.243522    1.700977
     27          7           0       13.796314   -1.120007    2.277244
     28          1           0        9.095886    2.462916    0.348737
     29          1           0        9.691651    1.754470   -1.596943
     30          1           0       11.407454   -0.301877   -1.680345
     31          1           0       10.867535   -0.514877   -0.035195
     32          1           0       11.737193    1.842695    0.375715
     33          1           0       12.620953    1.600538   -1.187560
     34          1           0       14.171329    0.933998    0.609482
     35          1           0       13.580315   -0.455170   -0.292802
     36          1           0       11.848360   -0.783459    1.468350
     37          1           0       12.444185    0.578458    2.336955
     38          1           0       13.957291   -1.886266    1.634568
     39          1           0       14.662669   -0.604877    2.298934
     40          1           0       13.593502   -1.437126    3.211537
     41          7           0        7.378535    0.256623   -1.561649
     42          6           0        6.259546   -0.481324   -2.125029
     43          6           0        5.000930    0.364227   -2.261520
     44          8           0        4.724081    1.234789   -1.431775
     45          6           0        6.008647   -1.733054   -1.296524
     46          6           0        4.643877   -2.354681   -1.573441
     47          8           0        3.757303   -2.401370   -0.700282
     48          8           0        4.397118   -2.830017   -2.705725
     49          1           0        7.152645    1.147373   -1.153681
     50          1           0        6.525174   -0.830514   -3.113972
     51          1           0        6.091108   -1.406496   -0.257361
     52          1           0        6.819379   -2.442366   -1.453017
     53          7           0        4.286434    0.198387   -3.375518
     54          6           0        3.090918    0.944471   -3.725373
     55          6           0        1.827776    0.355795   -3.108822
     56          8           0        1.683483   -0.858421   -2.966486
     57          1           0        4.601512   -0.458901   -4.075445
     58          1           0        2.857093    0.937992   -4.789790
     59          1           0        3.288563    1.975704   -3.441833
     60          7           0        0.989955    1.192485   -2.498082
     61          6           0       -0.229422    0.921286   -1.755067
     62          6           0       -1.313363    1.944054   -2.030781
     63          8           0       -2.499481    1.646961   -1.918261
     64          6           0        0.206953    0.856881   -0.292594
     65          6           0        1.135607   -0.304911   -0.000806
     66          7           0        2.431946   -0.132321    0.285235
     67          8           0        0.721856   -1.449768   -0.175772
     68          1           0        1.256171    2.155818   -2.630820
     69          1           0       -0.660922   -0.060658   -1.936710
     70          1           0       -0.693039    0.875671    0.326730
     71          1           0        0.748555    1.791068   -0.101120
     72          1           0        2.740666    0.771424    0.607626
     73          1           0        3.052199   -0.852992   -0.061492
     74          7           0       -0.916152    3.173751   -2.407836
     75          6           0       -1.794650    4.319380   -2.373552
     76          6           0       -2.517430    4.459410   -1.034231
     77          8           0       -1.971777    4.132058    0.012289
     78          1           0        0.046156    3.353131   -2.670866
     79          1           0       -2.618270    4.181179   -3.077150
     80          1           0       -1.108327    5.146244   -2.564489
     81          7           0       -3.784200    4.857366   -1.076955
     82          6           0       -4.739408    4.805941    0.012922
     83          6           0       -4.788480    3.514280    0.828338
     84          8           0       -5.492028    3.595743    1.840703
     85          6           0       -4.582611    6.054686    0.874753
     86          6           0       -4.892490    7.380404    0.226951
     87          6           0       -3.848370    8.094647   -0.368087
     88          6           0       -6.133912    7.977915    0.462858
     89          6           0       -4.211678    9.256336   -1.071923
     90          6           0       -6.504238    9.093461   -0.284814
     91          6           0       -5.535683    9.721337   -1.093933
     92          8           0       -5.878406   10.900836   -1.687501
     93          1           0       -4.175771    4.959701   -2.002536
     94          1           0       -5.728769    4.920190   -0.425724
     95          1           0       -3.543953    6.030051    1.227148
     96          1           0       -5.214815    6.013930    1.755694
     97          1           0       -2.823699    7.768732   -0.305406
     98          1           0       -6.838905    7.354359    1.006240
     99          1           0       -3.441180    9.851630   -1.550418
    100          1           0       -7.509552    9.506081   -0.275331
    101          1           0       -6.725050   11.333907   -1.585793
    102          7           0       -4.193033    2.404807    0.406659
    103          6           0       -4.501549    1.064015    0.847675
    104          6           0       -5.858410    0.496648    0.450785
    105          8           0       -5.926858   -0.566085   -0.151056
    106          6           0       -4.271981    0.858062    2.341690
    107          6           0       -2.896162    1.354105    2.790091
    108          6           0       -4.484592   -0.609484    2.700028
    109          6           0       -2.753065    1.172157    4.290931
    110          1           0       -3.705582    2.431739   -0.486743
    111          1           0       -3.764256    0.429576    0.361787
    112          1           0       -5.054825    1.431244    2.846882
    113          1           0       -2.767020    2.408571    2.519495
    114          1           0       -2.185331    0.784713    2.194347
    115          1           0       -4.515764   -0.758260    3.780951
    116          1           0       -5.412907   -1.065807    2.345768
    117          1           0       -3.540684   -1.040574    2.373074
    118          1           0       -3.351387    1.927402    4.793938
    119          1           0       -2.846490    0.123667    4.597425
    120          1           0       -1.727281    1.518225    4.421711
    121          7           0       -6.992184    1.184191    0.620314
    122          6           0       -8.364101    0.813264    0.308774
    123          6           0       -8.752507   -0.626509    0.583898
    124          8           0       -9.377912   -1.239887   -0.274028
    125          6           0       -9.342126    1.708091    1.063261
    126          8           0       -9.178394    3.083571    0.805096
    127          1           0       -6.912924    2.112428    0.997002
    128          1           0       -8.465317    1.050314   -0.752623
    129          1           0       -9.269864    1.500374    2.123512
    130          1           0      -10.324136    1.459405    0.661003
    131          1           0       -9.772181    3.466741    1.443529
    132          7           0       -8.165755   -1.212895    1.641004
    133          6           0       -8.368693   -2.611871    1.939303
    134          6           0       -7.856937   -3.536894    0.848689
    135          8           0       -8.482555   -4.584865    0.740249
    136          6           0       -9.804593   -2.831835    2.396148
    137          1           0       -7.582449   -0.654354    2.246302
    138          1           0       -7.679407   -2.720409    2.775847
    139          1           0      -10.099086   -2.156738    3.206344
    140          1           0      -10.515534   -2.575453    1.615040
    141          1           0       -9.886382   -3.799633    2.903275
    142          7           0       -6.822884   -3.159298    0.094067
    143          6           0       -6.101666   -4.082751   -0.751143
    144          6           0       -5.165263   -5.007335    0.006019
    145          8           0       -4.620422   -4.663726    1.055867
    146          6           0       -5.418903   -3.243251   -1.837640
    147          1           0       -6.621138   -2.174798    0.125021
    148          1           0       -6.756767   -4.800173   -1.252989
    149          1           0       -4.842445   -2.522123   -1.260950
    150          1           0       -4.857294   -3.986277   -2.409224
    151          1           0       -6.099118   -2.779872   -2.547278
    152          7           0       -4.938353   -6.186811   -0.574971
    153          6           0       -3.769797   -6.939953   -0.160903
    154          6           0       -3.697237   -7.398188    1.286183
    155          8           0       -2.617179   -7.437904    1.864539
    156          6           0       -2.445893   -6.389701   -0.678300
    157          6           0       -2.352537   -6.247638   -2.193259
    158          6           0       -1.170150   -5.372459   -2.598872
    159          8           0       -0.295457   -5.180769   -1.729351
    160          8           0       -1.151277   -4.758673   -3.683681
    161          1           0       -5.558901   -6.594320   -1.260286
    162          1           0       -3.875893   -7.899637   -0.664441
    163          1           0       -1.601973   -6.970193   -0.295901
    164          1           0       -2.308418   -5.386221   -0.282915
    165          1           0       -3.288164   -5.835454   -2.559467
    166          1           0       -2.251795   -7.276691   -2.542830
    167          7           0       -4.816477   -7.807650    1.894082
    168          6           0       -4.894914   -8.071330    3.322515
    169          1           0       -4.541246   -7.199199    3.872876
    170          1           0       -5.929023   -8.279518    3.597707
    171          1           0       -4.273018   -8.931563    3.568179
    172          1           0       -5.686626   -7.817330    1.379739
    173         20           0        1.656268   -3.404874   -1.939697
    174          8           0        2.953769   -5.741455   -2.117400
    175          1           0        2.552041   -6.597155   -2.263323
    176          1           0        3.892331   -5.896435   -2.223144
 ---------------------------------------------------------------------

 SCF Done:  E(RB3LYP) =  -5333.46771478     A.U. after   20 cycles

 The electronic state is 1-A.
 Alpha  occ. eigenvalues -- -145.40056 -19.16084 -19.15568 -19.14099 -19.13521
 Alpha  occ. eigenvalues --  -19.12907 -19.11181 -19.09851 -19.09666 -19.09429
 Alpha  occ. eigenvalues --  -19.09419 -19.09402 -19.08430 -19.07574 -19.06928
 Alpha  occ. eigenvalues --  -19.06800 -19.06503 -19.05603 -19.05201 -19.04777
 Alpha  occ. eigenvalues --  -19.02653 -19.00589 -18.99271 -18.96474 -15.45862
 Alpha  occ. eigenvalues --  -14.56609 -14.39355 -14.39028 -14.37613 -14.36319
 Alpha  occ. eigenvalues --  -14.35157 -14.34965 -14.34556 -14.34259 -14.33016
 Alpha  occ. eigenvalues --  -14.32703 -14.32221 -14.31960 -14.31387 -14.29930
 Alpha  occ. eigenvalues --  -12.59499 -12.59452 -12.59383 -10.31987 -10.31767
 Alpha  occ. eigenvalues --  -10.30694 -10.30159 -10.28694 -10.28481 -10.28269
 Alpha  occ. eigenvalues --  -10.28206 -10.28174 -10.27214 -10.26557 -10.26325
 Alpha  occ. eigenvalues --  -10.26030 -10.25658 -10.25588 -10.25508 -10.25436
 Alpha  occ. eigenvalues --  -10.25226 -10.24658 -10.24373 -10.24152 -10.23888
 Alpha  occ. eigenvalues --  -10.23822 -10.22885 -10.22821 -10.22180 -10.21977
 Alpha  occ. eigenvalues --  -10.21617 -10.20866 -10.20848 -10.20532 -10.20405
 Alpha  occ. eigenvalues --  -10.20264 -10.19441 -10.19421 -10.19413 -10.19248
 Alpha  occ. eigenvalues --  -10.19145 -10.19102 -10.19005 -10.18924 -10.18697
 Alpha  occ. eigenvalues --  -10.18045 -10.18019 -10.17053 -10.16299 -10.16013
 Alpha  occ. eigenvalues --  -10.15914 -10.15882 -10.15496 -10.14873 -10.13802
 Alpha  occ. eigenvalues --  -10.12915 -10.12421  -1.82374  -1.11760  -1.10045
 Alpha  occ. eigenvalues --   -1.09763  -1.09269  -1.06681  -1.05826  -1.04594
 Alpha  occ. eigenvalues --   -1.04044  -1.03703  -1.02933  -1.02830  -1.02402
 Alpha  occ. eigenvalues --   -1.02392  -1.02114  -1.01986  -1.01354  -1.01331
 Alpha  occ. eigenvalues --   -1.00758  -0.99603  -0.99539  -0.98151  -0.97765
 Alpha  occ. eigenvalues --   -0.96640  -0.96463  -0.94672  -0.94402  -0.92656
 Alpha  occ. eigenvalues --   -0.92419  -0.92403  -0.91873  -0.90988  -0.90829
 Alpha  occ. eigenvalues --   -0.90500  -0.90206  -0.89458  -0.89270  -0.87656
 Alpha  occ. eigenvalues --   -0.87631  -0.87203  -0.86567  -0.85984  -0.85165
 Alpha  occ. eigenvalues --   -0.82639  -0.81660  -0.80746  -0.79405  -0.79334
 Alpha  occ. eigenvalues --   -0.77578  -0.77495  -0.76580  -0.76061  -0.75500
 Alpha  occ. eigenvalues --   -0.74583  -0.74362  -0.73975  -0.73684  -0.73497
 Alpha  occ. eigenvalues --   -0.72500  -0.72294  -0.72106  -0.71261  -0.70433
 Alpha  occ. eigenvalues --   -0.69177  -0.69037  -0.68927  -0.67506  -0.66116
 Alpha  occ. eigenvalues --   -0.65552  -0.64928  -0.64705  -0.64024  -0.63602
 Alpha  occ. eigenvalues --   -0.62626  -0.62311  -0.62074  -0.61825  -0.61458
 Alpha  occ. eigenvalues --   -0.61210  -0.60941  -0.60398  -0.60298  -0.60134
 Alpha  occ. eigenvalues --   -0.59017  -0.58586  -0.58531  -0.58269  -0.58009
 Alpha  occ. eigenvalues --   -0.57131  -0.56739  -0.56675  -0.55760  -0.55621
 Alpha  occ. eigenvalues --   -0.55351  -0.55276  -0.55079  -0.54450  -0.54305
 Alpha  occ. eigenvalues --   -0.54126  -0.53704  -0.53558  -0.53390  -0.53093
 Alpha  occ. eigenvalues --   -0.52901  -0.52523  -0.52121  -0.51910  -0.51745
 Alpha  occ. eigenvalues --   -0.51111  -0.50898  -0.50417  -0.49846  -0.49608
 Alpha  occ. eigenvalues --   -0.49332  -0.49147  -0.48921  -0.48492  -0.48290
 Alpha  occ. eigenvalues --   -0.48055  -0.47868  -0.47608  -0.47589  -0.47165
 Alpha  occ. eigenvalues --   -0.47003  -0.46681  -0.46362  -0.46324  -0.45989
 Alpha  occ. eigenvalues --   -0.45914  -0.45602  -0.45569  -0.45285  -0.45204
 Alpha  occ. eigenvalues --   -0.45039  -0.44882  -0.44676  -0.44592  -0.44262
 Alpha  occ. eigenvalues --   -0.44167  -0.43907  -0.43662  -0.43450  -0.43095
 Alpha  occ. eigenvalues --   -0.42939  -0.42876  -0.42854  -0.42713  -0.42635
 Alpha  occ. eigenvalues --   -0.42613  -0.42442  -0.42284  -0.42137  -0.42039
 Alpha  occ. eigenvalues --   -0.41763  -0.41483  -0.41338  -0.41036  -0.40764
 Alpha  occ. eigenvalues --   -0.40707  -0.40665  -0.40638  -0.40552  -0.40298
 Alpha  occ. eigenvalues --   -0.39932  -0.39819  -0.39759  -0.39672  -0.39576
 Alpha  occ. eigenvalues --   -0.39341  -0.39308  -0.39027  -0.38990  -0.38849
 Alpha  occ. eigenvalues --   -0.38541  -0.38536  -0.38421  -0.38353  -0.38209
 Alpha  occ. eigenvalues --   -0.38052  -0.37700  -0.37262  -0.37240  -0.37061
 Alpha  occ. eigenvalues --   -0.36943  -0.36811  -0.36749  -0.36629  -0.36524
 Alpha  occ. eigenvalues --   -0.36432  -0.36158  -0.35952  -0.35832  -0.35629
 Alpha  occ. eigenvalues --   -0.35617  -0.35545  -0.35412  -0.34901  -0.34807
 Alpha  occ. eigenvalues --   -0.34642  -0.34511  -0.34437  -0.34075  -0.33745
 Alpha  occ. eigenvalues --   -0.33542  -0.33485  -0.33151  -0.33118  -0.32708
 Alpha  occ. eigenvalues --   -0.32666  -0.32579  -0.32550  -0.32372  -0.32041
 Alpha  occ. eigenvalues --   -0.31519  -0.31235  -0.30845  -0.30657  -0.30445
 Alpha  occ. eigenvalues --   -0.30079  -0.29547  -0.29451  -0.29399  -0.29007
 Alpha  occ. eigenvalues --   -0.28481  -0.28342  -0.28266  -0.28232  -0.27730
 Alpha  occ. eigenvalues --   -0.26890  -0.26653  -0.26289  -0.26136  -0.25977
 Alpha  occ. eigenvalues --   -0.25937  -0.25902  -0.25828  -0.25366  -0.25240
 Alpha  occ. eigenvalues --   -0.25105  -0.24794  -0.24581  -0.24137  -0.23892
 Alpha  occ. eigenvalues --   -0.23833  -0.23720  -0.23394  -0.22694  -0.22687
 Alpha  occ. eigenvalues --   -0.22053  -0.21914  -0.21696  -0.21465  -0.20900
 Alpha  occ. eigenvalues --   -0.20708  -0.20629  -0.20282  -0.19135  -0.16534
 Alpha  occ. eigenvalues --   -0.16250  -0.15379  -0.13046
 Alpha virt. eigenvalues --   -0.08641  -0.02909  -0.02844  -0.02125  -0.01881
 Alpha virt. eigenvalues --   -0.01624  -0.01097  -0.00322   0.00141   0.00325
 Alpha virt. eigenvalues --    0.00458   0.01704   0.01747   0.01836   0.02038

 Mulliken charges:
               1
     1  C    0.050001
     2  C    0.030286
     3  O   -0.330407
     4  H    0.038252
     5  H    0.035781
     6  H    0.008815
     7  N   -0.098011
     8  C    0.122344
     9  C    0.061323
    10  O   -0.301044
    11  C    0.024627
    12  C    0.074100
    13  O   -0.402952
    14  O   -0.391344
    15  H    0.112400
    16  H   -0.017038
    17  H   -0.008223
    18  H    0.020447
    19  N   -0.134505
    20  C    0.142840
    21  C    0.061433
    22  O   -0.291776
    23  C    0.008738
    24  C    0.072644
    25  C   -0.051482
    26  C   -0.009890
    27  N    0.098942
    28  H    0.119221
    29  H    0.011269
    30  H    0.008398
    31  H   -0.003723
    32  H    0.010750
    33  H    0.011100
    34  H    0.007694
    35  H    0.001803
    36  H    0.099007
    37  H    0.093223
    38  H    0.187193
    39  H    0.173871
    40  H    0.195292
    41  N   -0.113408
    42  C    0.127390
    43  C    0.040032
    44  O   -0.260144
    45  C    0.137572
    46  C    0.090428
    47  O   -0.438903
    48  O   -0.415021
    49  H    0.136393
    50  H   -0.012096
    51  H    0.015560
    52  H    0.024549
    53  N   -0.108989
    54  C    0.180104
    55  C    0.096481
    56  O   -0.349353
    57  H    0.133373
    58  H    0.037213
    59  H    0.029559
    60  N   -0.134613
    61  C    0.085188
    62  C    0.120595
    63  O   -0.270626
    64  C    0.135902
    65  C    0.044642
    66  N   -0.037535
    67  O   -0.347223
    68  H    0.116981
    69  H    0.046667
    70  H    0.036997
    71  H   -0.009110
    72  H    0.140419
    73  H    0.144701
    74  N   -0.157905
    75  C    0.254305
    76  C   -0.019111
    77  O   -0.267414
    78  H    0.109697
    79  H    0.008435
    80  H    0.036307
    81  N   -0.110500
    82  C    0.115409
    83  C    0.094041
    84  O   -0.312606
    85  C    0.131237
    86  C   -0.089635
    87  C    0.000108
    88  C    0.034731
    89  C   -0.039553
    90  C   -0.049134
    91  C    0.202056
    92  O   -0.225432
    93  H    0.124301
    94  H    0.011743
    95  H    0.005920
    96  H    0.008621
    97  H   -0.021249
    98  H   -0.015256
    99  H   -0.022950
   100  H   -0.038826
   101  H    0.180216
   102  N   -0.086370
   103  C    0.204048
   104  C    0.044174
   105  O   -0.279568
   106  C   -0.158546
   107  C   -0.006610
   108  C    0.066659
   109  C    0.059874
   110  H    0.144953
   111  H   -0.006390
   112  H   -0.008058
   113  H    0.015393
   114  H   -0.000882
   115  H    0.001087
   116  H    0.001431
   117  H    0.018113
   118  H    0.010534
   119  H    0.025899
   120  H   -0.001519
   121  N   -0.125826
   122  C    0.134752
   123  C    0.057062
   124  O   -0.251336
   125  C    0.188702
   126  O   -0.290104
   127  H    0.127243
   128  H    0.013281
   129  H   -0.008180
   130  H    0.013226
   131  H    0.162375
   132  N   -0.170163
   133  C    0.071096
   134  C    0.063482
   135  O   -0.284497
   136  C    0.102694
   137  H    0.116422
   138  H    0.005314
   139  H   -0.035278
   140  H    0.034027
   141  H    0.016810
   142  N   -0.109636
   143  C    0.096397
   144  C    0.079690
   145  O   -0.267805
   146  C    0.062388
   147  H    0.151914
   148  H   -0.027790
   149  H    0.038757
   150  H    0.007791
   151  H    0.023245
   152  N   -0.144920
   153  C    0.087521
   154  C    0.078038
   155  O   -0.271835
   156  C    0.058562
   157  C    0.046498
   158  C    0.105432
   159  O   -0.472996
   160  O   -0.370642
   161  H    0.126563
   162  H   -0.024354
   163  H    0.004694
   164  H    0.010169
   165  H   -0.024158
   166  H   -0.022329
   167  N   -0.155158
   168  C    0.147458
   169  H    0.031392
   170  H    0.003482
   171  H    0.018015
   172  H    0.104729
   173  Ca   1.340645
   174  O   -0.296794
   175  H    0.184538
   176  H    0.182492
 Sum of Mulliken charges =  -0.00000

 Dipole moment (field-independent basis, Debye):
    X=             29.7451    Y=              4.5460    Z=              3.3603  Tot=             30.2775
 Quadrupole moment (field-independent basis, Debye-Ang):
   XX=            -59.4078   YY=           -571.5391   ZZ=           -512.7080
   XY=           -168.5235   XZ=             79.7203   YZ=            -37.3886

 ESP charges:
               1
     1  C   -0.441849
     2  C    0.876050
     3  O   -0.742102
     4  H    0.108675
     5  H    0.121156
     6  H    0.114068
     7  N   -0.793989
     8  C    0.583875
     9  C    0.279076
    10  O   -0.485548
    11  C   -0.507320
    12  C    0.759740
    13  O   -0.719858
    14  O   -0.693020
    15  H    0.348784
    16  H   -0.047357
    17  H    0.115697
    18  H    0.132170
    19  N   -0.226386
    20  C    0.156668
    21  C    0.461546
    22  O   -0.530360
    23  C   -0.183011
    24  C    0.108183
    25  C   -0.176813
    26  C    0.132620
    27  N   -0.582743
    28  H    0.211848
    29  H    0.037536
    30  H    0.061089
    31  H    0.029852
    32  H   -0.062457
    33  H    0.028596
    34  H    0.037632
    35  H    0.052439
    36  H    0.148511
    37  H    0.132140
    38  H    0.369445
    39  H    0.362996
    40  H    0.394677
    41  N   -0.424256
    42  C    0.235016
    43  C    0.412022
    44  O   -0.435659
    45  C   -0.336203
    46  C    0.819942
    47  O   -0.761443
    48  O   -0.751969
    49  H    0.246650
    50  H    0.002264
    51  H    0.087235
    52  H    0.136238
    53  N   -0.386972
    54  C   -0.180843
    55  C    0.793402
    56  O   -0.629224
    57  H    0.315771
    58  H    0.104357
    59  H    0.125633
    60  N   -0.863638
    61  C    0.513410
    62  C    0.337083
    63  O   -0.459343
    64  C   -0.280268
    65  C    0.818885
    66  N   -0.849629
    67  O   -0.645954
    68  H    0.312682
    69  H    0.014585
    70  H    0.020377
    71  H    0.070542
    72  H    0.384261
    73  H    0.424252
    74  N   -0.218467
    75  C   -0.491809
    76  C    0.844392
    77  O   -0.576773
    78  H    0.292774
    79  H    0.160117
    80  H    0.194587
    81  N   -0.779887
    82  C    0.333447
    83  C    0.359671
    84  O   -0.503284
    85  C   -0.198709
    86  C    0.016917
    87  C   -0.125750
    88  C   -0.046600
    89  C   -0.288860
    90  C   -0.350636
    91  C    0.439258
    92  O   -0.615450
    93  H    0.361471
    94  H    0.046624
    95  H    0.107013
    96  H    0.067591
    97  H    0.137791
    98  H    0.107332
    99  H    0.156168
   100  H    0.144661
   101  H    0.443965
   102  N   -0.434396
   103  C    0.084949
   104  C    0.307391
   105  O   -0.438437
   106  C    0.382581
   107  C    0.115193
   108  C   -0.385652
   109  C   -0.454559
   110  H    0.302307
   111  H    0.031911
   112  H   -0.092244
   113  H    0.039018
   114  H    0.006575
   115  H    0.106262
   116  H    0.036610
   117  H    0.089635
   118  H    0.116599
   119  H    0.114494
   120  H    0.091350
   121  N   -0.139464
   122  C   -0.037901
   123  C    0.393743
   124  O   -0.464464
   125  C    0.264971
   126  O   -0.590836
   127  H    0.166005
   128  H    0.099275
   129  H   -0.030650
   130  H    0.007893
   131  H    0.391349
   132  N   -0.419110
   133  C    0.164367
   134  C    0.568601
   135  O   -0.556222
   136  C   -0.362325
   137  H    0.276401
   138  H    0.064066
   139  H    0.071378
   140  H    0.136545
   141  H    0.100904
   142  N   -0.622342
   143  C    0.499304
   144  C    0.371923
   145  O   -0.470451
   146  C   -0.235631
   147  H    0.311004
   148  H   -0.067636
   149  H    0.044816
   150  H    0.050989
   151  H    0.078355
   152  N   -0.495932
   153  C    0.033192
   154  C    0.415671
   155  O   -0.498635
   156  C    0.345052
   157  C   -0.031912
   158  C    0.661336
   159  O   -0.752955
   160  O   -0.706073
   161  H    0.309636
   162  H    0.002995
   163  H   -0.075312
   164  H   -0.047958
   165  H   -0.039143
   166  H   -0.033578
   167  N   -0.255315
   168  C   -0.227018
   169  H    0.125010
   170  H    0.102235
   171  H    0.087691
   172  H    0.238723
   173  Ca   1.584390
   174  O   -0.845548
   175  H    0.427477
   176  H    0.432510
 Sum of ESP charges =  -0.00000

 Normal termination of Gaussian 16 at Tue Sep 17 10:16:15 2019.
