 Gaussian 16, Revision A.03,
 Gaussian 16:  ES64L-G16RevA.03 25-Dec-2016

 ----------------------------------------------------------------------
 #b3lyp/svp scf=(tight,noincore) Test #IOP(5/87=12) Density=Current Pop
 =(MK,readradii) iop(6/33=2) iop(6/42=6)
 ----------------------------------------------------------------------

 ----------------
 Ng-293_loop3_4.0
 ----------------
 Symbolic Z-matrix:
 Charge =  0 Multiplicity = 1

                         Standard orientation:
 ---------------------------------------------------------------------
 Center     Atomic      Atomic             Coordinates (Angstroms)
 Number     Number       Type             X           Y           Z
 ---------------------------------------------------------------------
      1          6           0        8.501292    3.431481    5.784994
      2          6           0        8.794663    3.483025    4.295740
      3          8           0        9.942264    3.721574    3.902032
      4          1           0        8.051026    4.373366    6.098752
      5          1           0        7.811854    2.613333    5.991701
      6          1           0        9.430058    3.272174    6.333572
      7          7           0        7.791509    3.202201    3.472261
      8          6           0        7.926445    3.186494    2.028569
      9          6           0        8.210228    1.771091    1.547320
     10          8           0        7.565827    0.832128    2.013898
     11          6           0        6.689850    3.789005    1.367953
     12          6           0        6.660612    3.844067   -0.151492
     13          8           0        5.520330    3.850665   -0.685172
     14          8           0        7.707355    3.831052   -0.821685
     15          1           0        6.858877    3.018589    3.827626
     16          1           0        8.771327    3.860811    1.839965
     17          1           0        6.668140    4.819858    1.703468
     18          1           0        5.816348    3.343995    1.839399
     19          7           0        9.055832    1.670172    0.515443
     20          6           0        9.467369    0.479455   -0.195143
     21          6           0        8.380458   -0.271433   -0.956780
     22          8           0        8.761613   -1.288594   -1.521230
     23          6           0       10.325598   -0.388291    0.718235
     24          6           0       11.718469    0.225316    0.844308
     25          6           0       12.572195   -0.268679    2.014958
     26          6           0       13.997081    0.132652    1.625170
     27          7           0       14.872288   -0.225994    2.747660
     28          1           0        9.513818    2.536622    0.276880
     29          1           0       10.104791    0.882647   -0.980783
     30          1           0       10.469151   -1.416145    0.389435
     31          1           0        9.813941   -0.473438    1.670998
     32          1           0       11.678989    1.310083    0.912283
     33          1           0       12.216556    0.061432   -0.108399
     34          1           0       12.500398   -1.311971    2.279696
     35          1           0       12.249180    0.244248    2.926204
     36          1           0       13.946787    1.219987    1.560568
     37          1           0       14.391620   -0.268126    0.691406
     38          1           0       15.192315   -1.185485    2.760304
     39          1           0       15.697018    0.345061    2.762356
     40          1           0       14.363662   -0.098500    3.610009
     41          7           0        7.134471    0.202024   -1.002126
     42          6           0        6.009663   -0.543136   -1.540311
     43          6           0        4.808449    0.373976   -1.747414
     44          8           0        4.286868    0.925844   -0.779997
     45          6           0        5.774685   -1.764927   -0.662296
     46          6           0        5.169459   -2.780631   -1.616941
     47          8           0        3.949572   -2.647156   -1.864850
     48          8           0        5.875819   -3.612334   -2.223181
     49          1           0        6.977889    1.043908   -0.472963
     50          1           0        6.238888   -0.881517   -2.555178
     51          1           0        5.034648   -1.606368    0.125997
     52          1           0        6.675104   -2.174891   -0.212658
     53          7           0        4.464415    0.663493   -3.005834
     54          6           0        3.394772    1.548899   -3.397012
     55          6           0        2.124163    0.758852   -3.160841
     56          8           0        2.012352   -0.366753   -3.637402
     57          1           0        5.158928    0.350432   -3.673475
     58          1           0        3.417519    1.848191   -4.449821
     59          1           0        3.359003    2.377816   -2.686366
     60          7           0        1.083278    1.408389   -2.628148
     61          6           0       -0.208071    0.819863   -2.329058
     62          6           0       -1.387088    1.716058   -2.676409
     63          8           0       -2.466431    1.196158   -2.978605
     64          6           0       -0.092306    0.281406   -0.912773
     65          6           0        0.894817   -0.878270   -0.897317
     66          7           0        2.015811   -0.893811   -0.158581
     67          8           0        0.699135   -1.887311   -1.557123
     68          1           0        1.157225    2.413889   -2.572468
     69          1           0       -0.349266   -0.030323   -3.006071
     70          1           0       -1.115966   -0.055097   -0.728692
     71          1           0        0.173564    1.026431   -0.172536
     72          1           0        2.245413   -0.134786    0.474005
     73          1           0        2.487698   -1.781255   -0.104128
     74          7           0       -1.195228    3.035537   -2.800768
     75          6           0       -2.215975    4.030345   -3.055782
     76          6           0       -3.157304    3.937342   -1.868242
     77          8           0       -2.646886    3.906567   -0.751136
     78          1           0       -0.317946    3.443971   -2.505372
     79          1           0       -2.672891    3.883155   -4.036631
     80          1           0       -1.796682    5.027480   -2.948477
     81          7           0       -4.460042    3.906262   -2.177449
     82          6           0       -5.499564    4.016938   -1.175578
     83          6           0       -5.587768    2.966696   -0.073892
     84          8           0       -6.520109    2.940177    0.727255
     85          6           0       -5.446855    5.412027   -0.566030
     86          6           0       -6.816559    5.874265   -0.118762
     87          6           0       -7.888606    6.022432   -1.000727
     88          6           0       -6.957358    6.270543    1.216618
     89          6           0       -9.084418    6.567161   -0.513998
     90          6           0       -8.162650    6.802935    1.687287
     91          6           0       -9.286827    6.887291    0.841526
     92          8           0      -10.450257    7.455138    1.266473
     93          1           0       -4.724809    3.834538   -3.149124
     94          1           0       -6.410198    3.936721   -1.771909
     95          1           0       -5.092312    6.088033   -1.344435
     96          1           0       -4.660237    5.464905    0.193006
     97          1           0       -7.695301    5.784386   -2.034103
     98          1           0       -6.147008    6.076360    1.908591
     99          1           0       -9.935058    6.804916   -1.134710
    100          1           0       -8.281322    6.959021    2.758246
    101          1           0      -10.355096    7.563807    2.216491
    102          7           0       -4.683975    1.986644   -0.041373
    103          6           0       -4.775703    0.777908    0.748275
    104          6           0       -5.826387   -0.198169    0.219184
    105          8           0       -5.430014   -1.294022   -0.169266
    106          6           0       -4.705669    0.875222    2.263572
    107          6           0       -3.508193    1.693910    2.745963
    108          6           0       -4.647100   -0.481467    2.953617
    109          6           0       -3.529497    3.225393    2.671758
    110          1           0       -3.781989    2.194803   -0.447318
    111          1           0       -3.863486    0.224200    0.541713
    112          1           0       -5.628748    1.361282    2.578327
    113          1           0       -2.589120    1.440528    2.236156
    114          1           0       -3.394896    1.553054    3.820916
    115          1           0       -4.791659   -0.384605    4.029313
    116          1           0       -5.513447   -1.135019    2.777793
    117          1           0       -3.741488   -0.991475    2.623984
    118          1           0       -2.607173    3.647458    3.067082
    119          1           0       -3.375425    3.540022    1.641723
    120          1           0       -4.486096    3.632971    3.004321
    121          7           0       -7.105104    0.165834    0.146480
    122          6           0       -8.195214   -0.672352   -0.309594
    123          6           0       -8.457143   -1.883437    0.576106
    124          8           0       -9.142218   -2.772213    0.075458
    125          6           0       -9.468470    0.171620   -0.368170
    126          8           0       -9.218899    1.314331   -1.162919
    127          1           0       -7.326977    1.148516    0.263559
    128          1           0       -7.899974   -1.010711   -1.301182
    129          1           0       -9.828153    0.541993    0.587054
    130          1           0      -10.292197   -0.391553   -0.806702
    131          1           0       -8.719522    0.924354   -1.874214
    132          7           0       -7.892633   -1.958900    1.789009
    133          6           0       -7.675365   -3.146322    2.591583
    134          6           0       -6.923947   -4.246340    1.853524
    135          8           0       -7.011602   -5.414433    2.223492
    136          6           0       -8.920511   -3.563786    3.360889
    137          1           0       -7.464065   -1.129256    2.175171
    138          1           0       -6.937257   -2.764345    3.294571
    139          1           0       -8.753169   -4.391525    4.059849
    140          1           0       -9.109832   -2.690383    3.978566
    141          1           0       -9.767722   -3.926939    2.782569
    142          7           0       -6.128711   -3.870268    0.852341
    143          6           0       -5.126530   -4.679152    0.184702
    144          6           0       -3.759329   -4.578019    0.856588
    145          8           0       -3.313543   -3.630393    1.503103
    146          6           0       -5.052179   -4.661057   -1.336365
    147          1           0       -5.998338   -2.869487    0.735122
    148          1           0       -5.437725   -5.702991    0.376564
    149          1           0       -4.206087   -5.207191   -1.746323
    150          1           0       -6.044221   -4.928328   -1.697359
    151          1           0       -4.900591   -3.626944   -1.659833
    152          7           0       -3.006716   -5.653495    0.622014
    153          6           0       -1.637217   -5.817564    1.072853
    154          6           0       -1.346588   -5.701756    2.568253
    155          8           0       -0.273623   -5.294319    2.991739
    156          6           0       -0.598506   -5.036288    0.282925
    157          6           0       -0.533868   -5.703493   -1.098255
    158          6           0        0.351729   -4.901057   -2.038209
    159          8           0        1.599677   -4.997962   -2.003080
    160          8           0       -0.171931   -4.171997   -2.899343
    161          1           0       -3.337865   -6.452740    0.092725
    162          1           0       -1.430445   -6.870123    0.844018
    163          1           0        0.412110   -5.088859    0.673171
    164          1           0       -0.835598   -3.974913    0.224005
    165          1           0       -1.509699   -5.853611   -1.552588
    166          1           0       -0.113755   -6.709385   -1.034330
    167          7           0       -2.350685   -6.075327    3.367024
    168          6           0       -2.399068   -6.049880    4.814405
    169          1           0       -2.857266   -5.118000    5.145511
    170          1           0       -2.990211   -6.891701    5.173675
    171          1           0       -1.386965   -6.118954    5.213337
    172          1           0       -3.243110   -6.279777    2.942550
    173         20           0        2.030519   -2.948438   -3.638793
    174          8           0        2.941824   -1.853344   -5.846143
    175          1           0        2.312463   -1.189468   -6.115350
    176          1           0        3.648134   -1.785162   -6.496049
 ---------------------------------------------------------------------

 SCF Done:  E(RB3LYP) =  -5333.40269734     A.U. after   22 cycles

 The electronic state is 1-A.
 Alpha  occ. eigenvalues -- -145.38147 -19.20051 -19.16394 -19.13660 -19.13217
 Alpha  occ. eigenvalues --  -19.12800 -19.11994 -19.10657 -19.09845 -19.08723
 Alpha  occ. eigenvalues --  -19.07396 -19.07394 -19.06624 -19.06453 -19.06430
 Alpha  occ. eigenvalues --  -19.06123 -19.05229 -19.05043 -19.01325 -19.00672
 Alpha  occ. eigenvalues --  -19.00401 -18.97612 -18.96844 -18.95561 -15.44018
 Alpha  occ. eigenvalues --  -14.58077 -14.38996 -14.38842 -14.38184 -14.35444
 Alpha  occ. eigenvalues --  -14.35182 -14.34919 -14.34039 -14.33396 -14.32346
 Alpha  occ. eigenvalues --  -14.32045 -14.32005 -14.31620 -14.31442 -14.30784
 Alpha  occ. eigenvalues --  -12.57625 -12.57596 -12.57536 -10.34621 -10.31493
 Alpha  occ. eigenvalues --  -10.31131 -10.31019 -10.29445 -10.28360 -10.27729
 Alpha  occ. eigenvalues --  -10.27064 -10.26807 -10.26355 -10.25715 -10.25660
 Alpha  occ. eigenvalues --  -10.25575 -10.25422 -10.25195 -10.25132 -10.24665
 Alpha  occ. eigenvalues --  -10.24319 -10.24118 -10.24073 -10.23793 -10.23739
 Alpha  occ. eigenvalues --  -10.23407 -10.22469 -10.22421 -10.22343 -10.21416
 Alpha  occ. eigenvalues --  -10.20531 -10.20303 -10.20104 -10.19980 -10.19608
 Alpha  occ. eigenvalues --  -10.19323 -10.19191 -10.19189 -10.18822 -10.18674
 Alpha  occ. eigenvalues --  -10.18620 -10.18548 -10.18506 -10.18308 -10.18306
 Alpha  occ. eigenvalues --  -10.18236 -10.17488 -10.16901 -10.16802 -10.16547
 Alpha  occ. eigenvalues --  -10.16485 -10.16248 -10.15743 -10.13091 -10.12614
 Alpha  occ. eigenvalues --  -10.12199 -10.11560  -1.80795  -1.13734  -1.08411
 Alpha  occ. eigenvalues --   -1.08157  -1.07937  -1.06627  -1.05887  -1.05750
 Alpha  occ. eigenvalues --   -1.05180  -1.04532  -1.04123  -1.03341  -1.02445
 Alpha  occ. eigenvalues --   -1.01534  -1.01216  -1.00370  -0.99736  -0.99533
 Alpha  occ. eigenvalues --   -0.99322  -0.98804  -0.98121  -0.98038  -0.96309
 Alpha  occ. eigenvalues --   -0.96071  -0.95752  -0.94252  -0.93707  -0.92654
 Alpha  occ. eigenvalues --   -0.92247  -0.91503  -0.91009  -0.90340  -0.90022
 Alpha  occ. eigenvalues --   -0.89736  -0.88792  -0.88533  -0.88456  -0.87689
 Alpha  occ. eigenvalues --   -0.87599  -0.86366  -0.85293  -0.84907  -0.83277
 Alpha  occ. eigenvalues --   -0.81388  -0.80809  -0.80638  -0.80073  -0.79867
 Alpha  occ. eigenvalues --   -0.77517  -0.76479  -0.76444  -0.75770  -0.74828
 Alpha  occ. eigenvalues --   -0.74771  -0.74094  -0.73855  -0.73590  -0.73167
 Alpha  occ. eigenvalues --   -0.72576  -0.72471  -0.72084  -0.71221  -0.70018
 Alpha  occ. eigenvalues --   -0.69450  -0.69441  -0.68501  -0.66852  -0.66706
 Alpha  occ. eigenvalues --   -0.65720  -0.65693  -0.64699  -0.63738  -0.63409
 Alpha  occ. eigenvalues --   -0.62695  -0.62343  -0.61962  -0.61816  -0.61641
 Alpha  occ. eigenvalues --   -0.61215  -0.60828  -0.60372  -0.59869  -0.59690
 Alpha  occ. eigenvalues --   -0.59257  -0.58936  -0.58758  -0.58551  -0.57580
 Alpha  occ. eigenvalues --   -0.56703  -0.56505  -0.56314  -0.56161  -0.55920
 Alpha  occ. eigenvalues --   -0.55829  -0.55821  -0.55342  -0.55206  -0.54747
 Alpha  occ. eigenvalues --   -0.54267  -0.54054  -0.53807  -0.53339  -0.52937
 Alpha  occ. eigenvalues --   -0.52583  -0.52144  -0.51917  -0.51788  -0.51682
 Alpha  occ. eigenvalues --   -0.51411  -0.51029  -0.49994  -0.49333  -0.48928
 Alpha  occ. eigenvalues --   -0.48881  -0.48772  -0.48508  -0.48319  -0.48125
 Alpha  occ. eigenvalues --   -0.47924  -0.47495  -0.47366  -0.46931  -0.46632
 Alpha  occ. eigenvalues --   -0.46238  -0.46126  -0.45722  -0.45564  -0.45428
 Alpha  occ. eigenvalues --   -0.45387  -0.45313  -0.45091  -0.44925  -0.44618
 Alpha  occ. eigenvalues --   -0.44408  -0.44341  -0.43986  -0.43941  -0.43876
 Alpha  occ. eigenvalues --   -0.43774  -0.43430  -0.43277  -0.43001  -0.42918
 Alpha  occ. eigenvalues --   -0.42809  -0.42671  -0.42526  -0.42346  -0.42294
 Alpha  occ. eigenvalues --   -0.42229  -0.42040  -0.41931  -0.41599  -0.41523
 Alpha  occ. eigenvalues --   -0.41323  -0.41305  -0.41127  -0.40736  -0.40691
 Alpha  occ. eigenvalues --   -0.40661  -0.40311  -0.40014  -0.39833  -0.39699
 Alpha  occ. eigenvalues --   -0.39587  -0.39495  -0.39397  -0.39123  -0.38993
 Alpha  occ. eigenvalues --   -0.38985  -0.38846  -0.38411  -0.38229  -0.38127
 Alpha  occ. eigenvalues --   -0.38093  -0.38055  -0.37924  -0.37796  -0.37614
 Alpha  occ. eigenvalues --   -0.37512  -0.37343  -0.37278  -0.37269  -0.37112
 Alpha  occ. eigenvalues --   -0.36991  -0.36625  -0.36403  -0.36351  -0.36085
 Alpha  occ. eigenvalues --   -0.35848  -0.35837  -0.35594  -0.35331  -0.34911
 Alpha  occ. eigenvalues --   -0.34883  -0.34446  -0.34373  -0.34208  -0.34132
 Alpha  occ. eigenvalues --   -0.34050  -0.33948  -0.33852  -0.33782  -0.33645
 Alpha  occ. eigenvalues --   -0.33522  -0.33408  -0.33275  -0.32981  -0.32801
 Alpha  occ. eigenvalues --   -0.32499  -0.32021  -0.31970  -0.31709  -0.31336
 Alpha  occ. eigenvalues --   -0.31203  -0.30938  -0.30357  -0.29785  -0.29573
 Alpha  occ. eigenvalues --   -0.29451  -0.29257  -0.29188  -0.28934  -0.28843
 Alpha  occ. eigenvalues --   -0.28651  -0.28383  -0.27941  -0.27867  -0.27176
 Alpha  occ. eigenvalues --   -0.26933  -0.26909  -0.26436  -0.26044  -0.25403
 Alpha  occ. eigenvalues --   -0.24678  -0.24634  -0.24234  -0.24153  -0.24043
 Alpha  occ. eigenvalues --   -0.23938  -0.23711  -0.23706  -0.23411  -0.22501
 Alpha  occ. eigenvalues --   -0.22484  -0.22102  -0.22070  -0.21786  -0.21727
 Alpha  occ. eigenvalues --   -0.21696  -0.21018  -0.20917  -0.20488  -0.20022
 Alpha  occ. eigenvalues --   -0.18426  -0.17327  -0.16627  -0.16495  -0.14378
 Alpha  occ. eigenvalues --   -0.13684  -0.13608  -0.11484
 Alpha virt. eigenvalues --   -0.10413  -0.04652  -0.03975  -0.03284  -0.02279
 Alpha virt. eigenvalues --   -0.01525  -0.01256  -0.00663  -0.00549  -0.00316
 Alpha virt. eigenvalues --    0.00456   0.00865   0.01599   0.01999   0.02462

 Mulliken charges:
               1
     1  C    0.054182
     2  C    0.017238
     3  O   -0.328567
     4  H    0.032929
     5  H    0.016103
     6  H    0.009711
     7  N   -0.118090
     8  C    0.119884
     9  C    0.055564
    10  O   -0.296631
    11  C    0.065039
    12  C    0.032994
    13  O   -0.396804
    14  O   -0.393034
    15  H    0.115846
    16  H   -0.013712
    17  H   -0.011393
    18  H   -0.021987
    19  N   -0.112244
    20  C    0.113265
    21  C    0.060345
    22  O   -0.288986
    23  C    0.121242
    24  C   -0.051629
    25  C   -0.021340
    26  C   -0.002353
    27  N    0.109426
    28  H    0.119747
    29  H   -0.001801
    30  H    0.010103
    31  H    0.014510
    32  H    0.007831
    33  H    0.004961
    34  H    0.022290
    35  H    0.047871
    36  H    0.077718
    37  H    0.083595
    38  H    0.178446
    39  H    0.171348
    40  H    0.178309
    41  N   -0.094792
    42  C    0.099683
    43  C    0.089750
    44  O   -0.279955
    45  C    0.174934
    46  C    0.040797
    47  O   -0.473696
    48  O   -0.353343
    49  H    0.165246
    50  H   -0.009597
    51  H   -0.021644
    52  H   -0.003268
    53  N   -0.131923
    54  C    0.247645
    55  C    0.081001
    56  O   -0.390984
    57  H    0.118424
    58  H    0.029468
    59  H    0.044044
    60  N   -0.138683
    61  C    0.048347
    62  C    0.077665
    63  O   -0.273789
    64  C    0.198492
    65  C   -0.021268
    66  N   -0.001671
    67  O   -0.307986
    68  H    0.115944
    69  H    0.044139
    70  H    0.043202
    71  H   -0.004994
    72  H    0.127267
    73  H    0.162901
    74  N   -0.144946
    75  C    0.235693
    76  C    0.023552
    77  O   -0.286354
    78  H    0.115431
    79  H    0.016141
    80  H    0.040273
    81  N   -0.108813
    82  C    0.057114
    83  C    0.096971
    84  O   -0.289892
    85  C    0.144178
    86  C   -0.003156
    87  C    0.028247
    88  C    0.002719
    89  C   -0.017101
    90  C   -0.061527
    91  C    0.155811
    92  O   -0.184597
    93  H    0.132776
    94  H    0.019867
    95  H   -0.008035
    96  H    0.024150
    97  H   -0.046045
    98  H   -0.027688
    99  H   -0.024944
   100  H   -0.035687
   101  H    0.173272
   102  N   -0.108446
   103  C    0.188252
   104  C    0.030467
   105  O   -0.275911
   106  C   -0.088178
   107  C    0.010113
   108  C    0.097110
   109  C    0.025811
   110  H    0.141858
   111  H   -0.000452
   112  H   -0.014669
   113  H   -0.016819
   114  H   -0.000078
   115  H   -0.002332
   116  H   -0.061236
   117  H    0.050238
   118  H   -0.002929
   119  H   -0.008308
   120  H    0.014220
   121  N   -0.131457
   122  C    0.040868
   123  C    0.067991
   124  O   -0.264647
   125  C    0.254462
   126  O   -0.296066
   127  H    0.139453
   128  H    0.022403
   129  H    0.005683
   130  H    0.022066
   131  H    0.150984
   132  N   -0.156255
   133  C    0.058995
   134  C    0.054330
   135  O   -0.279475
   136  C    0.102466
   137  H    0.124723
   138  H    0.027679
   139  H    0.014802
   140  H   -0.015656
   141  H    0.034869
   142  N   -0.133485
   143  C    0.075399
   144  C    0.080400
   145  O   -0.261226
   146  C    0.071284
   147  H    0.150809
   148  H   -0.007148
   149  H    0.018217
   150  H    0.023915
   151  H    0.020925
   152  N   -0.142067
   153  C    0.068299
   154  C    0.074151
   155  O   -0.257490
   156  C    0.066463
   157  C    0.085252
   158  C    0.096351
   159  O   -0.414526
   160  O   -0.446631
   161  H    0.124143
   162  H   -0.004942
   163  H    0.029407
   164  H    0.019912
   165  H   -0.046663
   166  H   -0.018490
   167  N   -0.149032
   168  C    0.130098
   169  H    0.020313
   170  H    0.010111
   171  H    0.033942
   172  H    0.110717
   173  Ca   1.330768
   174  O   -0.300908
   175  H    0.178312
   176  H    0.195795
 Sum of Mulliken charges =  -0.00000

 Dipole moment (field-independent basis, Debye):
    X=             28.9776    Y=              8.5263    Z=              0.3140  Tot=             30.2075
 Quadrupole moment (field-independent basis, Debye-Ang):
   XX=              8.9046   YY=           -645.8312   ZZ=           -429.8007
   XY=            -80.5927   XZ=            135.1998   YZ=            -14.3491

 ESP charges:
               1
     1  C   -0.449803
     2  C    0.805827
     3  O   -0.639148
     4  H    0.115813
     5  H    0.102488
     6  H    0.109679
     7  N   -0.711032
     8  C    0.354868
     9  C    0.416147
    10  O   -0.517173
    11  C   -0.342612
    12  C    0.745151
    13  O   -0.709876
    14  O   -0.731346
    15  H    0.345424
    16  H    0.002811
    17  H    0.081867
    18  H    0.071395
    19  N   -0.468391
    20  C    0.038113
    21  C    0.560547
    22  O   -0.555346
    23  C   -0.024098
    24  C   -0.125302
    25  C    0.041388
    26  C    0.023800
    27  N   -0.254812
    28  H    0.285192
    29  H    0.088128
    30  H    0.040955
    31  H    0.065889
    32  H    0.052597
    33  H    0.033405
    34  H    0.008703
    35  H    0.049026
    36  H    0.078707
    37  H    0.086004
    38  H    0.295010
    39  H    0.287326
    40  H    0.273529
    41  N   -0.526338
    42  C    0.174259
    43  C    0.433759
    44  O   -0.453461
    45  C   -0.325223
    46  C    0.810080
    47  O   -0.866808
    48  O   -0.677860
    49  H    0.383127
    50  H    0.037231
    51  H    0.093442
    52  H    0.115167
    53  N   -0.348554
    54  C   -0.177495
    55  C    0.407156
    56  O   -0.505689
    57  H    0.288473
    58  H    0.135011
    59  H    0.159876
    60  N   -0.251867
    61  C   -0.154377
    62  C    0.671099
    63  O   -0.524074
    64  C   -0.236761
    65  C    0.763253
    66  N   -0.953982
    67  O   -0.589941
    68  H    0.183397
    69  H    0.123188
    70  H    0.100058
    71  H    0.113626
    72  H    0.409293
    73  H    0.489653
    74  N   -0.504995
    75  C   -0.234627
    76  C    0.784630
    77  O   -0.588770
    78  H    0.368259
    79  H    0.128251
    80  H    0.137147
    81  N   -0.902198
    82  C    0.552020
    83  C    0.169049
    84  O   -0.448484
    85  C   -0.068090
    86  C   -0.011179
    87  C   -0.216095
    88  C   -0.065797
    89  C   -0.180719
    90  C   -0.334297
    91  C    0.365346
    92  O   -0.531691
    93  H    0.403242
    94  H    0.025442
    95  H    0.044566
    96  H    0.033727
    97  H    0.130884
    98  H    0.117794
    99  H    0.139144
   100  H    0.138982
   101  H    0.400467
   102  N   -0.268386
   103  C   -0.324740
   104  C    0.552619
   105  O   -0.491372
   106  C    0.169798
   107  C    0.298500
   108  C   -0.672264
   109  C   -0.394719
   110  H    0.306399
   111  H    0.176558
   112  H    0.031641
   113  H   -0.054199
   114  H   -0.038956
   115  H    0.163439
   116  H    0.225641
   117  H    0.157530
   118  H    0.074665
   119  H    0.153425
   120  H    0.082319
   121  N   -0.207313
   122  C   -0.305003
   123  C    0.478337
   124  O   -0.487150
   125  C    0.354276
   126  O   -0.599796
   127  H    0.229913
   128  H    0.165742
   129  H    0.047398
   130  H   -0.003123
   131  H    0.370667
   132  N   -0.540945
   133  C    0.467626
   134  C    0.298002
   135  O   -0.515534
   136  C   -0.350905
   137  H    0.274977
   138  H   -0.025263
   139  H    0.080983
   140  H    0.062807
   141  H    0.128155
   142  N   -0.217914
   143  C    0.581717
   144  C    0.252806
   145  O   -0.411708
   146  C   -0.339065
   147  H    0.013996
   148  H   -0.087388
   149  H    0.077701
   150  H    0.068317
   151  H    0.096075
   152  N   -0.361697
   153  C   -0.393264
   154  C    0.574470
   155  O   -0.512005
   156  C    0.305033
   157  C    0.109985
   158  C    0.569482
   159  O   -0.703599
   160  O   -0.768687
   161  H    0.290577
   162  H    0.117717
   163  H   -0.032834
   164  H    0.009060
   165  H   -0.030930
   166  H   -0.036953
   167  N   -0.324058
   168  C   -0.091049
   169  H    0.072843
   170  H    0.056438
   171  H    0.076109
   172  H    0.255890
   173  Ca   1.603713
   174  O   -0.831044
   175  H    0.407342
   176  H    0.449595
 Sum of ESP charges =   0.00000

 Normal termination of Gaussian 16 at Tue Sep 17 10:17:03 2019.
