 Gaussian 16, Revision A.03,
 Gaussian 16:  ES64L-G16RevA.03 25-Dec-2016

 ----------------------------------------------------------------------
 #b3lyp/svp scf=(tight,noincore) Test #IOP(5/87=12) Density=Current Pop
 =(MK,readradii) iop(6/33=2) iop(6/42=6)
 ----------------------------------------------------------------------

 -----------------
 Ng-293_loop3_25.0
 -----------------
 Symbolic Z-matrix:
 Charge =  0 Multiplicity = 1

                         Standard orientation:
 ---------------------------------------------------------------------
 Center     Atomic      Atomic             Coordinates (Angstroms)
 Number     Number       Type             X           Y           Z
 ---------------------------------------------------------------------
      1          6           0       -6.628065   -5.126012    6.948085
      2          6           0       -7.340350   -4.711839    5.668237
      3          8           0       -8.523790   -4.390376    5.757300
      4          1           0       -7.358421   -5.240861    7.748730
      5          1           0       -6.113866   -6.073290    6.787962
      6          1           0       -5.902905   -4.360988    7.224931
      7          7           0       -6.663570   -4.810417    4.517562
      8          6           0       -7.171559   -4.816723    3.157339
      9          6           0       -6.436068   -3.793654    2.299853
     10          8           0       -5.297384   -3.402141    2.530104
     11          6           0       -7.234245   -6.295570    2.788039
     12          6           0       -7.908619   -6.614794    1.462439
     13          8           0       -7.741525   -7.734555    0.937069
     14          8           0       -8.593218   -5.805531    0.807520
     15          1           0       -5.677546   -5.002507    4.545074
     16          1           0       -8.215262   -4.507757    3.221549
     17          1           0       -7.857829   -6.735111    3.570885
     18          1           0       -6.316451   -6.823156    3.031160
     19          7           0       -7.131049   -3.336911    1.256835
     20          6           0       -6.751049   -2.362721    0.247898
     21          6           0       -5.572852   -2.840977   -0.584461
     22          8           0       -4.931185   -3.831104   -0.257026
     23          6           0       -6.419387   -0.990677    0.823220
     24          6           0       -7.658625   -0.297418    1.393381
     25          6           0       -7.427282    1.091650    1.975506
     26          6           0       -6.681432    2.097301    1.108572
     27          7           0       -7.415026    2.325255   -0.137091
     28          1           0       -7.959723   -3.870343    1.014242
     29          1           0       -7.624648   -2.340195   -0.402116
     30          1           0       -5.924367   -0.371439    0.076160
     31          1           0       -5.658362   -1.059068    1.603709
     32          1           0       -8.184122   -0.876987    2.150317
     33          1           0       -8.347744   -0.104727    0.568406
     34          1           0       -7.002357    0.846021    2.947105
     35          1           0       -8.409031    1.488305    2.263485
     36          1           0       -5.701040    1.685005    0.869106
     37          1           0       -6.405747    2.982563    1.694411
     38          1           0       -7.539902    1.476621   -0.678041
     39          1           0       -8.387469    2.595251   -0.071083
     40          1           0       -6.880957    2.905700   -0.769827
     41          7           0       -5.411591   -2.098866   -1.680529
     42          6           0       -4.226479   -2.225079   -2.498135
     43          6           0       -2.888914   -1.927200   -1.834896
     44          8           0       -2.832597   -1.047877   -0.970592
     45          6           0       -4.323773   -1.256665   -3.681017
     46          6           0       -4.438076    0.235707   -3.456603
     47          8           0       -3.415171    0.953943   -3.458186
     48          8           0       -5.587124    0.737782   -3.429963
     49          1           0       -6.203982   -1.495209   -1.852326
     50          1           0       -4.193173   -3.225206   -2.914473
     51          1           0       -5.149331   -1.500696   -4.337297
     52          1           0       -3.426896   -1.400201   -4.295840
     53          7           0       -1.848411   -2.525571   -2.427438
     54          6           0       -0.430240   -2.412167   -2.171839
     55          6           0        0.430801   -3.551494   -2.704703
     56          8           0       -0.037151   -4.637979   -3.035115
     57          1           0       -2.071457   -3.098512   -3.224426
     58          1           0       -0.342420   -2.340067   -1.086626
     59          1           0        0.002429   -1.496213   -2.581748
     60          7           0        1.733728   -3.260874   -2.828068
     61          6           0        2.826185   -4.198202   -2.982193
     62          6           0        4.151466   -3.671157   -2.426807
     63          8           0        4.338158   -2.462879   -2.491691
     64          6           0        3.010070   -4.520434   -4.462008
     65          6           0        4.042154   -5.566248   -4.852746
     66          7           0        3.649806   -6.719534   -5.400464
     67          8           0        5.233062   -5.295766   -4.754874
     68          1           0        2.052935   -2.323537   -2.671524
     69          1           0        2.567559   -5.103055   -2.444278
     70          1           0        3.213465   -3.606844   -5.013082
     71          1           0        2.049266   -4.778545   -4.901932
     72          1           0        2.644321   -6.809214   -5.480201
     73          1           0        4.327398   -7.433026   -5.617714
     74          7           0        5.016630   -4.530535   -1.894301
     75          6           0        6.285275   -4.186253   -1.275747
     76          6           0        6.166820   -3.209966   -0.115043
     77          8           0        5.089800   -3.030781    0.458821
     78          1           0        4.720450   -5.495902   -1.846924
     79          1           0        7.012783   -3.878206   -2.019748
     80          1           0        6.724507   -5.104566   -0.879293
     81          7           0        7.202493   -2.384267    0.037934
     82          6           0        7.340975   -1.301962    0.988533
     83          6           0        6.240047   -0.247437    0.959647
     84          8           0        6.166603    0.622584    1.815258
     85          6           0        7.580140   -1.849593    2.387318
     86          6           0        8.774198   -2.750613    2.552817
     87          6           0        8.833361   -4.096704    2.178198
     88          6           0        9.997548   -2.107867    2.814905
     89          6           0       10.017152   -4.842761    2.216098
     90          6           0       11.184624   -2.835855    3.003015
     91          6           0       11.149753   -4.229263    2.771289
     92          8           0       12.326631   -4.899015    2.957276
     93          1           0        7.994962   -2.518762   -0.581021
     94          1           0        8.180820   -0.737002    0.581987
     95          1           0        6.703763   -2.366451    2.781554
     96          1           0        7.767230   -0.968554    3.000235
     97          1           0        7.865658   -4.531623    1.961413
     98          1           0       10.095945   -1.056446    3.016479
     99          1           0        9.951352   -5.889980    1.926095
    100          1           0       12.034959   -2.326624    3.419805
    101          1           0       12.937141   -4.416170    3.519627
    102          7           0        5.393895   -0.318463   -0.080489
    103          6           0        4.211661    0.465208   -0.365943
    104          6           0        4.467281    1.900292   -0.805137
    105          8           0        3.773021    2.404110   -1.690728
    106          6           0        3.232243    0.303408    0.795376
    107          6           0        2.912951   -1.083622    1.351346
    108          6           0        1.928650    1.057305    0.558764
    109          6           0        2.260099   -1.954623    0.283385
    110          1           0        5.463165   -1.139305   -0.650330
    111          1           0        3.786987   -0.046005   -1.233188
    112          1           0        3.691423    0.860191    1.616440
    113          1           0        2.143065   -0.904280    2.102886
    114          1           0        3.779351   -1.558672    1.822280
    115          1           0        2.050296    2.122762    0.421277
    116          1           0        1.449290    0.600027   -0.309113
    117          1           0        1.228351    0.866755    1.380574
    118          1           0        2.855007   -1.960998   -0.629602
    119          1           0        2.276525   -2.954619    0.705567
    120          1           0        1.292805   -1.508369    0.072434
    121          7           0        5.418711    2.595963   -0.187299
    122          6           0        6.010515    3.858445   -0.617075
    123          6           0        5.176929    5.098924   -0.314677
    124          8           0        4.887751    5.870496   -1.218033
    125          6           0        7.445283    3.928404   -0.125601
    126          8           0        7.510016    4.027286    1.287103
    127          1           0        5.943287    2.228448    0.589073
    128          1           0        6.135763    3.817063   -1.694665
    129          1           0        7.866711    4.773884   -0.671917
    130          1           0        8.001071    3.043840   -0.446765
    131          1           0        8.448015    4.062814    1.477353
    132          7           0        4.802971    5.226114    0.967072
    133          6           0        4.082656    6.325265    1.558945
    134          6           0        2.725994    6.665104    0.958547
    135          8           0        2.293722    7.818641    1.046264
    136          6           0        5.039373    7.510596    1.734963
    137          1           0        5.319197    4.607110    1.573492
    138          1           0        3.715717    6.046401    2.549193
    139          1           0        4.591631    8.486447    1.921618
    140          1           0        5.579549    7.360959    2.666531
    141          1           0        5.719883    7.571386    0.887253
    142          7           0        2.074546    5.692925    0.311491
    143          6           0        0.785929    5.878999   -0.311842
    144          6           0       -0.386131    5.784806    0.661812
    145          8           0       -0.354190    4.845675    1.454474
    146          6           0        0.668694    4.845993   -1.425285
    147          1           0        2.512651    4.781567    0.291711
    148          1           0        0.809304    6.887902   -0.727977
    149          1           0        0.726502    3.834107   -1.009900
    150          1           0       -0.246009    5.000361   -1.982410
    151          1           0        1.528212    5.033231   -2.066433
    152          7           0       -1.448142    6.546170    0.411697
    153          6           0       -2.843301    6.365172    0.782199
    154          6           0       -3.044237    6.316342    2.292378
    155          8           0       -4.113509    5.902906    2.728986
    156          6           0       -3.433540    5.277842   -0.114645
    157          6           0       -4.926417    5.358696   -0.429260
    158          6           0       -5.209307    4.547232   -1.688227
    159          8           0       -5.480392    5.176052   -2.731922
    160          8           0       -5.231455    3.299602   -1.656160
    161          1           0       -1.251454    7.324394   -0.193514
    162          1           0       -3.312405    7.291096    0.455385
    163          1           0       -3.115835    4.308408    0.263986
    164          1           0       -2.920750    5.458518   -1.060321
    165          1           0       -5.217281    6.402306   -0.597707
    166          1           0       -5.447003    4.952258    0.437227
    167          7           0       -2.098448    6.732772    3.143653
    168          6           0       -1.980380    6.314259    4.520899
    169          1           0       -2.915820    6.517733    5.043275
    170          1           0       -1.767869    5.245869    4.560226
    171          1           0       -1.169624    6.863815    4.999878
    172          1           0       -1.288367    7.189772    2.744753
    173         20           0       -5.441396    3.190836   -4.479862
    174          8           0       -7.873883    2.885152   -3.630294
    175          1           0       -8.429965    3.124684   -4.374604
    176          1           0       -8.491703    2.784515   -2.904987
 ---------------------------------------------------------------------

 SCF Done:  E(RB3LYP) =  -5333.36720682     A.U. after   50 cycles

 The electronic state is 1-A.
 Alpha  occ. eigenvalues -- -145.47305 -19.23941 -19.16948 -19.16219 -19.12308
 Alpha  occ. eigenvalues --  -19.12060 -19.11068 -19.10859 -19.10827 -19.10376
 Alpha  occ. eigenvalues --  -19.10041 -19.09453 -19.09283 -19.09113 -19.08723
 Alpha  occ. eigenvalues --  -19.08460 -19.07277 -19.06998 -19.06744 -19.05649
 Alpha  occ. eigenvalues --  -19.05143 -19.04744 -19.01595 -19.01065 -15.53262
 Alpha  occ. eigenvalues --  -14.51502 -14.38537 -14.38435 -14.36783 -14.36428
 Alpha  occ. eigenvalues --  -14.36160 -14.35418 -14.34915 -14.34641 -14.34554
 Alpha  occ. eigenvalues --  -14.34225 -14.34223 -14.33523 -14.30895 -14.30480
 Alpha  occ. eigenvalues --  -12.66854 -12.66806 -12.66792 -10.31101 -10.30781
 Alpha  occ. eigenvalues --  -10.29554 -10.29500 -10.29398 -10.29366 -10.29207
 Alpha  occ. eigenvalues --  -10.28143 -10.28041 -10.27863 -10.27670 -10.27322
 Alpha  occ. eigenvalues --  -10.26641 -10.26345 -10.26291 -10.25812 -10.25724
 Alpha  occ. eigenvalues --  -10.25671 -10.25428 -10.24980 -10.24799 -10.24194
 Alpha  occ. eigenvalues --  -10.23908 -10.23344 -10.23269 -10.22750 -10.22745
 Alpha  occ. eigenvalues --  -10.22605 -10.22256 -10.22188 -10.21640 -10.21624
 Alpha  occ. eigenvalues --  -10.20869 -10.20854 -10.20643 -10.20511 -10.20288
 Alpha  occ. eigenvalues --  -10.20167 -10.20159 -10.20157 -10.20036 -10.20006
 Alpha  occ. eigenvalues --  -10.19690 -10.18769 -10.18692 -10.17938 -10.17784
 Alpha  occ. eigenvalues --  -10.17248 -10.16895 -10.15657 -10.15650 -10.15393
 Alpha  occ. eigenvalues --  -10.15197 -10.13862  -1.90020  -1.17578  -1.17187
 Alpha  occ. eigenvalues --   -1.16948  -1.10077  -1.07362  -1.06025  -1.05856
 Alpha  occ. eigenvalues --   -1.05668  -1.04981  -1.04437  -1.03797  -1.03335
 Alpha  occ. eigenvalues --   -1.03109  -1.02960  -1.02496  -1.01934  -1.01377
 Alpha  occ. eigenvalues --   -1.00992  -1.00821  -1.00275  -0.99276  -0.98132
 Alpha  occ. eigenvalues --   -0.97298  -0.96092  -0.95555  -0.95460  -0.94680
 Alpha  occ. eigenvalues --   -0.93620  -0.93255  -0.92903  -0.92424  -0.91363
 Alpha  occ. eigenvalues --   -0.91353  -0.90812  -0.90708  -0.90692  -0.90655
 Alpha  occ. eigenvalues --   -0.90449  -0.88215  -0.87927  -0.86267  -0.84772
 Alpha  occ. eigenvalues --   -0.84109  -0.81497  -0.80722  -0.80430  -0.79691
 Alpha  occ. eigenvalues --   -0.78776  -0.78553  -0.77155  -0.76905  -0.76632
 Alpha  occ. eigenvalues --   -0.75677  -0.75235  -0.74346  -0.74249  -0.73675
 Alpha  occ. eigenvalues --   -0.73201  -0.72364  -0.72253  -0.70043  -0.69188
 Alpha  occ. eigenvalues --   -0.69037  -0.68597  -0.67905  -0.67254  -0.66479
 Alpha  occ. eigenvalues --   -0.65584  -0.65179  -0.64715  -0.64170  -0.63984
 Alpha  occ. eigenvalues --   -0.63573  -0.63318  -0.62806  -0.62533  -0.62005
 Alpha  occ. eigenvalues --   -0.61725  -0.61510  -0.61127  -0.60711  -0.60370
 Alpha  occ. eigenvalues --   -0.60086  -0.59797  -0.59630  -0.58886  -0.58772
 Alpha  occ. eigenvalues --   -0.58311  -0.57397  -0.57342  -0.57040  -0.56902
 Alpha  occ. eigenvalues --   -0.56468  -0.56368  -0.56242  -0.56092  -0.55978
 Alpha  occ. eigenvalues --   -0.54964  -0.54650  -0.54247  -0.53858  -0.53605
 Alpha  occ. eigenvalues --   -0.53077  -0.52658  -0.52275  -0.51922  -0.51737
 Alpha  occ. eigenvalues --   -0.51444  -0.50862  -0.50668  -0.50540  -0.50412
 Alpha  occ. eigenvalues --   -0.50140  -0.49796  -0.49459  -0.49235  -0.49080
 Alpha  occ. eigenvalues --   -0.48759  -0.48453  -0.48391  -0.48140  -0.48010
 Alpha  occ. eigenvalues --   -0.47698  -0.47299  -0.47092  -0.46874  -0.46551
 Alpha  occ. eigenvalues --   -0.46321  -0.46116  -0.46095  -0.45986  -0.45719
 Alpha  occ. eigenvalues --   -0.45639  -0.45420  -0.45346  -0.45085  -0.45031
 Alpha  occ. eigenvalues --   -0.44967  -0.44723  -0.44593  -0.44280  -0.44144
 Alpha  occ. eigenvalues --   -0.44005  -0.43675  -0.43565  -0.43423  -0.43287
 Alpha  occ. eigenvalues --   -0.43093  -0.42890  -0.42670  -0.42511  -0.42387
 Alpha  occ. eigenvalues --   -0.42094  -0.42016  -0.41887  -0.41676  -0.41509
 Alpha  occ. eigenvalues --   -0.41451  -0.41347  -0.41267  -0.41146  -0.41123
 Alpha  occ. eigenvalues --   -0.40863  -0.40794  -0.40663  -0.40599  -0.40402
 Alpha  occ. eigenvalues --   -0.40171  -0.39989  -0.39876  -0.39775  -0.39737
 Alpha  occ. eigenvalues --   -0.39683  -0.39515  -0.39140  -0.39017  -0.38882
 Alpha  occ. eigenvalues --   -0.38813  -0.38718  -0.38582  -0.38385  -0.38214
 Alpha  occ. eigenvalues --   -0.38167  -0.37856  -0.37689  -0.37656  -0.37508
 Alpha  occ. eigenvalues --   -0.37439  -0.37349  -0.37217  -0.37124  -0.36738
 Alpha  occ. eigenvalues --   -0.36525  -0.36389  -0.36185  -0.36145  -0.36010
 Alpha  occ. eigenvalues --   -0.35975  -0.35874  -0.35773  -0.35570  -0.35414
 Alpha  occ. eigenvalues --   -0.35292  -0.35200  -0.34942  -0.34765  -0.34629
 Alpha  occ. eigenvalues --   -0.34487  -0.34013  -0.33974  -0.33897  -0.33539
 Alpha  occ. eigenvalues --   -0.33155  -0.32885  -0.32454  -0.32030  -0.30984
 Alpha  occ. eigenvalues --   -0.30630  -0.30554  -0.30331  -0.29742  -0.29178
 Alpha  occ. eigenvalues --   -0.29166  -0.29086  -0.29015  -0.28686  -0.28251
 Alpha  occ. eigenvalues --   -0.27765  -0.27436  -0.27147  -0.27024  -0.26987
 Alpha  occ. eigenvalues --   -0.26911  -0.26575  -0.26544  -0.26192  -0.25996
 Alpha  occ. eigenvalues --   -0.25879  -0.25594  -0.25124  -0.24998  -0.24631
 Alpha  occ. eigenvalues --   -0.24437  -0.24219  -0.24120  -0.23948  -0.23693
 Alpha  occ. eigenvalues --   -0.23611  -0.23553  -0.23541  -0.23418  -0.22580
 Alpha  occ. eigenvalues --   -0.22480  -0.21433  -0.21168  -0.20619  -0.20055
 Alpha  occ. eigenvalues --   -0.18476  -0.17745  -0.14302
 Alpha virt. eigenvalues --   -0.13438  -0.07379  -0.03078  -0.02823  -0.01826
 Alpha virt. eigenvalues --   -0.01548  -0.00791   0.00084   0.00223   0.00330
 Alpha virt. eigenvalues --    0.00499   0.00685   0.01415   0.01492   0.01589

 Mulliken charges:
               1
     1  C    0.044089
     2  C    0.018816
     3  O   -0.295320
     4  H    0.023848
     5  H    0.012998
     6  H    0.022780
     7  N   -0.142287
     8  C    0.096763
     9  C    0.104679
    10  O   -0.274005
    11  C    0.059944
    12  C    0.099548
    13  O   -0.283791
    14  O   -0.331991
    15  H    0.109831
    16  H    0.004810
    17  H    0.011208
    18  H   -0.016752
    19  N   -0.133516
    20  C    0.089282
    21  C    0.089580
    22  O   -0.223552
    23  C    0.028751
    24  C    0.007946
    25  C   -0.028471
    26  C    0.050856
    27  N    0.077119
    28  H    0.115904
    29  H   -0.015551
    30  H   -0.002473
    31  H    0.036711
    32  H    0.038794
    33  H   -0.067721
    34  H    0.048091
    35  H    0.002804
    36  H    0.101649
    37  H    0.093680
    38  H    0.166546
    39  H    0.153993
    40  H    0.150617
    41  N   -0.120647
    42  C    0.118254
    43  C    0.099577
    44  O   -0.272351
    45  C    0.102213
    46  C    0.091888
    47  O   -0.360087
    48  O   -0.478688
    49  H    0.111636
    50  H   -0.003190
    51  H   -0.006578
    52  H   -0.016169
    53  N   -0.139403
    54  C    0.195410
    55  C    0.038170
    56  O   -0.272756
    57  H    0.118236
    58  H    0.070942
    59  H    0.023612
    60  N   -0.125872
    61  C    0.082122
    62  C    0.116465
    63  O   -0.294248
    64  C    0.126263
    65  C   -0.044547
    66  N   -0.026921
    67  O   -0.273510
    68  H    0.133019
    69  H    0.003387
    70  H    0.023226
    71  H   -0.005433
    72  H    0.129754
    73  H    0.132291
    74  N   -0.084733
    75  C    0.202713
    76  C    0.042534
    77  O   -0.265603
    78  H    0.128353
    79  H    0.030441
    80  H    0.026285
    81  N   -0.158414
    82  C    0.126565
    83  C    0.069868
    84  O   -0.292219
    85  C    0.164622
    86  C   -0.017235
    87  C   -0.044997
    88  C   -0.042050
    89  C   -0.008107
    90  C   -0.038477
    91  C    0.187324
    92  O   -0.209829
    93  H    0.130342
    94  H    0.004151
    95  H    0.019423
    96  H    0.008264
    97  H   -0.018606
    98  H   -0.030887
    99  H   -0.016314
   100  H   -0.038088
   101  H    0.177752
   102  N   -0.106960
   103  C    0.175077
   104  C    0.056330
   105  O   -0.275310
   106  C   -0.148925
   107  C    0.052994
   108  C    0.064832
   109  C   -0.011660
   110  H    0.124777
   111  H    0.005505
   112  H   -0.008199
   113  H   -0.009298
   114  H    0.011638
   115  H    0.015849
   116  H    0.001060
   117  H    0.009421
   118  H   -0.004764
   119  H    0.009669
   120  H    0.018329
   121  N   -0.123790
   122  C    0.083186
   123  C    0.072910
   124  O   -0.246054
   125  C    0.191362
   126  O   -0.297486
   127  H    0.131055
   128  H    0.006613
   129  H    0.011984
   130  H   -0.001796
   131  H    0.169966
   132  N   -0.137448
   133  C    0.070996
   134  C    0.055184
   135  O   -0.294381
   136  C    0.078887
   137  H    0.128187
   138  H    0.025965
   139  H    0.019179
   140  H   -0.014026
   141  H    0.026196
   142  N   -0.120033
   143  C    0.074071
   144  C    0.064092
   145  O   -0.281714
   146  C    0.056017
   147  H    0.141647
   148  H   -0.016089
   149  H    0.045635
   150  H   -0.000947
   151  H    0.049467
   152  N   -0.145832
   153  C    0.122264
   154  C    0.056203
   155  O   -0.285395
   156  C    0.012435
   157  C    0.145709
   158  C    0.063334
   159  O   -0.425781
   160  O   -0.406543
   161  H    0.123069
   162  H    0.001985
   163  H    0.047360
   164  H   -0.003479
   165  H   -0.009037
   166  H   -0.013945
   167  N   -0.131835
   168  C    0.136529
   169  H    0.029423
   170  H    0.035338
   171  H    0.015943
   172  H    0.121026
   173  Ca   1.125852
   174  O   -0.278867
   175  H    0.173534
   176  H    0.166157
 Sum of Mulliken charges =  -0.00000

 Dipole moment (field-independent basis, Debye):
    X=              9.1712    Y=             18.9060    Z=            -14.0024  Tot=             25.2510
 Quadrupole moment (field-independent basis, Debye-Ang):
   XX=           -424.0971   YY=           -644.9698   ZZ=           -499.6194
   XY=           -255.0934   XZ=            141.0623   YZ=             13.6703

 ESP charges:
               1
     1  C   -0.432700
     2  C    0.811840
     3  O   -0.599366
     4  H    0.111740
     5  H    0.106800
     6  H    0.098973
     7  N   -0.813495
     8  C    0.459604
     9  C    0.551169
    10  O   -0.545720
    11  C   -0.369834
    12  C    0.695336
    13  O   -0.563262
    14  O   -0.602332
    15  H    0.343792
    16  H   -0.019268
    17  H    0.118406
    18  H    0.099461
    19  N   -0.690719
    20  C    0.566877
    21  C    0.432284
    22  O   -0.460119
    23  C   -0.413927
    24  C    0.234557
    25  C   -0.117913
    26  C   -0.162973
    27  N   -0.008179
    28  H    0.274326
    29  H   -0.031318
    30  H    0.052161
    31  H    0.145115
    32  H    0.016791
    33  H   -0.140032
    34  H    0.086783
    35  H    0.019271
    36  H    0.168972
    37  H    0.126053
    38  H    0.306870
    39  H    0.239421
    40  H    0.150042
    41  N   -0.515954
    42  C    0.278535
    43  C    0.643720
    44  O   -0.517588
    45  C   -0.210331
    46  C    0.676720
    47  O   -0.631430
    48  O   -0.720929
    49  H    0.235022
    50  H   -0.007206
    51  H    0.043501
    52  H    0.030464
    53  N   -0.697771
    54  C    0.268976
    55  C    0.533395
    56  O   -0.523536
    57  H    0.315176
    58  H    0.031073
    59  H    0.018623
    60  N   -0.499007
    61  C    0.050812
    62  C    0.464697
    63  O   -0.445199
    64  C   -0.208799
    65  C    0.602202
    66  N   -0.777491
    67  O   -0.538215
    68  H    0.272192
    69  H    0.079925
    70  H    0.108247
    71  H    0.089447
    72  H    0.353391
    73  H    0.386090
    74  N   -0.358888
    75  C   -0.057328
    76  C    0.420977
    77  O   -0.425616
    78  H    0.286162
    79  H    0.088810
    80  H    0.101240
    81  N   -0.483201
    82  C    0.226908
    83  C    0.510761
    84  O   -0.529181
    85  C   -0.222429
    86  C    0.106509
    87  C   -0.266571
    88  C   -0.148910
    89  C   -0.188829
    90  C   -0.300399
    91  C    0.365439
    92  O   -0.550617
    93  H    0.302067
    94  H    0.047388
    95  H    0.131215
    96  H    0.053690
    97  H    0.162067
    98  H    0.133812
    99  H    0.150003
   100  H    0.149171
   101  H    0.405551
   102  N   -0.582763
   103  C   -0.010185
   104  C    0.682706
   105  O   -0.588937
   106  C    0.099260
   107  C    0.115369
   108  C   -0.348157
   109  C   -0.235852
   110  H    0.294593
   111  H    0.084433
   112  H    0.005653
   113  H   -0.008873
   114  H   -0.004339
   115  H    0.084570
   116  H    0.057538
   117  H    0.112895
   118  H    0.035414
   119  H    0.051298
   120  H    0.088128
   121  N   -0.392129
   122  C   -0.153789
   123  C    0.781860
   124  O   -0.572042
   125  C    0.168629
   126  O   -0.597011
   127  H    0.277282
   128  H    0.099667
   129  H    0.019482
   130  H    0.030586
   131  H    0.405947
   132  N   -0.718413
   133  C    0.436440
   134  C    0.487155
   135  O   -0.567162
   136  C   -0.325335
   137  H    0.349123
   138  H   -0.002659
   139  H    0.087259
   140  H    0.059782
   141  H    0.095843
   142  N   -0.456217
   143  C    0.284791
   144  C    0.534945
   145  O   -0.508553
   146  C   -0.435866
   147  H    0.217886
   148  H    0.029889
   149  H    0.165933
   150  H    0.083480
   151  H    0.156511
   152  N   -0.808370
   153  C    0.534321
   154  C    0.273500
   155  O   -0.474173
   156  C    0.124275
   157  C   -0.614756
   158  C    0.956245
   159  O   -0.750628
   160  O   -0.679684
   161  H    0.335382
   162  H   -0.034095
   163  H    0.030159
   164  H    0.027417
   165  H    0.141037
   166  H    0.096569
   167  N   -0.303251
   168  C   -0.105203
   169  H    0.074917
   170  H    0.099699
   171  H    0.078347
   172  H    0.270317
   173  Ca   1.197722
   174  O   -0.764498
   175  H    0.392556
   176  H    0.382092
 Sum of ESP charges =   0.00000

 Normal termination of Gaussian 16 at Tue Sep 17 00:35:48 2019.
