 Gaussian 16, Revision A.03,
 Gaussian 16:  ES64L-G16RevA.03 25-Dec-2016

 ----------------------------------------------------------------------
 #b3lyp/svp scf=(tight,noincore,xqc) Test #IOP(5/87=12) Density=Current
  Pop=(MK,readradii) iop(6/33=2) iop(6/42=6)
 ----------------------------------------------------------------------

 -----------------
 Ng-293_loop3_75.0
 -----------------
 Symbolic Z-matrix:
 Charge =  0 Multiplicity = 1

                         Standard orientation:
 ---------------------------------------------------------------------
 Center     Atomic      Atomic             Coordinates (Angstroms)
 Number     Number       Type             X           Y           Z
 ---------------------------------------------------------------------
      1          6           0       -8.356038    0.439222    7.125062
      2          6           0       -8.726133    0.388280    5.649414
      3          8           0       -8.975075    1.449258    5.093309
      4          1           0       -8.535421   -0.535511    7.577631
      5          1           0       -7.302140    0.698121    7.227355
      6          1           0       -8.965516    1.189852    7.627822
      7          7           0       -8.793232   -0.767390    4.982388
      8          6           0       -8.996262   -0.859761    3.556468
      9          6           0       -7.751989   -0.607163    2.715707
     10          8           0       -6.662477   -1.090169    3.006686
     11          6           0       -9.680107   -2.193078    3.297198
     12          6           0      -10.135343   -2.389418    1.857750
     13          8           0      -10.627675   -1.436401    1.220987
     14          8           0      -10.150426   -3.580367    1.475240
     15          1           0       -8.433615   -1.573852    5.481281
     16          1           0       -9.674469   -0.054753    3.272046
     17          1           0      -10.576264   -2.301719    3.918890
     18          1           0       -8.974905   -2.974954    3.558465
     19          7           0       -8.046069    0.018846    1.568786
     20          6           0       -7.186014    0.245765    0.422874
     21          6           0       -6.876815   -1.006758   -0.394549
     22          8           0       -7.083336   -2.141912    0.027204
     23          6           0       -5.944043    1.047968    0.767663
     24          6           0       -6.187825    2.411804    1.409786
     25          6           0       -6.914165    3.327664    0.424225
     26          6           0       -7.286891    4.600750    1.166538
     27          7           0       -8.304466    4.260588    2.180220
     28          1           0       -8.924128    0.486000    1.404836
     29          1           0       -7.693722    0.861628   -0.322476
     30          1           0       -5.278030    1.298614   -0.062519
     31          1           0       -5.258374    0.478756    1.400432
     32          1           0       -5.275745    2.858454    1.796458
     33          1           0       -6.820896    2.259534    2.281643
     34          1           0       -7.812185    2.877254    0.011320
     35          1           0       -6.251980    3.587538   -0.405519
     36          1           0       -7.693060    5.249332    0.390865
     37          1           0       -6.468986    5.099386    1.689696
     38          1           0       -8.947757    5.015270    2.347892
     39          1           0       -8.870684    3.499685    1.847827
     40          1           0       -7.856062    3.919362    3.013766
     41          7           0       -6.209943   -0.784477   -1.532781
     42          6           0       -5.609230   -1.865073   -2.283417
     43          6           0       -4.276392   -2.470909   -1.844433
     44          8           0       -4.028136   -3.657771   -2.066578
     45          6           0       -5.371439   -1.352379   -3.700844
     46          6           0       -4.957639    0.115319   -3.838080
     47          8           0       -5.860290    0.967762   -3.658741
     48          8           0       -3.810877    0.575434   -3.967203
     49          1           0       -6.006099    0.194122   -1.647641
     50          1           0       -6.288316   -2.715927   -2.392000
     51          1           0       -6.385211   -1.407565   -4.091383
     52          1           0       -4.644622   -1.934037   -4.272431
     53          7           0       -3.380381   -1.683076   -1.252247
     54          6           0       -2.305259   -2.229091   -0.444582
     55          6           0       -1.290819   -3.199652   -1.039581
     56          8           0       -0.599366   -3.932226   -0.339132
     57          1           0       -3.511608   -0.686197   -1.255782
     58          1           0       -2.672586   -2.790662    0.414121
     59          1           0       -1.733693   -1.440757    0.041508
     60          7           0       -1.087925   -3.291275   -2.358610
     61          6           0       -0.137269   -4.040281   -3.156008
     62          6           0        1.318275   -3.599284   -3.151979
     63          8           0        1.550822   -2.404703   -3.000329
     64          6           0       -0.686560   -4.189849   -4.576328
     65          6           0       -1.988714   -4.962570   -4.698387
     66          7           0       -3.165211   -4.388200   -4.934719
     67          8           0       -1.914957   -6.192379   -4.627468
     68          1           0       -1.487307   -2.492224   -2.820574
     69          1           0       -0.118917   -5.039266   -2.724741
     70          1           0        0.094036   -4.672411   -5.167602
     71          1           0       -0.714814   -3.254379   -5.125780
     72          1           0       -3.207470   -3.398426   -5.152577
     73          1           0       -4.032583   -4.904290   -4.837677
     74          7           0        2.214255   -4.588951   -3.238227
     75          6           0        3.629093   -4.415938   -2.966786
     76          6           0        4.040799   -3.986990   -1.557317
     77          8           0        3.232990   -3.334169   -0.909730
     78          1           0        1.860129   -5.521486   -3.352310
     79          1           0        3.971235   -3.604736   -3.597254
     80          1           0        4.197157   -5.268248   -3.333079
     81          7           0        5.285089   -4.227301   -1.145744
     82          6           0        5.986537   -4.050067    0.108193
     83          6           0        6.065631   -2.611277    0.622906
     84          8           0        7.189775   -2.201128    0.892121
     85          6           0        5.282265   -4.953636    1.118175
     86          6           0        5.849625   -5.055562    2.515606
     87          6           0        7.215286   -5.236998    2.747449
     88          6           0        4.932794   -5.247124    3.561983
     89          6           0        7.722510   -5.691438    3.968763
     90          6           0        5.413936   -5.702518    4.803763
     91          6           0        6.793117   -5.920110    5.002291
     92          8           0        7.206869   -6.390828    6.206340
     93          1           0        5.858224   -4.660624   -1.847633
     94          1           0        7.028098   -4.374178    0.057188
     95          1           0        5.196621   -5.980225    0.765782
     96          1           0        4.266702   -4.578241    1.229130
     97          1           0        7.946872   -5.155947    1.953841
     98          1           0        3.871548   -5.107976    3.456648
     99          1           0        8.775847   -5.859845    4.164775
    100          1           0        4.706642   -5.977852    5.565044
    101          1           0        6.531010   -6.529630    6.877227
    102          7           0        4.934773   -1.901207    0.666041
    103          6           0        4.749548   -0.523483    1.070723
    104          6           0        5.428735    0.637533    0.353473
    105          8           0        4.866820    1.687073    0.042964
    106          6           0        4.778077   -0.421342    2.592319
    107          6           0        4.047859   -1.559485    3.294952
    108          6           0        4.258494    0.909113    3.125725
    109          6           0        2.610278   -1.798424    2.843897
    110          1           0        4.116940   -2.434429    0.415472
    111          1           0        3.720539   -0.308252    0.785741
    112          1           0        5.808329   -0.529165    2.908317
    113          1           0        3.987742   -1.386185    4.369267
    114          1           0        4.630770   -2.443590    3.043330
    115          1           0        4.906986    1.732917    2.852036
    116          1           0        3.210191    0.987310    2.819546
    117          1           0        4.300945    0.864006    4.218457
    118          1           0        2.068712   -2.247079    3.682239
    119          1           0        2.047832   -0.921841    2.519771
    120          1           0        2.707602   -2.590165    2.110676
    121          7           0        6.675116    0.382992   -0.058212
    122          6           0        7.543623    1.173492   -0.903745
    123          6           0        7.780994    2.617244   -0.480268
    124          8           0        8.260695    3.427474   -1.257966
    125          6           0        8.888629    0.466278   -0.962129
    126          8           0        8.706862   -0.781302   -1.608059
    127          1           0        7.028760   -0.559576    0.059786
    128          1           0        7.057118    1.169785   -1.880576
    129          1           0        9.366410    0.283087   -0.005120
    130          1           0        9.504305    1.098645   -1.598773
    131          1           0        9.542609   -1.112576   -1.936824
    132          7           0        7.455697    2.953835    0.772365
    133          6           0        7.347903    4.267338    1.380222
    134          6           0        6.220177    5.126132    0.828890
    135          8           0        6.063446    6.290128    1.191035
    136          6           0        8.717929    4.912421    1.588205
    137          1           0        7.261226    2.152345    1.347165
    138          1           0        6.986065    4.037552    2.374240
    139          1           0        9.449159    4.171512    1.898718
    140          1           0        8.984726    5.487934    0.698787
    141          1           0        8.686095    5.584897    2.438418
    142          7           0        5.325740    4.655751   -0.045047
    143          6           0        4.318052    5.460912   -0.700472
    144          6           0        2.903506    5.293755   -0.179723
    145          8           0        2.614112    4.368694    0.570807
    146          6           0        4.432352    5.079626   -2.170321
    147          1           0        5.303668    3.656430   -0.188119
    148          1           0        4.555724    6.517667   -0.568254
    149          1           0        3.694784    5.697361   -2.680807
    150          1           0        5.465271    5.178359   -2.529754
    151          1           0        4.191070    4.034699   -2.354960
    152          7           0        1.964618    6.068271   -0.729846
    153          6           0        0.565723    6.076960   -0.352465
    154          6           0        0.204872    6.389409    1.098039
    155          8           0       -0.862526    6.115953    1.640905
    156          6           0       -0.178004    4.850209   -0.868752
    157          6           0        0.228705    4.336793   -2.250632
    158          6           0       -0.889721    3.441932   -2.759894
    159          8           0       -1.656367    3.710627   -3.704805
    160          8           0       -0.993571    2.311561   -2.226625
    161          1           0        2.344498    6.754795   -1.371777
    162          1           0        0.163756    6.992647   -0.782974
    163          1           0       -1.234456    5.105570   -0.869241
    164          1           0       -0.099789    4.025779   -0.167399
    165          1           0        1.196490    3.844814   -2.149395
    166          1           0        0.297750    5.279313   -2.783257
    167          7           0        1.220746    6.953465    1.744601
    168          6           0        1.167725    7.232217    3.170499
    169          1           0        0.227188    7.728081    3.408081
    170          1           0        1.235664    6.297721    3.726594
    171          1           0        1.999400    7.880551    3.445534
    172          1           0        2.116672    7.127968    1.331387
    173         20           0       -2.782039    2.294226   -5.617648
    174          8           0       -0.657059    1.197147   -4.573196
    175          1           0        0.286016    1.129930   -4.732857
    176          1           0       -0.728871    1.503679   -3.668331
 ---------------------------------------------------------------------

 SCF Done:  E(RB3LYP) =  -5332.34440016     A.U. after   33 cycles
 SCF Done:  E(RB3LYP) =  -5333.28474195     a.u. after   39 cycles

 The electronic state is 1-A.
 Alpha  occ. eigenvalues -- -145.48204 -19.15835 -19.13607 -19.13424 -19.11035
 Alpha  occ. eigenvalues --  -19.10425 -19.09859 -19.08982 -19.08791 -19.08603
 Alpha  occ. eigenvalues --  -19.08437 -19.08428 -19.07820 -19.07379 -19.07306
 Alpha  occ. eigenvalues --  -19.07021 -19.06866 -19.06771 -19.06501 -19.05538
 Alpha  occ. eigenvalues --  -19.04417 -19.04293 -19.00705 -19.00572 -15.54159
 Alpha  occ. eigenvalues --  -14.55835 -14.37759 -14.36255 -14.35942 -14.34977
 Alpha  occ. eigenvalues --  -14.34653 -14.34527 -14.34255 -14.34126 -14.34024
 Alpha  occ. eigenvalues --  -14.33973 -14.33588 -14.33200 -14.32439 -14.31922
 Alpha  occ. eigenvalues --  -12.67745 -12.67710 -12.67693 -10.33247 -10.30280
 Alpha  occ. eigenvalues --  -10.28818 -10.28419 -10.27820 -10.27401 -10.27383
 Alpha  occ. eigenvalues --  -10.27207 -10.27205 -10.26563 -10.26444 -10.26374
 Alpha  occ. eigenvalues --  -10.26003 -10.25996 -10.25734 -10.25408 -10.25193
 Alpha  occ. eigenvalues --  -10.25191 -10.25082 -10.25009 -10.24906 -10.24091
 Alpha  occ. eigenvalues --  -10.23761 -10.23294 -10.23153 -10.23134 -10.23060
 Alpha  occ. eigenvalues --  -10.22512 -10.22307 -10.22229 -10.21985 -10.21178
 Alpha  occ. eigenvalues --  -10.21094 -10.20346 -10.20039 -10.19675 -10.19419
 Alpha  occ. eigenvalues --  -10.19271 -10.19192 -10.19152 -10.19114 -10.18962
 Alpha  occ. eigenvalues --  -10.18840 -10.18699 -10.18348 -10.17986 -10.17782
 Alpha  occ. eigenvalues --  -10.17415 -10.16568 -10.16484 -10.16424 -10.16309
 Alpha  occ. eigenvalues --  -10.15929 -10.13771  -1.90804  -1.18184  -1.17890
 Alpha  occ. eigenvalues --   -1.17768  -1.11607  -1.04948  -1.04540  -1.03627
 Alpha  occ. eigenvalues --   -1.02939  -1.02485  -1.01965  -1.01908  -1.01614
 Alpha  occ. eigenvalues --   -1.01610  -1.01486  -1.01359  -1.01263  -1.00834
 Alpha  occ. eigenvalues --   -1.00518  -1.00462  -0.99568  -0.99488  -0.99384
 Alpha  occ. eigenvalues --   -0.98901  -0.94713  -0.94511  -0.92856  -0.92697
 Alpha  occ. eigenvalues --   -0.92447  -0.92313  -0.91483  -0.91078  -0.90861
 Alpha  occ. eigenvalues --   -0.90548  -0.90452  -0.89920  -0.89789  -0.89247
 Alpha  occ. eigenvalues --   -0.89239  -0.88613  -0.87674  -0.87620  -0.84986
 Alpha  occ. eigenvalues --   -0.84972  -0.81279  -0.81105  -0.79599  -0.79166
 Alpha  occ. eigenvalues --   -0.78071  -0.77981  -0.77542  -0.76127  -0.76040
 Alpha  occ. eigenvalues --   -0.75154  -0.74999  -0.74257  -0.74046  -0.73151
 Alpha  occ. eigenvalues --   -0.72746  -0.72144  -0.71596  -0.71418  -0.71249
 Alpha  occ. eigenvalues --   -0.70414  -0.69691  -0.68477  -0.67689  -0.67066
 Alpha  occ. eigenvalues --   -0.66304  -0.65968  -0.64915  -0.64848  -0.63808
 Alpha  occ. eigenvalues --   -0.63725  -0.62546  -0.62187  -0.61752  -0.61655
 Alpha  occ. eigenvalues --   -0.60880  -0.60329  -0.60074  -0.59786  -0.59482
 Alpha  occ. eigenvalues --   -0.59397  -0.59059  -0.58197  -0.58048  -0.57886
 Alpha  occ. eigenvalues --   -0.57435  -0.57107  -0.56969  -0.56501  -0.56063
 Alpha  occ. eigenvalues --   -0.55905  -0.55264  -0.55140  -0.54981  -0.54597
 Alpha  occ. eigenvalues --   -0.54520  -0.54080  -0.53952  -0.53716  -0.53360
 Alpha  occ. eigenvalues --   -0.53216  -0.53037  -0.52161  -0.52090  -0.51635
 Alpha  occ. eigenvalues --   -0.50959  -0.50781  -0.50422  -0.50236  -0.49697
 Alpha  occ. eigenvalues --   -0.49154  -0.48854  -0.48591  -0.48532  -0.48138
 Alpha  occ. eigenvalues --   -0.47893  -0.47805  -0.47410  -0.47345  -0.46986
 Alpha  occ. eigenvalues --   -0.46859  -0.46692  -0.46626  -0.46502  -0.46194
 Alpha  occ. eigenvalues --   -0.46084  -0.45784  -0.45781  -0.45496  -0.45163
 Alpha  occ. eigenvalues --   -0.44831  -0.44744  -0.44637  -0.44525  -0.44255
 Alpha  occ. eigenvalues --   -0.44150  -0.43911  -0.43704  -0.43653  -0.43482
 Alpha  occ. eigenvalues --   -0.43309  -0.43074  -0.42843  -0.42834  -0.42511
 Alpha  occ. eigenvalues --   -0.42367  -0.42337  -0.42258  -0.42061  -0.42022
 Alpha  occ. eigenvalues --   -0.41865  -0.41621  -0.41554  -0.41175  -0.41149
 Alpha  occ. eigenvalues --   -0.40961  -0.40813  -0.40618  -0.40491  -0.40438
 Alpha  occ. eigenvalues --   -0.40067  -0.40001  -0.39816  -0.39752  -0.39598
 Alpha  occ. eigenvalues --   -0.39543  -0.39425  -0.39396  -0.39246  -0.39088
 Alpha  occ. eigenvalues --   -0.39079  -0.38828  -0.38771  -0.38732  -0.38540
 Alpha  occ. eigenvalues --   -0.38267  -0.38253  -0.38237  -0.37894  -0.37824
 Alpha  occ. eigenvalues --   -0.37777  -0.37338  -0.37265  -0.37124  -0.36948
 Alpha  occ. eigenvalues --   -0.36775  -0.36614  -0.36544  -0.36501  -0.36426
 Alpha  occ. eigenvalues --   -0.36032  -0.35976  -0.35909  -0.35791  -0.35617
 Alpha  occ. eigenvalues --   -0.35450  -0.35254  -0.35175  -0.35117  -0.35060
 Alpha  occ. eigenvalues --   -0.34485  -0.34360  -0.34016  -0.34006  -0.33983
 Alpha  occ. eigenvalues --   -0.33680  -0.33574  -0.33413  -0.33277  -0.32886
 Alpha  occ. eigenvalues --   -0.32312  -0.32227  -0.31762  -0.31384  -0.31042
 Alpha  occ. eigenvalues --   -0.30786  -0.30758  -0.29623  -0.29403  -0.28566
 Alpha  occ. eigenvalues --   -0.28222  -0.27664  -0.27274  -0.26664  -0.26193
 Alpha  occ. eigenvalues --   -0.26068  -0.25912  -0.25720  -0.25556  -0.25540
 Alpha  occ. eigenvalues --   -0.25418  -0.25243  -0.25104  -0.24967  -0.24627
 Alpha  occ. eigenvalues --   -0.24452  -0.24362  -0.24321  -0.24235  -0.24188
 Alpha  occ. eigenvalues --   -0.23952  -0.23697  -0.23568  -0.23475  -0.23375
 Alpha  occ. eigenvalues --   -0.22773  -0.22597  -0.22561  -0.22347  -0.21937
 Alpha  occ. eigenvalues --   -0.21904  -0.21872  -0.20958  -0.20232  -0.19648
 Alpha  occ. eigenvalues --   -0.17441  -0.17017  -0.14804
 Alpha virt. eigenvalues --   -0.13924  -0.07436  -0.02781  -0.01914  -0.01638
 Alpha virt. eigenvalues --   -0.00715  -0.00153   0.00057   0.00144   0.00727
 Alpha virt. eigenvalues --    0.00968   0.01220   0.01885   0.01934   0.02025

 Mulliken charges:
               1
     1  C    0.068227
     2  C    0.009098
     3  O   -0.352673
     4  H    0.004164
     5  H    0.040670
     6  H    0.027925
     7  N   -0.105807
     8  C    0.119896
     9  C    0.105871
    10  O   -0.260470
    11  C    0.050237
    12  C    0.093430
    13  O   -0.369154
    14  O   -0.293426
    15  H    0.121837
    16  H   -0.041649
    17  H    0.016771
    18  H   -0.003502
    19  N   -0.103640
    20  C    0.049720
    21  C    0.086194
    22  O   -0.217195
    23  C    0.049053
    24  C   -0.014829
    25  C   -0.068350
    26  C    0.052812
    27  N    0.080083
    28  H    0.110722
    29  H    0.010571
    30  H    0.006045
    31  H    0.033577
    32  H    0.029101
    33  H   -0.028005
    34  H    0.031604
    35  H    0.064448
    36  H    0.066881
    37  H    0.076701
    38  H    0.187823
    39  H    0.178870
    40  H    0.206839
    41  N   -0.127596
    42  C    0.120925
    43  C    0.054358
    44  O   -0.264044
    45  C    0.128199
    46  C    0.010749
    47  O   -0.382593
    48  O   -0.421907
    49  H    0.119778
    50  H    0.033873
    51  H    0.016154
    52  H   -0.039562
    53  N   -0.137787
    54  C    0.201091
    55  C    0.025476
    56  O   -0.290412
    57  H    0.127726
    58  H    0.037662
    59  H    0.039481
    60  N   -0.085043
    61  C    0.105132
    62  C    0.095986
    63  O   -0.257299
    64  C    0.075915
    65  C    0.042049
    66  N   -0.026809
    67  O   -0.282618
    68  H    0.102177
    69  H    0.004038
    70  H   -0.009818
    71  H   -0.026447
    72  H    0.118421
    73  H    0.141945
    74  N   -0.144834
    75  C    0.219475
    76  C    0.047774
    77  O   -0.256058
    78  H    0.130907
    79  H    0.029583
    80  H    0.000502
    81  N   -0.095847
    82  C    0.106347
    83  C    0.092724
    84  O   -0.301989
    85  C    0.095915
    86  C   -0.011871
    87  C    0.011575
    88  C   -0.005181
    89  C   -0.039893
    90  C   -0.054506
    91  C    0.180040
    92  O   -0.205459
    93  H    0.114680
    94  H    0.013795
    95  H    0.018044
    96  H    0.014794
    97  H   -0.028205
    98  H   -0.019668
    99  H   -0.022937
   100  H   -0.044469
   101  H    0.177427
   102  N   -0.134831
   103  C    0.184673
   104  C    0.057479
   105  O   -0.268721
   106  C   -0.134370
   107  C    0.014584
   108  C    0.101127
   109  C    0.000118
   110  H    0.151210
   111  H    0.016532
   112  H   -0.017986
   113  H   -0.005165
   114  H    0.005446
   115  H    0.000022
   116  H    0.022486
   117  H   -0.009326
   118  H    0.000791
   119  H    0.030368
   120  H    0.014715
   121  N   -0.155045
   122  C    0.109946
   123  C    0.025469
   124  O   -0.266454
   125  C    0.221650
   126  O   -0.319021
   127  H    0.148886
   128  H    0.019979
   129  H    0.002609
   130  H    0.010964
   131  H    0.162937
   132  N   -0.134597
   133  C    0.100407
   134  C    0.045399
   135  O   -0.304288
   136  C    0.091439
   137  H    0.120129
   138  H    0.015032
   139  H   -0.001966
   140  H    0.038206
   141  H    0.008077
   142  N   -0.121120
   143  C    0.103997
   144  C    0.039047
   145  O   -0.238944
   146  C    0.046495
   147  H    0.138776
   148  H    0.004346
   149  H   -0.021215
   150  H    0.041457
   151  H    0.023015
   152  N   -0.154605
   153  C    0.120778
   154  C    0.060897
   155  O   -0.275217
   156  C   -0.008065
   157  C    0.166217
   158  C    0.091317
   159  O   -0.473601
   160  O   -0.396306
   161  H    0.118820
   162  H   -0.002737
   163  H   -0.003690
   164  H    0.030532
   165  H    0.016465
   166  H   -0.057343
   167  N   -0.150061
   168  C    0.134564
   169  H    0.020297
   170  H    0.031834
   171  H    0.013291
   172  H    0.119756
   173  Ca   1.214036
   174  O   -0.346201
   175  H    0.174411
   176  H    0.177510
 Sum of Mulliken charges =   0.00000

 Dipole moment (field-independent basis, Debye):
    X=              5.1290    Y=             21.7540    Z=             -7.7179  Tot=             23.6455
 Quadrupole moment (field-independent basis, Debye-Ang):
   XX=           -614.4361   YY=           -532.8797   ZZ=           -414.1835
   XY=           -272.0527   XZ=            -15.8287   YZ=            -13.5025

 ESP charges:
               1
     1  C   -0.468313
     2  C    0.851753
     3  O   -0.682267
     4  H    0.104827
     5  H    0.124483
     6  H    0.131178
     7  N   -0.781752
     8  C    0.507232
     9  C    0.441929
    10  O   -0.499005
    11  C   -0.317733
    12  C    0.759406
    13  O   -0.676228
    14  O   -0.584310
    15  H    0.338868
    16  H   -0.042534
    17  H    0.084112
    18  H    0.075610
    19  N   -0.621650
    20  C    0.483565
    21  C    0.424247
    22  O   -0.449388
    23  C   -0.470747
    24  C    0.331473
    25  C   -0.258988
    26  C   -0.017747
    27  N   -0.312174
    28  H    0.287516
    29  H   -0.038243
    30  H    0.101891
    31  H    0.126257
    32  H   -0.006411
    33  H   -0.076652
    34  H    0.112845
    35  H    0.124240
    36  H    0.090051
    37  H    0.097333
    38  H    0.324045
    39  H    0.313015
    40  H    0.330423
    41  N   -0.541954
    42  C    0.434592
    43  C    0.367614
    44  O   -0.501649
    45  C   -0.622038
    46  C    0.689151
    47  O   -0.670834
    48  O   -0.644383
    49  H    0.287493
    50  H    0.042935
    51  H    0.175623
    52  H    0.147248
    53  N   -0.241796
    54  C   -0.242932
    55  C    0.541149
    56  O   -0.570213
    57  H    0.267563
    58  H    0.144471
    59  H    0.123397
    60  N   -0.063352
    61  C   -0.150269
    62  C    0.615190
    63  O   -0.522257
    64  C   -0.230434
    65  C    0.712555
    66  N   -0.821501
    67  O   -0.566755
    68  H    0.115897
    69  H    0.099048
    70  H    0.051434
    71  H    0.084109
    72  H    0.323752
    73  H    0.401351
    74  N   -0.479411
    75  C    0.021415
    76  C    0.586544
    77  O   -0.480583
    78  H    0.314604
    79  H    0.068478
    80  H    0.049420
    81  N   -0.742615
    82  C    0.467857
    83  C    0.347333
    84  O   -0.526904
    85  C   -0.233739
    86  C    0.113801
    87  C   -0.162572
    88  C   -0.137315
    89  C   -0.276322
    90  C   -0.364633
    91  C    0.432423
    92  O   -0.581675
    93  H    0.329519
    94  H   -0.008429
    95  H    0.072731
    96  H    0.079213
    97  H    0.126221
    98  H    0.159227
    99  H    0.170662
   100  H    0.156425
   101  H    0.421714
   102  N   -0.189112
   103  C   -0.542652
   104  C    0.803136
   105  O   -0.605224
   106  C    0.236677
   107  C    0.092158
   108  C   -0.463063
   109  C   -0.179496
   110  H    0.318557
   111  H    0.203353
   112  H    0.008238
   113  H   -0.006160
   114  H   -0.058822
   115  H    0.104737
   116  H    0.143415
   117  H    0.108102
   118  H    0.055286
   119  H    0.069791
   120  H    0.010550
   121  N   -0.405105
   122  C   -0.078688
   123  C    0.473029
   124  O   -0.518917
   125  C    0.128978
   126  O   -0.606990
   127  H    0.311397
   128  H    0.140256
   129  H    0.052946
   130  H    0.045701
   131  H    0.406272
   132  N   -0.480936
   133  C    0.400997
   134  C    0.335236
   135  O   -0.539943
   136  C   -0.327622
   137  H    0.246858
   138  H    0.029220
   139  H    0.089012
   140  H    0.111705
   141  H    0.063098
   142  N   -0.434350
   143  C    0.664757
   144  C    0.299680
   145  O   -0.467711
   146  C   -0.492990
   147  H    0.234875
   148  H   -0.072610
   149  H    0.057658
   150  H    0.126090
   151  H    0.145458
   152  N   -0.395289
   153  C   -0.121031
   154  C    0.460568
   155  O   -0.524343
   156  C    0.638737
   157  C   -0.608830
   158  C    0.778406
   159  O   -0.714014
   160  O   -0.639012
   161  H    0.257579
   162  H    0.055586
   163  H   -0.128528
   164  H   -0.082268
   165  H    0.169269
   166  H    0.066310
   167  N   -0.246744
   168  C   -0.179383
   169  H    0.079741
   170  H    0.110742
   171  H    0.088759
   172  H    0.227992
   173  Ca   1.256037
   174  O   -0.794903
   175  H    0.413119
   176  H    0.364923
 Sum of ESP charges =  -0.00000

 Normal termination of Gaussian 16 at Thu Sep 19 14:41:29 2019.
