 Gaussian 16, Revision A.03,
 Gaussian 16:  ES64L-G16RevA.03 25-Dec-2016

 ----------------------------------------------------------------------
 #b3lyp/svp scf=(tight,noincore) Test #IOP(5/87=12) Density=Current Pop
 =(MK,readradii) iop(6/33=2) iop(6/42=6)
 ----------------------------------------------------------------------

 -----------------
 Ng-295_loop3_16.0
 -----------------
 Symbolic Z-matrix:
 Charge =  0 Multiplicity = 1

                         Standard orientation:
 ---------------------------------------------------------------------
 Center     Atomic      Atomic             Coordinates (Angstroms)
 Number     Number       Type             X           Y           Z
 ---------------------------------------------------------------------
      1          6           0       -6.842375   -6.711567   -3.778197
      2          6           0       -5.829977   -5.883786   -3.011562
      3          8           0       -4.852912   -6.370497   -2.430567
      4          1           0       -6.359547   -7.163158   -4.645396
      5          1           0       -7.235352   -7.495875   -3.131716
      6          1           0       -7.659391   -6.071487   -4.110950
      7          7           0       -6.170293   -4.609520   -2.842352
      8          6           0       -5.505637   -3.665625   -1.950447
      9          6           0       -5.979274   -3.777394   -0.512958
     10          8           0       -7.172247   -3.795616   -0.204276
     11          6           0       -5.627915   -2.254754   -2.505598
     12          6           0       -4.846570   -1.175311   -1.765055
     13          8           0       -5.014025   -0.984510   -0.545976
     14          8           0       -4.033215   -0.482586   -2.416426
     15          1           0       -6.957121   -4.290051   -3.382853
     16          1           0       -4.426847   -3.803304   -1.981357
     17          1           0       -6.693633   -2.049675   -2.457766
     18          1           0       -5.275556   -2.255974   -3.541185
     19          7           0       -5.051775   -4.041111    0.411865
     20          6           0       -5.449168   -4.322784    1.769856
     21          6           0       -6.110044   -3.139966    2.462304
     22          8           0       -6.669612   -3.416128    3.515878
     23          6           0       -4.231311   -4.842106    2.537011
     24          6           0       -3.065888   -3.878758    2.692741
     25          6           0       -1.883005   -4.332565    3.539173
     26          6           0       -2.327513   -4.783316    4.921503
     27          7           0       -1.177361   -5.004922    5.813882
     28          1           0       -4.104958   -4.104770    0.052163
     29          1           0       -6.149411   -5.141662    1.689864
     30          1           0       -3.885550   -5.785080    2.107770
     31          1           0       -4.595491   -5.071563    3.537273
     32          1           0       -3.451160   -2.962956    3.148453
     33          1           0       -2.701176   -3.744840    1.670758
     34          1           0       -1.199862   -3.488955    3.675696
     35          1           0       -1.367680   -5.206617    3.123994
     36          1           0       -2.813855   -5.741541    4.723066
     37          1           0       -3.004026   -4.005433    5.276929
     38          1           0       -0.555658   -4.234514    5.976227
     39          1           0       -1.547197   -5.340775    6.692702
     40          1           0       -0.537850   -5.691062    5.440736
     41          7           0       -5.995612   -1.874362    2.054687
     42          6           0       -6.597424   -0.761143    2.760072
     43          6           0       -7.355861    0.291453    1.960500
     44          8           0       -7.866303    1.287952    2.463331
     45          6           0       -5.449932   -0.073409    3.501477
     46          6           0       -4.353369    0.341107    2.533890
     47          8           0       -4.515427    1.313272    1.771242
     48          8           0       -3.262551   -0.263924    2.422743
     49          1           0       -5.675024   -1.631631    1.123878
     50          1           0       -7.204959   -1.128593    3.587890
     51          1           0       -5.026884   -0.735482    4.269325
     52          1           0       -5.840860    0.749829    4.087955
     53          7           0       -7.453689    0.069731    0.649940
     54          6           0       -8.168136    0.884299   -0.316986
     55          6           0       -7.539785    2.202676   -0.723135
     56          8           0       -8.054764    2.884233   -1.615758
     57          1           0       -6.884181   -0.690166    0.323264
     58          1           0       -9.200828    1.002182    0.023089
     59          1           0       -8.151174    0.243387   -1.198941
     60          7           0       -6.488975    2.624292   -0.028990
     61          6           0       -5.689755    3.746899   -0.490619
     62          6           0       -4.674407    3.240396   -1.497308
     63          8           0       -4.032898    2.237474   -1.195291
     64          6           0       -5.028971    4.353242    0.744133
     65          6           0       -4.588563    5.764863    0.383622
     66          7           0       -5.504106    6.722338    0.237938
     67          8           0       -3.384598    5.991959    0.298212
     68          1           0       -6.068114    1.986489    0.632057
     69          1           0       -6.266199    4.496343   -1.038839
     70          1           0       -4.121108    3.774904    0.916208
     71          1           0       -5.716135    4.394930    1.593526
     72          1           0       -6.465865    6.440582    0.330310
     73          1           0       -5.164277    7.643716   -0.012821
     74          7           0       -4.513827    3.883994   -2.648349
     75          6           0       -3.642885    3.405776   -3.709324
     76          6           0       -2.177401    3.429613   -3.299462
     77          8           0       -1.359335    2.753310   -3.932457
     78          1           0       -5.048974    4.721826   -2.847740
     79          1           0       -3.924223    3.879017   -4.655945
     80          1           0       -3.862345    2.344953   -3.799837
     81          7           0       -1.784620    4.124847   -2.241268
     82          6           0       -0.441320    4.061801   -1.710071
     83          6           0        0.166652    2.682716   -1.485361
     84          8           0       -0.510115    1.752324   -1.074319
     85          6           0       -0.450758    4.794752   -0.367278
     86          6           0        0.907832    5.093050    0.213887
     87          6           0        1.213445    4.504256    1.448360
     88          6           0        1.684295    6.133993   -0.312650
     89          6           0        2.478102    4.734839    1.993589
     90          6           0        2.957968    6.345164    0.226109
     91          6           0        3.370478    5.635010    1.370888
     92          8           0        4.622755    5.704612    1.887277
     93          1           0       -2.513156    4.599192   -1.712183
     94          1           0        0.171205    4.655071   -2.389294
     95          1           0       -1.090173    4.261678    0.341157
     96          1           0       -0.791022    5.800671   -0.583023
     97          1           0        0.490207    3.858089    1.915582
     98          1           0        1.349895    6.659887   -1.197530
     99          1           0        2.794279    4.066868    2.784756
    100          1           0        3.635401    7.003030   -0.293695
    101          1           0        5.127744    6.425239    1.510735
    102          7           0        1.487943    2.607720   -1.675532
    103          6           0        2.332255    1.473238   -1.360750
    104          6           0        2.580142    1.327598    0.132917
    105          8           0        1.661174    1.217371    0.945044
    106          6           0        2.044418    0.189491   -2.129739
    107          6           0        3.097136   -0.882573   -1.881818
    108          6           0        1.853863    0.422934   -3.621480
    109          6           0        2.851877   -2.229198   -2.557354
    110          1           0        1.996081    3.468927   -1.804835
    111          1           0        3.315490    1.807161   -1.718861
    112          1           0        1.060863   -0.148349   -1.791238
    113          1           0        3.105138   -1.049369   -0.798160
    114          1           0        4.136847   -0.661594   -2.146903
    115          1           0        1.022859    1.119562   -3.685851
    116          1           0        2.731509    0.905895   -4.048429
    117          1           0        1.516248   -0.538363   -4.005309
    118          1           0        1.894518   -2.686753   -2.317757
    119          1           0        2.879598   -2.016711   -3.620124
    120          1           0        3.584172   -2.998783   -2.303421
    121          7           0        3.849971    1.199399    0.525344
    122          6           0        4.359831    0.942142    1.853449
    123          6           0        5.799921    1.234756    2.240641
    124          8           0        5.963643    1.391736    3.450870
    125          6           0        4.129430   -0.540579    2.163538
    126          8           0        5.007519   -1.288563    1.350102
    127          1           0        4.546420    1.396731   -0.178160
    128          1           0        3.739874    1.545340    2.518208
    129          1           0        3.100069   -0.880549    2.197249
    130          1           0        4.502888   -0.713130    3.170988
    131          1           0        4.671853   -2.186687    1.351377
    132          7           0        6.743885    1.287131    1.296878
    133          6           0        8.170289    1.516525    1.390957
    134          6           0        8.767196    0.964235    2.674575
    135          8           0        9.046170    1.684610    3.637816
    136          6           0        8.511189    2.998497    1.252592
    137          1           0        6.453179    1.304552    0.329259
    138          1           0        8.583495    1.047617    0.498776
    139          1           0        9.552528    3.264902    1.100794
    140          1           0        7.924071    3.389883    0.419100
    141          1           0        8.070131    3.515852    2.115153
    142          7           0        9.224547   -0.283994    2.559448
    143          6           0        8.844915   -1.279770    1.571263
    144          6           0        9.837137   -1.478067    0.442204
    145          8           0       11.060255   -1.415359    0.583090
    146          6           0        8.732937   -2.603584    2.327026
    147          1           0        9.950203   -0.571333    3.196518
    148          1           0        7.855922   -1.113279    1.146206
    149          1           0        9.638963   -2.654759    2.924184
    150          1           0        7.845504   -2.591778    2.971482
    151          1           0        8.684483   -3.466251    1.663808
    152          7           0        9.377853   -1.658908   -0.799229
    153          6           0        8.058854   -1.852504   -1.361157
    154          6           0        8.226553   -1.685277   -2.865920
    155          8           0        7.438874   -0.981814   -3.493297
    156          6           0        7.509869   -3.239877   -1.054710
    157          6           0        6.231580   -3.481995   -1.862581
    158          6           0        5.589596   -4.798075   -1.466867
    159          8           0        4.857000   -4.828354   -0.449377
    160          8           0        5.879280   -5.852861   -2.087036
    161          1           0       10.191441   -1.777639   -1.380329
    162          1           0        7.349101   -1.166508   -0.915444
    163          1           0        7.266460   -3.360402    0.003414
    164          1           0        8.250301   -3.990757   -1.324784
    165          1           0        6.395701   -3.521145   -2.938514
    166          1           0        5.509075   -2.720212   -1.584778
    167          7           0        9.258307   -2.248369   -3.494418
    168          6           0        9.316465   -2.207915   -4.941478
    169          1           0        8.519646   -2.827073   -5.353506
    170          1           0        9.190655   -1.180746   -5.282254
    171          1           0       10.281999   -2.587157   -5.277212
    172          1           0        9.974891   -2.721083   -2.962959
    173         20           0       -2.708689    0.383577    0.030448
    174          8           0       -1.891758   -1.962884   -1.064471
    175          1           0       -1.578694   -1.784531   -1.951703
    176          1           0       -2.124556   -2.890236   -1.079435
 ---------------------------------------------------------------------

 SCF Done:  E(RB3LYP) =  -5333.45242893     A.U. after   37 cycles

 The electronic state is 1-A.
 Alpha  occ. eigenvalues -- -145.42453 -19.20115 -19.17215 -19.14036 -19.13668
 Alpha  occ. eigenvalues --  -19.13174 -19.11718 -19.10941 -19.10372 -19.10366
 Alpha  occ. eigenvalues --  -19.10209 -19.09835 -19.09557 -19.09453 -19.09211
 Alpha  occ. eigenvalues --  -19.08835 -19.08765 -19.08543 -19.08111 -19.07724
 Alpha  occ. eigenvalues --  -19.07646 -19.07604 -18.96737 -18.95999 -15.48217
 Alpha  occ. eigenvalues --  -14.57663 -14.40094 -14.38156 -14.38034 -14.37440
 Alpha  occ. eigenvalues --  -14.37090 -14.36934 -14.36839 -14.36745 -14.35423
 Alpha  occ. eigenvalues --  -14.34687 -14.34579 -14.34276 -14.33922 -14.33867
 Alpha  occ. eigenvalues --  -12.61819 -12.61807 -12.61772 -10.34355 -10.32058
 Alpha  occ. eigenvalues --  -10.31672 -10.30512 -10.29708 -10.29423 -10.29294
 Alpha  occ. eigenvalues --  -10.29183 -10.29023 -10.28923 -10.28303 -10.28046
 Alpha  occ. eigenvalues --  -10.27725 -10.27628 -10.27537 -10.26898 -10.26654
 Alpha  occ. eigenvalues --  -10.26603 -10.26323 -10.25642 -10.25622 -10.25542
 Alpha  occ. eigenvalues --  -10.25391 -10.25265 -10.24755 -10.24221 -10.23656
 Alpha  occ. eigenvalues --  -10.23367 -10.23358 -10.23342 -10.23123 -10.22835
 Alpha  occ. eigenvalues --  -10.22464 -10.21623 -10.21142 -10.20947 -10.20841
 Alpha  occ. eigenvalues --  -10.20482 -10.20456 -10.20080 -10.20052 -10.20041
 Alpha  occ. eigenvalues --  -10.19897 -10.19489 -10.19129 -10.18859 -10.17693
 Alpha  occ. eigenvalues --  -10.17585 -10.16713 -10.16677 -10.15987 -10.15279
 Alpha  occ. eigenvalues --  -10.14905 -10.11379  -1.84849  -1.13163  -1.12345
 Alpha  occ. eigenvalues --   -1.12190  -1.12110  -1.07214  -1.06330  -1.06113
 Alpha  occ. eigenvalues --   -1.06041  -1.04810  -1.04671  -1.04506  -1.04113
 Alpha  occ. eigenvalues --   -1.03725  -1.03448  -1.03297  -1.02611  -1.02347
 Alpha  occ. eigenvalues --   -1.02199  -1.01718  -1.01364  -1.01197  -1.00897
 Alpha  occ. eigenvalues --   -1.00036  -0.96335  -0.95080  -0.94323  -0.93784
 Alpha  occ. eigenvalues --   -0.93735  -0.93524  -0.93084  -0.93047  -0.92969
 Alpha  occ. eigenvalues --   -0.92815  -0.92815  -0.92098  -0.91457  -0.90870
 Alpha  occ. eigenvalues --   -0.90640  -0.90540  -0.89721  -0.89344  -0.86388
 Alpha  occ. eigenvalues --   -0.82835  -0.82377  -0.80916  -0.80455  -0.80400
 Alpha  occ. eigenvalues --   -0.80119  -0.78432  -0.78375  -0.76966  -0.76899
 Alpha  occ. eigenvalues --   -0.76476  -0.76280  -0.75667  -0.75557  -0.74466
 Alpha  occ. eigenvalues --   -0.73722  -0.73526  -0.73357  -0.72595  -0.71084
 Alpha  occ. eigenvalues --   -0.70455  -0.70310  -0.69662  -0.68666  -0.67101
 Alpha  occ. eigenvalues --   -0.66881  -0.66645  -0.66383  -0.65925  -0.64921
 Alpha  occ. eigenvalues --   -0.64492  -0.64053  -0.63617  -0.63562  -0.63315
 Alpha  occ. eigenvalues --   -0.62574  -0.62377  -0.61746  -0.61299  -0.61023
 Alpha  occ. eigenvalues --   -0.60592  -0.60322  -0.59770  -0.59668  -0.59395
 Alpha  occ. eigenvalues --   -0.59246  -0.59139  -0.58807  -0.58334  -0.58296
 Alpha  occ. eigenvalues --   -0.57953  -0.57048  -0.56998  -0.56862  -0.56702
 Alpha  occ. eigenvalues --   -0.56336  -0.56179  -0.55763  -0.55274  -0.54824
 Alpha  occ. eigenvalues --   -0.54605  -0.53457  -0.53124  -0.52880  -0.52662
 Alpha  occ. eigenvalues --   -0.52512  -0.52136  -0.51875  -0.51791  -0.51643
 Alpha  occ. eigenvalues --   -0.51243  -0.51182  -0.50800  -0.50576  -0.50174
 Alpha  occ. eigenvalues --   -0.50066  -0.49566  -0.49310  -0.48574  -0.48363
 Alpha  occ. eigenvalues --   -0.48193  -0.48094  -0.47695  -0.47517  -0.47384
 Alpha  occ. eigenvalues --   -0.46967  -0.46884  -0.46814  -0.46724  -0.46605
 Alpha  occ. eigenvalues --   -0.46378  -0.46170  -0.46155  -0.46086  -0.45954
 Alpha  occ. eigenvalues --   -0.45802  -0.45638  -0.45479  -0.45351  -0.45236
 Alpha  occ. eigenvalues --   -0.45061  -0.44805  -0.44430  -0.44271  -0.44148
 Alpha  occ. eigenvalues --   -0.44079  -0.43931  -0.43913  -0.43764  -0.43298
 Alpha  occ. eigenvalues --   -0.43229  -0.43203  -0.42930  -0.42467  -0.42317
 Alpha  occ. eigenvalues --   -0.42300  -0.42181  -0.42052  -0.41818  -0.41501
 Alpha  occ. eigenvalues --   -0.41428  -0.41325  -0.41210  -0.41171  -0.41053
 Alpha  occ. eigenvalues --   -0.41037  -0.40957  -0.40842  -0.40637  -0.40307
 Alpha  occ. eigenvalues --   -0.40288  -0.40167  -0.39971  -0.39936  -0.39799
 Alpha  occ. eigenvalues --   -0.39698  -0.39520  -0.39344  -0.39199  -0.39132
 Alpha  occ. eigenvalues --   -0.38710  -0.38598  -0.38301  -0.38222  -0.38156
 Alpha  occ. eigenvalues --   -0.38026  -0.37826  -0.37764  -0.37717  -0.37671
 Alpha  occ. eigenvalues --   -0.37134  -0.36957  -0.36898  -0.36812  -0.36685
 Alpha  occ. eigenvalues --   -0.36518  -0.36321  -0.36310  -0.36108  -0.35983
 Alpha  occ. eigenvalues --   -0.35745  -0.35630  -0.35328  -0.35251  -0.35243
 Alpha  occ. eigenvalues --   -0.35037  -0.34934  -0.34631  -0.34168  -0.34020
 Alpha  occ. eigenvalues --   -0.33485  -0.33008  -0.32144  -0.31645  -0.31516
 Alpha  occ. eigenvalues --   -0.31425  -0.30555  -0.30284  -0.30170  -0.29882
 Alpha  occ. eigenvalues --   -0.29538  -0.29277  -0.28626  -0.28304  -0.27923
 Alpha  occ. eigenvalues --   -0.27793  -0.27764  -0.27466  -0.27438  -0.27271
 Alpha  occ. eigenvalues --   -0.27034  -0.27003  -0.26771  -0.26742  -0.26587
 Alpha  occ. eigenvalues --   -0.26247  -0.26187  -0.26162  -0.26096  -0.25608
 Alpha  occ. eigenvalues --   -0.25398  -0.25318  -0.25166  -0.25151  -0.24850
 Alpha  occ. eigenvalues --   -0.24617  -0.24405  -0.24363  -0.24268  -0.23880
 Alpha  occ. eigenvalues --   -0.23759  -0.23463  -0.23113  -0.23047  -0.22363
 Alpha  occ. eigenvalues --   -0.14027  -0.13730  -0.11159
 Alpha virt. eigenvalues --   -0.10067  -0.04505  -0.04024  -0.03603  -0.03140
 Alpha virt. eigenvalues --   -0.02375  -0.01751  -0.01422  -0.00956  -0.00405
 Alpha virt. eigenvalues --   -0.00330  -0.00122   0.00097   0.00194   0.00826

 Mulliken charges:
               1
     1  C    0.059469
     2  C    0.019518
     3  O   -0.304636
     4  H    0.042400
     5  H    0.053056
     6  H   -0.004758
     7  N   -0.107291
     8  C    0.112525
     9  C    0.086427
    10  O   -0.281567
    11  C    0.084058
    12  C    0.079003
    13  O   -0.433709
    14  O   -0.371366
    15  H    0.122187
    16  H   -0.038672
    17  H    0.012993
    18  H    0.017305
    19  N   -0.149786
    20  C    0.212191
    21  C    0.064587
    22  O   -0.292099
    23  C   -0.034839
    24  C    0.016608
    25  C   -0.017167
    26  C   -0.018714
    27  N    0.128306
    28  H    0.107372
    29  H    0.024226
    30  H    0.014683
    31  H    0.008140
    32  H    0.056283
    33  H   -0.003186
    34  H    0.037300
    35  H    0.020264
    36  H    0.083217
    37  H    0.089992
    38  H    0.154806
    39  H    0.161749
    40  H    0.151658
    41  N   -0.147283
    42  C    0.053808
    43  C    0.070631
    44  O   -0.273694
    45  C    0.139441
    46  C    0.093653
    47  O   -0.405467
    48  O   -0.457063
    49  H    0.169652
    50  H    0.034941
    51  H   -0.024332
    52  H    0.021969
    53  N   -0.172529
    54  C    0.236657
    55  C    0.026695
    56  O   -0.312689
    57  H    0.108426
    58  H    0.046795
    59  H    0.022755
    60  N   -0.109329
    61  C    0.082367
    62  C    0.080458
    63  O   -0.343826
    64  C    0.175523
    65  C   -0.077170
    66  N   -0.023679
    67  O   -0.267354
    68  H    0.166075
    69  H   -0.022033
    70  H    0.019613
    71  H    0.042865
    72  H    0.133916
    73  H    0.137313
    74  N   -0.145179
    75  C    0.218109
    76  C    0.019901
    77  O   -0.289181
    78  H    0.138806
    79  H    0.050434
    80  H    0.064624
    81  N   -0.104830
    82  C    0.086459
    83  C    0.200361
    84  O   -0.355002
    85  C    0.135447
    86  C   -0.103694
    87  C    0.034485
    88  C   -0.006350
    89  C   -0.030090
    90  C   -0.053895
    91  C    0.170919
    92  O   -0.183974
    93  H    0.132775
    94  H   -0.008229
    95  H    0.008044
    96  H    0.026076
    97  H   -0.018069
    98  H   -0.024892
    99  H   -0.002954
   100  H   -0.040507
   101  H    0.174738
   102  N   -0.120272
   103  C    0.127080
   104  C    0.083353
   105  O   -0.294978
   106  C   -0.061225
   107  C   -0.027336
   108  C    0.081284
   109  C    0.024996
   110  H    0.135416
   111  H   -0.039149
   112  H   -0.025084
   113  H   -0.001161
   114  H    0.015738
   115  H    0.013822
   116  H    0.000875
   117  H    0.015676
   118  H   -0.029229
   119  H    0.006722
   120  H    0.054096
   121  N   -0.106353
   122  C    0.085122
   123  C    0.094199
   124  O   -0.258142
   125  C    0.232459
   126  O   -0.317544
   127  H    0.109535
   128  H    0.024748
   129  H    0.005624
   130  H   -0.010057
   131  H    0.176352
   132  N   -0.137273
   133  C    0.007808
   134  C    0.105479
   135  O   -0.249706
   136  C    0.096852
   137  H    0.120001
   138  H    0.013818
   139  H    0.028467
   140  H   -0.038079
   141  H    0.038481
   142  N   -0.104152
   143  C    0.032179
   144  C    0.041175
   145  O   -0.284183
   146  C    0.053969
   147  H    0.126300
   148  H    0.027840
   149  H    0.004829
   150  H    0.027258
   151  H    0.037862
   152  N   -0.117208
   153  C    0.143861
   154  C    0.045450
   155  O   -0.279180
   156  C    0.022172
   157  C    0.066482
   158  C    0.027703
   159  O   -0.414977
   160  O   -0.371735
   161  H    0.101140
   162  H   -0.014474
   163  H    0.007490
   164  H   -0.019379
   165  H   -0.008578
   166  H   -0.031648
   167  N   -0.166972
   168  C    0.147258
   169  H    0.039645
   170  H    0.029734
   171  H    0.008715
   172  H    0.116397
   173  Ca   1.351834
   174  O   -0.298657
   175  H    0.201331
   176  H    0.184133
 Sum of Mulliken charges =  -0.00000

 Dipole moment (field-independent basis, Debye):
    X=            -14.0916    Y=              4.1160    Z=             10.1151  Tot=             17.8278
 Quadrupole moment (field-independent basis, Debye-Ang):
   XX=           -739.8574   YY=           -504.4499   ZZ=           -477.2601
   XY=             63.8278   XZ=            -11.7869   YZ=           -145.1492

 ESP charges:
               1
     1  C   -0.470997
     2  C    0.723145
     3  O   -0.598144
     4  H    0.132719
     5  H    0.155644
     6  H    0.102226
     7  N   -0.586483
     8  C    0.228390
     9  C    0.614628
    10  O   -0.557401
    11  C   -0.427940
    12  C    0.857089
    13  O   -0.693316
    14  O   -0.725494
    15  H    0.322660
    16  H    0.007628
    17  H    0.109416
    18  H    0.115840
    19  N   -0.316399
    20  C   -0.339407
    21  C    0.728072
    22  O   -0.584864
    23  C    0.270936
    24  C   -0.082384
    25  C   -0.172607
    26  C    0.116801
    27  N   -0.323171
    28  H    0.195561
    29  H    0.171484
    30  H   -0.002312
    31  H   -0.077306
    32  H    0.088347
    33  H    0.064915
    34  H    0.069097
    35  H    0.057973
    36  H    0.065654
    37  H    0.084691
    38  H    0.305230
    39  H    0.273810
    40  H    0.291291
    41  N   -0.351167
    42  C   -0.074482
    43  C    0.463433
    44  O   -0.524492
    45  C   -0.186308
    46  C    0.752339
    47  O   -0.685847
    48  O   -0.775335
    49  H    0.030943
    50  H    0.143886
    51  H    0.063080
    52  H    0.080649
    53  N   -0.177178
    54  C   -0.428257
    55  C    0.689656
    56  O   -0.597006
    57  H    0.243868
    58  H    0.192906
    59  H    0.150486
    60  N   -0.342693
    61  C   -0.010875
    62  C    0.540155
    63  O   -0.528842
    64  C   -0.218436
    65  C    0.691284
    66  N   -0.845350
    67  O   -0.577853
    68  H    0.250918
    69  H    0.023790
    70  H    0.071439
    71  H    0.120457
    72  H    0.400852
    73  H    0.396101
    74  N   -0.321481
    75  C   -0.207351
    76  C    0.491271
    77  O   -0.528191
    78  H    0.287223
    79  H    0.150208
    80  H    0.154115
    81  N   -0.231382
    82  C   -0.030980
    83  C    0.403152
    84  O   -0.466129
    85  C   -0.124339
    86  C    0.014116
    87  C   -0.106084
    88  C   -0.095652
    89  C   -0.255213
    90  C   -0.336743
    91  C    0.369136
    92  O   -0.542496
    93  H    0.136117
    94  H    0.065106
    95  H    0.082541
    96  H    0.107003
    97  H    0.136431
    98  H    0.123773
    99  H    0.168969
   100  H    0.142538
   101  H    0.416935
   102  N   -0.254557
   103  C   -0.375840
   104  C    0.617771
   105  O   -0.547431
   106  C    0.352599
   107  C   -0.122351
   108  C   -0.290835
   109  C   -0.083238
   110  H    0.257528
   111  H    0.146589
   112  H   -0.006552
   113  H    0.014055
   114  H    0.037467
   115  H    0.078910
   116  H    0.066557
   117  H    0.075026
   118  H   -0.002284
   119  H    0.024132
   120  H    0.063065
   121  N   -0.222120
   122  C   -0.385259
   123  C    0.774192
   124  O   -0.540155
   125  C    0.233258
   126  O   -0.559323
   127  H    0.133697
   128  H    0.150696
   129  H    0.043350
   130  H    0.005348
   131  H    0.375059
   132  N   -0.487007
   133  C   -0.007909
   134  C    0.769443
   135  O   -0.554638
   136  C   -0.354192
   137  H    0.356921
   138  H    0.106889
   139  H    0.124209
   140  H    0.069144
   141  H    0.116394
   142  N   -0.814460
   143  C    0.538708
   144  C    0.420214
   145  O   -0.546834
   146  C   -0.348808
   147  H    0.369864
   148  H   -0.015845
   149  H    0.081341
   150  H    0.100347
   151  H    0.090890
   152  N   -0.405392
   153  C   -0.367494
   154  C    0.683926
   155  O   -0.545635
   156  C    0.281154
   157  C   -0.479840
   158  C    0.755756
   159  O   -0.710574
   160  O   -0.679217
   161  H    0.238931
   162  H    0.108222
   163  H   -0.001380
   164  H   -0.020768
   165  H    0.120251
   166  H    0.105841
   167  N   -0.369152
   168  C   -0.227417
   169  H    0.117474
   170  H    0.109966
   171  H    0.105301
   172  H    0.316789
   173  Ca   1.594363
   174  O   -0.867503
   175  H    0.443123
   176  H    0.439518
 Sum of ESP charges =   0.00000

 Normal termination of Gaussian 16 at Tue Sep 17 23:56:17 2019.
