 Gaussian 16, Revision A.03,
 Gaussian 16:  ES64L-G16RevA.03 25-Dec-2016

 ----------------------------------------------------------------------
 #b3lyp/svp scf=(tight,noincore) Test #IOP(5/87=12) Density=Current Pop
 =(MK,readradii) iop(6/33=2) iop(6/42=6)
 ----------------------------------------------------------------------

 -----------------
 Ng-295_loop3_22.0
 -----------------
 Symbolic Z-matrix:
 Charge =  0 Multiplicity = 1

                         Standard orientation:
 ---------------------------------------------------------------------
 Center     Atomic      Atomic             Coordinates (Angstroms)
 Number     Number       Type             X           Y           Z
 ---------------------------------------------------------------------
      1          6           0      -11.304275    5.373020    2.791560
      2          6           0      -10.403032    4.666548    1.800673
      3          8           0      -10.448935    4.805796    0.575968
      4          1           0      -10.724717    5.657171    3.670044
      5          1           0      -11.723676    6.266528    2.328600
      6          1           0      -12.111912    4.704504    3.089970
      7          7           0       -9.670031    3.649069    2.244348
      8          6           0       -8.843414    2.719882    1.493938
      9          6           0       -9.569121    1.457906    1.044757
     10          8           0       -9.540451    0.407256    1.683673
     11          6           0       -7.582720    2.449420    2.311252
     12          6           0       -6.412526    2.071035    1.411603
     13          8           0       -5.754987    2.903886    0.748577
     14          8           0       -6.067108    0.896950    1.156240
     15          1           0       -9.698538    3.525476    3.246303
     16          1           0       -8.505794    3.367563    0.677407
     17          1           0       -7.773282    1.689601    3.071226
     18          1           0       -7.395381    3.357990    2.878177
     19          7           0      -10.179527    1.531187   -0.134283
     20          6           0      -11.184477    0.637149   -0.681159
     21          6           0      -10.758082   -0.768697   -1.067402
     22          8           0      -11.582998   -1.554633   -1.523163
     23          6           0      -11.866910    1.338210   -1.845890
     24          6           0      -12.359205    2.743448   -1.513097
     25          6           0      -13.297046    3.242684   -2.607591
     26          6           0      -13.948478    4.595889   -2.302511
     27          7           0      -14.762137    4.569964   -1.074509
     28          1           0       -9.985308    2.361234   -0.686280
     29          1           0      -11.945346    0.402876    0.057553
     30          1           0      -12.715734    0.727779   -2.161915
     31          1           0      -11.214438    1.423626   -2.707450
     32          1           0      -11.470655    3.367024   -1.392134
     33          1           0      -12.911209    2.630114   -0.584255
     34          1           0      -14.135589    2.596240   -2.857303
     35          1           0      -12.793292    3.304169   -3.566158
     36          1           0      -14.480681    5.007863   -3.166477
     37          1           0      -13.130498    5.314359   -2.185424
     38          1           0      -15.490648    3.878510   -1.178732
     39          1           0      -14.238052    4.412212   -0.237103
     40          1           0      -15.143398    5.489490   -0.929215
     41          7           0       -9.501696   -1.191183   -0.849229
     42          6           0       -8.989221   -2.521433   -1.106726
     43          6           0       -8.402543   -3.235179    0.097631
     44          8           0       -8.228028   -4.451763    0.210624
     45          6           0       -8.166576   -2.539566   -2.390208
     46          6           0       -7.239450   -1.351799   -2.626318
     47          8           0       -6.783459   -1.094988   -3.763956
     48          8           0       -6.795664   -0.636630   -1.711065
     49          1           0       -8.915989   -0.565435   -0.321226
     50          1           0       -9.811014   -3.209209   -1.331717
     51          1           0       -8.857513   -2.711682   -3.208977
     52          1           0       -7.521883   -3.410705   -2.277118
     53          7           0       -8.051265   -2.425387    1.092186
     54          6           0       -7.334452   -2.833978    2.289780
     55          6           0       -5.960336   -3.344157    1.881096
     56          8           0       -5.430518   -4.258253    2.517979
     57          1           0       -8.156656   -1.430824    0.941397
     58          1           0       -7.883145   -3.655701    2.739900
     59          1           0       -7.173153   -2.078182    3.047708
     60          7           0       -5.345915   -2.741420    0.858504
     61          6           0       -3.997185   -3.093150    0.456865
     62          6           0       -3.099095   -1.881620    0.660406
     63          8           0       -3.445251   -0.789126    0.221620
     64          6           0       -4.068523   -3.455330   -1.022640
     65          6           0       -2.755516   -3.832466   -1.705488
     66          7           0       -2.806137   -4.817026   -2.597273
     67          8           0       -1.647633   -3.444959   -1.347113
     68          1           0       -5.862200   -2.086034    0.297683
     69          1           0       -3.591771   -3.913757    1.055231
     70          1           0       -4.596693   -2.680134   -1.581396
     71          1           0       -4.603495   -4.407328   -1.070657
     72          1           0       -3.682164   -5.194154   -2.949767
     73          1           0       -1.958420   -5.021189   -3.112533
     74          7           0       -2.039307   -2.096314    1.444150
     75          6           0       -1.136611   -1.099574    1.981224
     76          6           0        0.342923   -1.449394    1.979568
     77          8           0        1.182606   -0.693983    2.451147
     78          1           0       -1.899839   -3.036572    1.788045
     79          1           0       -1.443798   -0.773226    2.973662
     80          1           0       -1.365789   -0.195206    1.411577
     81          7           0        0.672221   -2.600864    1.384605
     82          6           0        2.075984   -2.952360    1.431487
     83          6           0        2.928560   -2.188606    0.427748
     84          8           0        2.449756   -2.068085   -0.700800
     85          6           0        2.203065   -4.450502    1.190821
     86          6           0        3.493560   -5.038757    1.683142
     87          6           0        4.563682   -5.371269    0.839001
     88          6           0        3.739495   -5.003926    3.063361
     89          6           0        5.773354   -5.828685    1.362130
     90          6           0        4.966633   -5.411593    3.609291
     91          6           0        5.997155   -5.858104    2.759143
     92          8           0        7.226794   -6.139473    3.255651
     93          1           0        0.002534   -3.313289    1.140740
     94          1           0        2.474088   -2.712890    2.419702
     95          1           0        2.090973   -4.605062    0.118418
     96          1           0        1.385961   -5.023266    1.632275
     97          1           0        4.337285   -5.477365   -0.216502
     98          1           0        2.957873   -4.625174    3.708430
     99          1           0        6.595644   -6.039301    0.687458
    100          1           0        5.174112   -5.152368    4.630249
    101          1           0        7.204920   -5.984333    4.201354
    102          7           0        4.117628   -1.693909    0.797064
    103          6           0        5.038861   -0.849409    0.055748
    104          6           0        5.779321   -1.579016   -1.050956
    105          8           0        5.263242   -2.454650   -1.740542
    106          6           0        4.591166    0.546872   -0.384783
    107          6           0        3.786056    1.339020    0.643760
    108          6           0        3.905465    0.590681   -1.740067
    109          6           0        4.595028    1.587729    1.911083
    110          1           0        4.497724   -1.971232    1.689879
    111          1           0        5.880609   -0.709988    0.733850
    112          1           0        5.537795    1.058464   -0.502538
    113          1           0        2.806491    0.882090    0.790276
    114          1           0        3.652141    2.338904    0.213761
    115          1           0        2.994289   -0.014314   -1.664962
    116          1           0        3.792294    1.637553   -2.016567
    117          1           0        4.491737    0.107318   -2.524761
    118          1           0        3.995789    2.081798    2.677966
    119          1           0        4.744637    0.657345    2.466873
    120          1           0        5.501997    2.095461    1.595307
    121          7           0        6.980419   -1.130593   -1.414384
    122          6           0        7.754010   -1.740883   -2.473489
    123          6           0        9.250697   -1.619105   -2.232244
    124          8           0       10.010661   -2.089902   -3.085300
    125          6           0        7.268474   -1.128874   -3.778939
    126          8           0        7.619423    0.231682   -3.845450
    127          1           0        7.442485   -0.485381   -0.790288
    128          1           0        7.558170   -2.807649   -2.579110
    129          1           0        6.204441   -1.360223   -3.744133
    130          1           0        7.570843   -1.698806   -4.661634
    131          1           0        8.478511    0.485583   -4.189108
    132          7           0        9.726944   -1.040805   -1.130946
    133          6           0       11.100186   -0.835584   -0.727225
    134          6           0       11.966967   -0.184355   -1.803325
    135          8           0       12.701777   -0.872803   -2.521861
    136          6           0       11.697806   -2.199683   -0.370878
    137          1           0        8.965842   -0.788977   -0.509733
    138          1           0       11.184495   -0.254683    0.194972
    139          1           0       11.471354   -2.975077   -1.093155
    140          1           0       12.773007   -2.069223   -0.395855
    141          1           0       11.322058   -2.504297    0.612242
    142          7           0       11.937341    1.141890   -1.972724
    143          6           0       11.039409    2.074958   -1.325266
    144          6           0       11.774177    3.237704   -0.684066
    145          8           0       12.839328    3.587511   -1.193073
    146          6           0        9.999345    2.566827   -2.338543
    147          1           0       12.523418    1.529533   -2.688508
    148          1           0       10.600815    1.593062   -0.442253
    149          1           0        9.109293    3.016794   -1.897365
    150          1           0       10.360604    3.405747   -2.928208
    151          1           0        9.689219    1.722916   -2.956877
    152          7           0       11.320080    4.015277    0.304760
    153          6           0        9.979866    4.020738    0.845772
    154          6           0        9.954368    4.261129    2.345026
    155          8           0        8.888329    4.086200    2.920492
    156          6           0        9.041571    4.987710    0.116959
    157          6           0        7.566211    4.609880    0.132973
    158          6           0        6.718187    5.804747   -0.271933
    159          8           0        6.396883    6.692846    0.540683
    160          8           0        6.447993    5.872363   -1.488700
    161          1           0       11.896148    4.823292    0.517031
    162          1           0        9.512383    3.040586    0.737318
    163          1           0        9.310921    5.077624   -0.934595
    164          1           0        9.224518    6.010011    0.452269
    165          1           0        7.270396    4.349306    1.151745
    166          1           0        7.266946    3.646920   -0.295336
    167          7           0       11.071874    4.631407    2.983598
    168          6           0       11.092063    5.017490    4.379962
    169          1           0       11.844439    4.431343    4.907096
    170          1           0       11.334628    6.076886    4.460613
    171          1           0       10.113635    4.833589    4.822816
    172          1           0       11.880854    4.853415    2.410219
    173         20           0       -4.909599    1.336357   -1.162724
    174          8           0       -2.732018    1.895143    0.063817
    175          1           0       -1.789882    1.906271   -0.098833
    176          1           0       -2.815278    2.055094    1.006570
 ---------------------------------------------------------------------

 SCF Done:  E(RB3LYP) =  -5333.29773418     A.U. after   81 cycles

 The electronic state is 1-A.
 Alpha  occ. eigenvalues -- -145.47991 -19.20886 -19.16320 -19.14613 -19.14552
 Alpha  occ. eigenvalues --  -19.13135 -19.10760 -19.10753 -19.10385 -19.10139
 Alpha  occ. eigenvalues --  -19.09629 -19.09124 -19.09051 -19.08462 -19.07809
 Alpha  occ. eigenvalues --  -19.07448 -19.07265 -19.06983 -19.06968 -19.06487
 Alpha  occ. eigenvalues --  -19.06177 -19.04137 -18.97203 -18.97106 -15.53806
 Alpha  occ. eigenvalues --  -14.57132 -14.40698 -14.40457 -14.38406 -14.36259
 Alpha  occ. eigenvalues --  -14.36101 -14.36014 -14.35290 -14.35219 -14.35084
 Alpha  occ. eigenvalues --  -14.34583 -14.34466 -14.34014 -14.33995 -14.33015
 Alpha  occ. eigenvalues --  -12.67410 -12.67388 -12.67341 -10.35172 -10.33801
 Alpha  occ. eigenvalues --  -10.33209 -10.31023 -10.30048 -10.29410 -10.29400
 Alpha  occ. eigenvalues --  -10.29323 -10.28764 -10.28085 -10.28038 -10.27961
 Alpha  occ. eigenvalues --  -10.27588 -10.26675 -10.26664 -10.26529 -10.26469
 Alpha  occ. eigenvalues --  -10.26309 -10.25846 -10.25635 -10.25503 -10.25424
 Alpha  occ. eigenvalues --  -10.25008 -10.24818 -10.24658 -10.24638 -10.23087
 Alpha  occ. eigenvalues --  -10.22832 -10.22756 -10.22604 -10.22554 -10.22257
 Alpha  occ. eigenvalues --  -10.22201 -10.21319 -10.21155 -10.21074 -10.20897
 Alpha  occ. eigenvalues --  -10.20481 -10.18996 -10.18978 -10.18862 -10.18598
 Alpha  occ. eigenvalues --  -10.18570 -10.18517 -10.18287 -10.16917 -10.16642
 Alpha  occ. eigenvalues --  -10.16178 -10.15396 -10.15003 -10.14692 -10.14510
 Alpha  occ. eigenvalues --  -10.13293 -10.10519  -1.90330  -1.17719  -1.17561
 Alpha  occ. eigenvalues --   -1.17247  -1.13022  -1.08210  -1.07394  -1.06733
 Alpha  occ. eigenvalues --   -1.05664  -1.05541  -1.05370  -1.04202  -1.03739
 Alpha  occ. eigenvalues --   -1.03324  -1.02458  -1.01854  -1.01559  -1.01232
 Alpha  occ. eigenvalues --   -1.01160  -1.00701  -1.00018  -0.99916  -0.98952
 Alpha  occ. eigenvalues --   -0.98319  -0.97567  -0.96893  -0.95250  -0.93398
 Alpha  occ. eigenvalues --   -0.92832  -0.92475  -0.92260  -0.91931  -0.91466
 Alpha  occ. eigenvalues --   -0.90959  -0.90711  -0.90670  -0.90578  -0.90236
 Alpha  occ. eigenvalues --   -0.89831  -0.89695  -0.89369  -0.89193  -0.84962
 Alpha  occ. eigenvalues --   -0.84654  -0.83154  -0.81514  -0.80209  -0.79766
 Alpha  occ. eigenvalues --   -0.79516  -0.78464  -0.78214  -0.77607  -0.76614
 Alpha  occ. eigenvalues --   -0.75631  -0.75378  -0.74804  -0.74378  -0.73833
 Alpha  occ. eigenvalues --   -0.73582  -0.73385  -0.72386  -0.72283  -0.70867
 Alpha  occ. eigenvalues --   -0.70480  -0.70099  -0.69985  -0.68558  -0.68364
 Alpha  occ. eigenvalues --   -0.66823  -0.66199  -0.65555  -0.65341  -0.64886
 Alpha  occ. eigenvalues --   -0.64830  -0.64782  -0.63372  -0.63211  -0.62412
 Alpha  occ. eigenvalues --   -0.62052  -0.61944  -0.61134  -0.60788  -0.59939
 Alpha  occ. eigenvalues --   -0.59871  -0.59828  -0.59373  -0.59278  -0.59182
 Alpha  occ. eigenvalues --   -0.58825  -0.58290  -0.58215  -0.57969  -0.57942
 Alpha  occ. eigenvalues --   -0.57740  -0.57280  -0.56562  -0.56423  -0.55977
 Alpha  occ. eigenvalues --   -0.55541  -0.55091  -0.54768  -0.54565  -0.54412
 Alpha  occ. eigenvalues --   -0.54255  -0.53991  -0.53777  -0.52821  -0.52530
 Alpha  occ. eigenvalues --   -0.52219  -0.52043  -0.51884  -0.51474  -0.51205
 Alpha  occ. eigenvalues --   -0.50826  -0.50789  -0.50528  -0.50436  -0.50313
 Alpha  occ. eigenvalues --   -0.50212  -0.49748  -0.48747  -0.48627  -0.48478
 Alpha  occ. eigenvalues --   -0.48096  -0.47824  -0.47733  -0.47533  -0.47335
 Alpha  occ. eigenvalues --   -0.47220  -0.46780  -0.46564  -0.46356  -0.46285
 Alpha  occ. eigenvalues --   -0.46136  -0.45884  -0.45760  -0.45503  -0.45450
 Alpha  occ. eigenvalues --   -0.45167  -0.45002  -0.44768  -0.44726  -0.44704
 Alpha  occ. eigenvalues --   -0.44596  -0.44402  -0.44190  -0.44078  -0.43956
 Alpha  occ. eigenvalues --   -0.43753  -0.43628  -0.43544  -0.43229  -0.42967
 Alpha  occ. eigenvalues --   -0.42921  -0.42871  -0.42765  -0.42472  -0.42382
 Alpha  occ. eigenvalues --   -0.42224  -0.42012  -0.41690  -0.41406  -0.41334
 Alpha  occ. eigenvalues --   -0.41255  -0.41067  -0.41013  -0.40719  -0.40678
 Alpha  occ. eigenvalues --   -0.40637  -0.40475  -0.40334  -0.40090  -0.39712
 Alpha  occ. eigenvalues --   -0.39595  -0.39518  -0.39388  -0.39221  -0.39201
 Alpha  occ. eigenvalues --   -0.39077  -0.39017  -0.38638  -0.38513  -0.38373
 Alpha  occ. eigenvalues --   -0.38217  -0.38149  -0.38108  -0.37936  -0.37852
 Alpha  occ. eigenvalues --   -0.37291  -0.37266  -0.37193  -0.37113  -0.36976
 Alpha  occ. eigenvalues --   -0.36684  -0.36248  -0.36146  -0.36014  -0.35805
 Alpha  occ. eigenvalues --   -0.35382  -0.35343  -0.35042  -0.34987  -0.34896
 Alpha  occ. eigenvalues --   -0.34654  -0.34404  -0.34361  -0.33644  -0.33317
 Alpha  occ. eigenvalues --   -0.33280  -0.33189  -0.33068  -0.32915  -0.32727
 Alpha  occ. eigenvalues --   -0.32452  -0.32007  -0.31644  -0.30907  -0.30562
 Alpha  occ. eigenvalues --   -0.30138  -0.29973  -0.29827  -0.29701  -0.29447
 Alpha  occ. eigenvalues --   -0.29371  -0.29188  -0.29105  -0.27924  -0.27894
 Alpha  occ. eigenvalues --   -0.27627  -0.27247  -0.27147  -0.26904  -0.26882
 Alpha  occ. eigenvalues --   -0.26627  -0.26570  -0.26377  -0.26256  -0.25636
 Alpha  occ. eigenvalues --   -0.25602  -0.25352  -0.25176  -0.25060  -0.24488
 Alpha  occ. eigenvalues --   -0.24403  -0.23931  -0.23742  -0.23709  -0.23510
 Alpha  occ. eigenvalues --   -0.23481  -0.23262  -0.23126  -0.22939  -0.22540
 Alpha  occ. eigenvalues --   -0.22171  -0.21593  -0.21437  -0.21350  -0.19798
 Alpha  occ. eigenvalues --   -0.14236  -0.13913  -0.11162
 Alpha virt. eigenvalues --   -0.10659  -0.10264  -0.05377  -0.04634  -0.04302
 Alpha virt. eigenvalues --   -0.02744  -0.01646  -0.01381  -0.01223  -0.00874
 Alpha virt. eigenvalues --   -0.00602   0.00027   0.00044   0.00354   0.00913

 Mulliken charges:
               1
     1  C    0.040763
     2  C    0.025135
     3  O   -0.319917
     4  H    0.042957
     5  H    0.028542
     6  H    0.041556
     7  N   -0.129749
     8  C    0.043289
     9  C    0.109412
    10  O   -0.265146
    11  C    0.160451
    12  C    0.066344
    13  O   -0.456769
    14  O   -0.403297
    15  H    0.115119
    16  H    0.015088
    17  H    0.017676
    18  H   -0.006203
    19  N   -0.134546
    20  C    0.176621
    21  C    0.049463
    22  O   -0.283908
    23  C   -0.034151
    24  C    0.025446
    25  C   -0.019627
    26  C    0.041491
    27  N    0.160937
    28  H    0.133848
    29  H    0.021295
    30  H    0.029041
    31  H    0.014246
    32  H    0.038111
    33  H   -0.033347
    34  H    0.015922
    35  H    0.038923
    36  H    0.064742
    37  H    0.060175
    38  H    0.114991
    39  H    0.118986
    40  H    0.100437
    41  N   -0.116958
    42  C    0.119958
    43  C    0.037344
    44  O   -0.270561
    45  C    0.094810
    46  C    0.062631
    47  O   -0.360445
    48  O   -0.450878
    49  H    0.126405
    50  H    0.028294
    51  H    0.020448
    52  H    0.011538
    53  N   -0.175265
    54  C    0.275430
    55  C    0.003056
    56  O   -0.288187
    57  H    0.118055
    58  H    0.022240
    59  H    0.041144
    60  N   -0.131366
    61  C    0.091222
    62  C    0.161490
    63  O   -0.341277
    64  C    0.030769
    65  C    0.010913
    66  N   -0.049874
    67  O   -0.271170
    68  H    0.122131
    69  H    0.003492
    70  H    0.052354
    71  H    0.036170
    72  H    0.123955
    73  H    0.135785
    74  N   -0.148536
    75  C    0.232321
    76  C    0.051755
    77  O   -0.272555
    78  H    0.129430
    79  H    0.029274
    80  H   -0.009981
    81  N   -0.102783
    82  C    0.102349
    83  C    0.101217
    84  O   -0.264731
    85  C    0.146460
    86  C   -0.065931
    87  C    0.013856
    88  C   -0.041147
    89  C   -0.021008
    90  C   -0.038927
    91  C    0.152535
    92  O   -0.178432
    93  H    0.117331
    94  H   -0.014131
    95  H    0.012610
    96  H   -0.009823
    97  H   -0.000769
    98  H   -0.027399
    99  H   -0.011598
   100  H   -0.037284
   101  H    0.170624
   102  N   -0.106637
   103  C    0.157305
   104  C    0.048418
   105  O   -0.264278
   106  C   -0.101313
   107  C    0.032048
   108  C    0.080958
   109  C    0.034158
   110  H    0.126275
   111  H   -0.036825
   112  H   -0.024616
   113  H    0.002795
   114  H    0.009787
   115  H    0.022599
   116  H    0.009083
   117  H    0.009743
   118  H    0.002999
   119  H   -0.026447
   120  H    0.033185
   121  N   -0.149443
   122  C    0.126664
   123  C    0.010997
   124  O   -0.272479
   125  C    0.261545
   126  O   -0.338371
   127  H    0.108517
   128  H    0.027357
   129  H    0.018884
   130  H   -0.000533
   131  H    0.190734
   132  N   -0.105655
   133  C   -0.000022
   134  C    0.070858
   135  O   -0.250749
   136  C    0.097427
   137  H    0.085902
   138  H    0.026954
   139  H    0.038921
   140  H    0.014556
   141  H   -0.014084
   142  N   -0.084048
   143  C    0.043046
   144  C    0.043976
   145  O   -0.288839
   146  C    0.068489
   147  H    0.125313
   148  H   -0.004075
   149  H    0.044965
   150  H    0.026800
   151  H   -0.012028
   152  N   -0.090364
   153  C    0.069061
   154  C    0.064539
   155  O   -0.260172
   156  C    0.065899
   157  C    0.044816
   158  C    0.042141
   159  O   -0.336063
   160  O   -0.346584
   161  H    0.121565
   162  H    0.006832
   163  H   -0.006525
   164  H   -0.007996
   165  H   -0.006177
   166  H   -0.038365
   167  N   -0.156587
   168  C    0.122586
   169  H    0.016735
   170  H    0.022344
   171  H    0.053038
   172  H    0.101180
   173  Ca   1.383918
   174  O   -0.312245
   175  H    0.202833
   176  H    0.210043
 Sum of Mulliken charges =  -0.00000

 Dipole moment (field-independent basis, Debye):
    X=            -61.0573    Y=              9.5088    Z=              6.6340  Tot=             62.1484
 Quadrupole moment (field-independent basis, Debye-Ang):
   XX=           -145.3974   YY=           -618.2744   ZZ=           -548.0857
   XY=           -363.8213   XZ=            130.5548   YZ=            -11.6996

 ESP charges:
               1
     1  C   -0.444981
     2  C    0.649767
     3  O   -0.604917
     4  H    0.129821
     5  H    0.131953
     6  H    0.119312
     7  N   -0.431904
     8  C    0.136710
     9  C    0.518123
    10  O   -0.494473
    11  C   -0.253749
    12  C    0.849543
    13  O   -0.830038
    14  O   -0.749232
    15  H    0.267107
    16  H    0.064164
    17  H    0.080695
    18  H    0.075315
    19  N   -0.592611
    20  C    0.205511
    21  C    0.420454
    22  O   -0.537586
    23  C    0.012493
    24  C   -0.041872
    25  C   -0.069717
    26  C    0.051282
    27  N   -0.329843
    28  H    0.286231
    29  H    0.064499
    30  H    0.004111
    31  H    0.038466
    32  H    0.071442
    33  H   -0.001491
    34  H    0.050391
    35  H    0.066613
    36  H    0.078339
    37  H    0.066389
    38  H    0.266291
    39  H    0.266861
    40  H    0.246194
    41  N   -0.398287
    42  C    0.282042
    43  C    0.273084
    44  O   -0.485295
    45  C   -0.386608
    46  C    0.871095
    47  O   -0.704944
    48  O   -0.918473
    49  H    0.267364
    50  H    0.081779
    51  H    0.118437
    52  H    0.077780
    53  N   -0.086939
    54  C   -0.279339
    55  C    0.620714
    56  O   -0.574776
    57  H    0.104829
    58  H    0.144389
    59  H    0.137299
    60  N   -0.428192
    61  C    0.108987
    62  C    0.305092
    63  O   -0.462965
    64  C   -0.317448
    65  C    0.688592
    66  N   -0.792201
    67  O   -0.576126
    68  H    0.324851
    69  H    0.095065
    70  H    0.111355
    71  H    0.135739
    72  H    0.349845
    73  H    0.384841
    74  N   -0.174924
    75  C   -0.150293
    76  C    0.566719
    77  O   -0.532733
    78  H    0.209341
    79  H    0.088034
    80  H    0.099077
    81  N   -0.483091
    82  C    0.121212
    83  C    0.651834
    84  O   -0.533421
    85  C   -0.226183
    86  C    0.058896
    87  C   -0.164103
    88  C   -0.105395
    89  C   -0.251605
    90  C   -0.374292
    91  C    0.408417
    92  O   -0.541299
    93  H    0.325025
    94  H    0.023967
    95  H    0.103360
    96  H    0.077096
    97  H    0.145853
    98  H    0.125019
    99  H    0.163932
   100  H    0.152607
   101  H    0.405500
   102  N   -0.584838
   103  C    0.095355
   104  C    0.503922
   105  O   -0.490796
   106  C    0.470246
   107  C    0.016990
   108  C   -0.658812
   109  C   -0.255489
   110  H    0.314573
   111  H   -0.015671
   112  H   -0.058513
   113  H   -0.006993
   114  H    0.015562
   115  H    0.154812
   116  H    0.129972
   117  H    0.198920
   118  H    0.085179
   119  H    0.038214
   120  H    0.044818
   121  N   -0.330110
   122  C   -0.383798
   123  C    0.614792
   124  O   -0.524636
   125  C    0.348784
   126  O   -0.690864
   127  H    0.209442
   128  H    0.176615
   129  H    0.047537
   130  H    0.004049
   131  H    0.431633
   132  N   -0.357500
   133  C    0.122499
   134  C    0.713719
   135  O   -0.537066
   136  C   -0.387052
   137  H    0.231940
   138  H    0.073357
   139  H    0.140695
   140  H    0.093658
   141  H    0.079178
   142  N   -0.796140
   143  C    0.197236
   144  C    0.754529
   145  O   -0.586444
   146  C   -0.188064
   147  H    0.389859
   148  H    0.014064
   149  H    0.030352
   150  H    0.087251
   151  H    0.084417
   152  N   -0.856793
   153  C    0.079598
   154  C    0.494892
   155  O   -0.519472
   156  C    0.075552
   157  C   -0.258333
   158  C    0.729609
   159  O   -0.644405
   160  O   -0.644902
   161  H    0.393472
   162  H    0.059505
   163  H    0.045926
   164  H    0.027534
   165  H    0.050103
   166  H    0.057289
   167  N   -0.339829
   168  C   -0.035740
   169  H    0.038478
   170  H    0.053962
   171  H    0.088496
   172  H    0.267656
   173  Ca   1.643091
   174  O   -0.824918
   175  H    0.426513
   176  H    0.435541
 Sum of ESP charges =   0.00000

 Normal termination of Gaussian 16 at Wed Sep 18 00:08:28 2019.
