 Gaussian 16, Revision A.03,
 Gaussian 16:  ES64L-G16RevA.03 25-Dec-2016

 ----------------------------------------------------------------------
 #b3lyp/svp scf=(tight,noincore) Test #IOP(5/87=12) Density=Current Pop
 =(MK,readradii) iop(6/33=2) iop(6/42=6)
 ----------------------------------------------------------------------

 -----------------
 Ng-293_loop3_60.0
 -----------------
 Symbolic Z-matrix:
 Charge =  0 Multiplicity = 1

                         Standard orientation:
 ---------------------------------------------------------------------
 Center     Atomic      Atomic             Coordinates (Angstroms)
 Number     Number       Type             X           Y           Z
 ---------------------------------------------------------------------
      1          6           0       -8.861128   -2.449157    7.342753
      2          6           0       -9.308057   -2.242289    5.908717
      3          8           0      -10.495286   -2.180604    5.627320
      4          1           0       -7.847213   -2.849541    7.352254
      5          1           0       -8.879762   -1.495498    7.871150
      6          1           0       -9.532778   -3.152069    7.835836
      7          7           0       -8.459173   -2.256833    4.873108
      8          6           0       -8.883742   -2.340612    3.496728
      9          6           0       -7.801381   -1.781577    2.570188
     10          8           0       -6.632530   -1.724783    2.925239
     11          6           0       -9.074812   -3.814289    3.180235
     12          6           0       -9.891140   -4.051720    1.916615
     13          8           0      -10.425807   -3.027269    1.434609
     14          8           0      -10.064929   -5.179081    1.426150
     15          1           0       -7.491766   -2.055392    5.104071
     16          1           0       -9.828272   -1.815027    3.352426
     17          1           0       -9.735301   -4.202020    3.956842
     18          1           0       -8.170994   -4.419514    3.251053
     19          7           0       -8.181221   -1.352632    1.365893
     20          6           0       -7.451735   -0.840308    0.222794
     21          6           0       -6.583300   -1.822687   -0.546330
     22          8           0       -6.697819   -3.020122   -0.306469
     23          6           0       -6.858224    0.543046    0.467290
     24          6           0       -7.811312    1.559495    1.087172
     25          6           0       -9.089625    1.631779    0.252792
     26          6           0      -10.128436    2.579734    0.843346
     27          7           0      -11.360976    2.523284    0.036031
     28          1           0       -9.163213   -1.522488    1.202677
     29          1           0       -8.218030   -0.682000   -0.532606
     30          1           0       -6.430042    0.964136   -0.441304
     31          1           0       -6.016431    0.438061    1.163897
     32          1           0       -7.435127    2.568991    1.206768
     33          1           0       -8.009280    1.300082    2.135272
     34          1           0       -9.563344    0.651169    0.221245
     35          1           0       -8.824554    1.908183   -0.765166
     36          1           0       -9.780973    3.610617    0.799181
     37          1           0      -10.297616    2.276649    1.875198
     38          1           0      -11.950119    3.341389    0.116744
     39          1           0      -11.060531    2.312467   -0.902153
     40          1           0      -11.925985    1.686444    0.133311
     41          7           0       -5.865302   -1.348965   -1.569105
     42          6           0       -5.037339   -2.168546   -2.422839
     43          6           0       -3.663561   -2.490992   -1.842439
     44          8           0       -3.031461   -1.583124   -1.316298
     45          6           0       -4.784460   -1.618077   -3.823602
     46          6           0       -4.197827   -0.210273   -3.909341
     47          8           0       -3.391886    0.080058   -4.818828
     48          8           0       -4.617110    0.706323   -3.170793
     49          1           0       -5.632286   -0.371329   -1.580610
     50          1           0       -5.527533   -3.140440   -2.525467
     51          1           0       -5.734007   -1.644287   -4.352349
     52          1           0       -4.162362   -2.368881   -4.297614
     53          7           0       -3.288459   -3.765959   -1.942224
     54          6           0       -2.092501   -4.289568   -1.326986
     55          6           0       -0.950900   -4.242533   -2.335666
     56          8           0       -0.949970   -4.875040   -3.391192
     57          1           0       -3.894059   -4.443329   -2.388563
     58          1           0       -2.225335   -5.324493   -1.051697
     59          1           0       -1.771038   -3.662541   -0.491762
     60          7           0        0.127521   -3.504135   -2.077253
     61          6           0        1.287093   -3.139770   -2.866892
     62          6           0        2.648376   -3.553213   -2.310229
     63          8           0        3.724226   -3.019921   -2.557509
     64          6           0        1.219541   -1.652547   -3.186584
     65          6           0        0.005162   -1.325891   -4.031321
     66          7           0       -0.806895   -0.325523   -3.659938
     67          8           0       -0.244016   -1.983785   -5.043243
     68          1           0        0.053999   -2.903726   -1.273323
     69          1           0        1.229876   -3.652619   -3.823925
     70          1           0        2.025478   -1.368354   -3.870323
     71          1           0        1.385713   -1.107697   -2.257915
     72          1           0       -0.588514    0.198798   -2.835925
     73          1           0       -1.560694   -0.148672   -4.307635
     74          7           0        2.703094   -4.724049   -1.675841
     75          6           0        3.854940   -5.471126   -1.221278
     76          6           0        4.761077   -4.748261   -0.235488
     77          8           0        4.383857   -4.330518    0.859818
     78          1           0        1.857914   -5.276216   -1.646128
     79          1           0        4.372736   -5.796852   -2.124045
     80          1           0        3.528550   -6.399775   -0.737563
     81          7           0        6.036488   -4.521256   -0.555325
     82          6           0        6.965599   -3.576278    0.021885
     83          6           0        6.454069   -2.162002    0.287141
     84          8           0        7.013015   -1.549876    1.189294
     85          6           0        7.688800   -4.267933    1.180502
     86          6           0        9.122963   -4.000535    1.519578
     87          6           0        9.597335   -3.817492    2.822024
     88          6           0       10.050316   -4.047548    0.470242
     89          6           0       10.968385   -3.805568    3.120486
     90          6           0       11.422751   -3.930271    0.709552
     91          6           0       11.867771   -3.810012    2.036426
     92          8           0       13.211041   -3.695882    2.269449
     93          1           0        6.382645   -4.904838   -1.428216
     94          1           0        7.714789   -3.344615   -0.738145
     95          1           0        7.560329   -5.343475    1.074174
     96          1           0        7.187862   -4.042875    2.119071
     97          1           0        8.941748   -3.801666    3.691999
     98          1           0        9.794992   -4.243498   -0.569428
     99          1           0       11.283297   -3.513578    4.106068
    100          1           0       12.131802   -3.883018   -0.105992
    101          1           0       13.728572   -3.775280    1.467291
    102          7           0        5.356024   -1.692915   -0.309645
    103          6           0        4.769316   -0.395491   -0.066615
    104          6           0        5.631707    0.748782   -0.567937
    105          8           0        5.074767    1.619144   -1.235310
    106          6           0        4.266416   -0.183293    1.364630
    107          6           0        3.597447   -1.389272    2.017544
    108          6           0        3.411233    1.074592    1.441353
    109          6           0        2.317772   -1.917247    1.378580
    110          1           0        4.882421   -2.289505   -0.979257
    111          1           0        3.916791   -0.301786   -0.739609
    112          1           0        5.159013    0.008291    1.963433
    113          1           0        3.284876   -1.083862    3.012343
    114          1           0        4.379879   -2.145919    2.138728
    115          1           0        3.993537    1.974069    1.280217
    116          1           0        2.698418    1.018438    0.624750
    117          1           0        2.948245    1.102269    2.429925
    118          1           0        2.467787   -2.122118    0.324055
    119          1           0        2.253366   -2.946314    1.747053
    120          1           0        1.395456   -1.354059    1.541837
    121          7           0        6.875040    0.939136   -0.132176
    122          6           0        7.612874    2.163228   -0.397883
    123          6           0        7.030833    3.476862    0.117572
    124          8           0        7.150289    4.528912   -0.485936
    125          6           0        9.057032    1.992133    0.066589
    126          8           0        9.020778    1.977141    1.482803
    127          1           0        7.288420    0.267635    0.497191
    128          1           0        7.688765    2.221612   -1.478916
    129          1           0        9.726909    2.673679   -0.455292
    130          1           0        9.429471    1.023112   -0.269396
    131          1           0        9.664700    1.343613    1.803126
    132          7           0        6.450746    3.394963    1.322433
    133          6           0        5.820926    4.509037    2.000346
    134          6           0        4.582478    5.150830    1.379905
    135          8           0        4.280227    6.277882    1.772459
    136          6           0        6.809688    5.521630    2.569207
    137          1           0        6.626024    2.521561    1.789495
    138          1           0        5.300706    4.071763    2.850913
    139          1           0        6.331772    6.217919    3.260567
    140          1           0        7.608383    5.106803    3.191385
    141          1           0        7.383882    5.945637    1.745302
    142          7           0        3.829229    4.485027    0.499324
    143          6           0        2.708588    4.936007   -0.285774
    144          6           0        1.425203    4.962465    0.532654
    145          8           0        1.172911    4.180733    1.442074
    146          6           0        2.541236    4.074040   -1.527388
    147          1           0        4.212458    3.565176    0.327247
    148          1           0        2.874376    5.959640   -0.644648
    149          1           0        2.590209    3.001794   -1.297409
    150          1           0        1.687434    4.427993   -2.102052
    151          1           0        3.425895    4.284521   -2.125865
    152          7           0        0.595481    5.944251    0.184146
    153          6           0       -0.775335    6.083892    0.635770
    154          6           0       -1.065802    6.055164    2.124697
    155          8           0       -2.212499    5.840894    2.509113
    156          6           0       -1.601290    5.080565   -0.168054
    157          6           0       -1.472752    5.287864   -1.679148
    158          6           0       -2.254646    4.331343   -2.567636
    159          8           0       -2.785489    4.792411   -3.596529
    160          8           0       -2.212291    3.097394   -2.400970
    161          1           0        0.947453    6.606267   -0.491538
    162          1           0       -1.122831    7.070524    0.322395
    163          1           0       -2.663666    5.258026    0.026793
    164          1           0       -1.318625    4.080314    0.134761
    165          1           0       -0.441442    5.295613   -2.045262
    166          1           0       -1.765898    6.308048   -1.943326
    167          7           0       -0.048152    6.217076    2.969430
    168          6           0       -0.149298    6.144433    4.413311
    169          1           0       -0.229296    5.101186    4.719648
    170          1           0        0.738705    6.587151    4.863195
    171          1           0       -1.034017    6.688907    4.743945
    172          1           0        0.853996    6.332465    2.528279
    173         20           0       -3.832641    2.653892   -4.873756
    174          8           0       -5.947327    3.478728   -3.636725
    175          1           0       -6.345938    3.785310   -2.815984
    176          1           0       -6.683558    3.254521   -4.196989
 ---------------------------------------------------------------------

 SCF Done:  E(RB3LYP) =  -5333.37936687     A.U. after   37 cycles

 The electronic state is 1-A.
 Alpha  occ. eigenvalues -- -145.47101 -19.22970 -19.16036 -19.14570 -19.11778
 Alpha  occ. eigenvalues --  -19.10707 -19.10198 -19.09914 -19.09187 -19.08896
 Alpha  occ. eigenvalues --  -19.08782 -19.08363 -19.08315 -19.08123 -19.07292
 Alpha  occ. eigenvalues --  -19.07043 -19.06626 -19.06587 -19.06495 -19.05993
 Alpha  occ. eigenvalues --  -19.05031 -19.04009 -18.98099 -18.97494 -15.53017
 Alpha  occ. eigenvalues --  -14.58638 -14.37263 -14.37037 -14.35787 -14.35756
 Alpha  occ. eigenvalues --  -14.35160 -14.34751 -14.34396 -14.34090 -14.33519
 Alpha  occ. eigenvalues --  -14.33231 -14.32620 -14.31581 -14.31517 -14.30175
 Alpha  occ. eigenvalues --  -12.66615 -12.66591 -12.66528 -10.35015 -10.30326
 Alpha  occ. eigenvalues --  -10.30128 -10.29002 -10.28761 -10.27820 -10.27396
 Alpha  occ. eigenvalues --  -10.27322 -10.27072 -10.26994 -10.26502 -10.26478
 Alpha  occ. eigenvalues --  -10.26340 -10.25948 -10.25764 -10.25632 -10.25186
 Alpha  occ. eigenvalues --  -10.24991 -10.24790 -10.24567 -10.24500 -10.24294
 Alpha  occ. eigenvalues --  -10.23611 -10.23386 -10.23339 -10.23315 -10.22408
 Alpha  occ. eigenvalues --  -10.22391 -10.22389 -10.22209 -10.22202 -10.21986
 Alpha  occ. eigenvalues --  -10.20433 -10.20137 -10.19452 -10.19436 -10.19246
 Alpha  occ. eigenvalues --  -10.19160 -10.19160 -10.19046 -10.18848 -10.18774
 Alpha  occ. eigenvalues --  -10.17798 -10.17579 -10.17288 -10.17219 -10.16575
 Alpha  occ. eigenvalues --  -10.16499 -10.16313 -10.15952 -10.15787 -10.15779
 Alpha  occ. eigenvalues --  -10.15712 -10.11181  -1.89719  -1.17250  -1.16901
 Alpha  occ. eigenvalues --   -1.16558  -1.14060  -1.09080  -1.05395  -1.04852
 Alpha  occ. eigenvalues --   -1.04699  -1.04336  -1.03527  -1.02979  -1.02442
 Alpha  occ. eigenvalues --   -1.01991  -1.01784  -1.01611  -1.01306  -1.00973
 Alpha  occ. eigenvalues --   -1.00505  -0.99972  -0.99508  -0.99289  -0.99261
 Alpha  occ. eigenvalues --   -0.98049  -0.93904  -0.93825  -0.93573  -0.92565
 Alpha  occ. eigenvalues --   -0.92197  -0.92059  -0.91918  -0.91693  -0.91677
 Alpha  occ. eigenvalues --   -0.90648  -0.90489  -0.90002  -0.89880  -0.89856
 Alpha  occ. eigenvalues --   -0.88825  -0.88426  -0.86574  -0.86532  -0.85079
 Alpha  occ. eigenvalues --   -0.82604  -0.81407  -0.80337  -0.79674  -0.79003
 Alpha  occ. eigenvalues --   -0.78512  -0.78362  -0.77175  -0.76255  -0.75811
 Alpha  occ. eigenvalues --   -0.75686  -0.74612  -0.74331  -0.74117  -0.73392
 Alpha  occ. eigenvalues --   -0.73273  -0.72452  -0.72077  -0.71505  -0.70657
 Alpha  occ. eigenvalues --   -0.69451  -0.69357  -0.68505  -0.67877  -0.67715
 Alpha  occ. eigenvalues --   -0.66211  -0.65581  -0.65415  -0.64490  -0.63305
 Alpha  occ. eigenvalues --   -0.62903  -0.62579  -0.62457  -0.62202  -0.62129
 Alpha  occ. eigenvalues --   -0.61507  -0.61031  -0.60758  -0.60130  -0.59989
 Alpha  occ. eigenvalues --   -0.59739  -0.59156  -0.58893  -0.58123  -0.58000
 Alpha  occ. eigenvalues --   -0.57880  -0.57314  -0.56545  -0.56228  -0.55774
 Alpha  occ. eigenvalues --   -0.55719  -0.55452  -0.55277  -0.55083  -0.55041
 Alpha  occ. eigenvalues --   -0.54682  -0.54202  -0.53540  -0.53180  -0.53100
 Alpha  occ. eigenvalues --   -0.52808  -0.52652  -0.52576  -0.52309  -0.51882
 Alpha  occ. eigenvalues --   -0.51514  -0.50784  -0.50657  -0.50497  -0.50402
 Alpha  occ. eigenvalues --   -0.49660  -0.49526  -0.49465  -0.49175  -0.48600
 Alpha  occ. eigenvalues --   -0.48284  -0.48249  -0.47892  -0.47489  -0.47200
 Alpha  occ. eigenvalues --   -0.47017  -0.46866  -0.46616  -0.46381  -0.46235
 Alpha  occ. eigenvalues --   -0.45986  -0.45900  -0.45468  -0.45252  -0.45086
 Alpha  occ. eigenvalues --   -0.44907  -0.44747  -0.44731  -0.44437  -0.44113
 Alpha  occ. eigenvalues --   -0.43930  -0.43658  -0.43557  -0.43445  -0.43396
 Alpha  occ. eigenvalues --   -0.43205  -0.43067  -0.42924  -0.42819  -0.42625
 Alpha  occ. eigenvalues --   -0.42580  -0.42319  -0.42164  -0.41746  -0.41715
 Alpha  occ. eigenvalues --   -0.41613  -0.41481  -0.41372  -0.41188  -0.40945
 Alpha  occ. eigenvalues --   -0.40841  -0.40804  -0.40770  -0.40603  -0.40273
 Alpha  occ. eigenvalues --   -0.40191  -0.40108  -0.39943  -0.39684  -0.39642
 Alpha  occ. eigenvalues --   -0.39588  -0.39389  -0.39269  -0.39149  -0.39017
 Alpha  occ. eigenvalues --   -0.38952  -0.38680  -0.38552  -0.38463  -0.38400
 Alpha  occ. eigenvalues --   -0.38234  -0.38075  -0.37967  -0.37900  -0.37582
 Alpha  occ. eigenvalues --   -0.37563  -0.37523  -0.37480  -0.37372  -0.37178
 Alpha  occ. eigenvalues --   -0.37074  -0.36942  -0.36758  -0.36572  -0.36478
 Alpha  occ. eigenvalues --   -0.36335  -0.36181  -0.35776  -0.35685  -0.35414
 Alpha  occ. eigenvalues --   -0.35094  -0.34865  -0.34848  -0.34781  -0.34670
 Alpha  occ. eigenvalues --   -0.34494  -0.34275  -0.34207  -0.34115  -0.33727
 Alpha  occ. eigenvalues --   -0.33644  -0.33201  -0.32851  -0.32711  -0.32375
 Alpha  occ. eigenvalues --   -0.32050  -0.31754  -0.31743  -0.31228  -0.31006
 Alpha  occ. eigenvalues --   -0.30304  -0.29150  -0.29149  -0.29068  -0.28615
 Alpha  occ. eigenvalues --   -0.28507  -0.27687  -0.27354  -0.27199  -0.26991
 Alpha  occ. eigenvalues --   -0.26939  -0.26718  -0.26223  -0.26036  -0.25790
 Alpha  occ. eigenvalues --   -0.25745  -0.25690  -0.25645  -0.25232  -0.25142
 Alpha  occ. eigenvalues --   -0.25017  -0.24811  -0.23866  -0.23822  -0.23687
 Alpha  occ. eigenvalues --   -0.23683  -0.23468  -0.23388  -0.23219  -0.23154
 Alpha  occ. eigenvalues --   -0.22743  -0.22677  -0.22531  -0.22522  -0.22151
 Alpha  occ. eigenvalues --   -0.22106  -0.22011  -0.20925  -0.20861  -0.19973
 Alpha  occ. eigenvalues --   -0.15349  -0.15118  -0.12792
 Alpha virt. eigenvalues --   -0.11859  -0.10630  -0.05133  -0.04716  -0.04122
 Alpha virt. eigenvalues --   -0.01899  -0.01347  -0.01147  -0.00388   0.00066
 Alpha virt. eigenvalues --    0.00797   0.00955   0.01783   0.01817   0.02032

 Mulliken charges:
               1
     1  C    0.080908
     2  C   -0.009436
     3  O   -0.305513
     4  H    0.000428
     5  H    0.021474
     6  H    0.037186
     7  N   -0.127247
     8  C    0.117521
     9  C    0.052534
    10  O   -0.289474
    11  C    0.055203
    12  C    0.085109
    13  O   -0.419270
    14  O   -0.324149
    15  H    0.105921
    16  H   -0.019488
    17  H    0.012048
    18  H   -0.008701
    19  N   -0.103602
    20  C    0.093338
    21  C    0.092090
    22  O   -0.236127
    23  C    0.052405
    24  C    0.043527
    25  C   -0.121368
    26  C    0.066475
    27  N    0.084116
    28  H    0.106561
    29  H   -0.013916
    30  H   -0.003783
    31  H    0.051619
    32  H    0.000352
    33  H    0.032877
    34  H    0.040818
    35  H    0.002326
    36  H    0.059399
    37  H    0.095662
    38  H    0.195186
    39  H    0.170821
    40  H    0.194376
    41  N   -0.144681
    42  C    0.098341
    43  C    0.059092
    44  O   -0.268999
    45  C    0.118726
    46  C    0.136976
    47  O   -0.452178
    48  O   -0.405675
    49  H    0.133083
    50  H   -0.016061
    51  H    0.010802
    52  H    0.017038
    53  N   -0.120683
    54  C    0.251707
    55  C    0.001139
    56  O   -0.275175
    57  H    0.136144
    58  H    0.030950
    59  H    0.013824
    60  N   -0.142057
    61  C    0.091105
    62  C    0.093021
    63  O   -0.302425
    64  C    0.086491
    65  C   -0.019488
    66  N   -0.034210
    67  O   -0.278540
    68  H    0.121194
    69  H    0.059147
    70  H    0.038735
    71  H   -0.005896
    72  H    0.123255
    73  H    0.136134
    74  N   -0.106848
    75  C    0.215558
    76  C    0.017908
    77  O   -0.261040
    78  H    0.126957
    79  H    0.000581
    80  H    0.036435
    81  N   -0.109011
    82  C    0.087606
    83  C    0.068024
    84  O   -0.306224
    85  C    0.205015
    86  C    0.014192
    87  C   -0.020047
    88  C   -0.041270
    89  C   -0.021115
    90  C   -0.041366
    91  C    0.152260
    92  O   -0.204264
    93  H    0.115561
    94  H    0.017695
    95  H    0.004407
    96  H    0.004353
    97  H   -0.018279
    98  H   -0.037255
    99  H   -0.014726
   100  H   -0.046818
   101  H    0.169240
   102  N   -0.111069
   103  C    0.155836
   104  C    0.046683
   105  O   -0.287888
   106  C   -0.113683
   107  C    0.045403
   108  C    0.106928
   109  C    0.016895
   110  H    0.141652
   111  H   -0.008612
   112  H   -0.017815
   113  H   -0.014450
   114  H    0.021884
   115  H   -0.042094
   116  H    0.010364
   117  H    0.011600
   118  H   -0.037133
   119  H    0.010178
   120  H    0.024570
   121  N   -0.127526
   122  C    0.100162
   123  C    0.081923
   124  O   -0.253497
   125  C    0.217933
   126  O   -0.315587
   127  H    0.125839
   128  H    0.005567
   129  H    0.014554
   130  H   -0.006571
   131  H    0.176001
   132  N   -0.140169
   133  C    0.063149
   134  C    0.043020
   135  O   -0.296003
   136  C    0.088267
   137  H    0.127212
   138  H    0.019217
   139  H    0.021322
   140  H   -0.017120
   141  H    0.027891
   142  N   -0.100617
   143  C    0.057716
   144  C    0.071209
   145  O   -0.267691
   146  C    0.067297
   147  H    0.156963
   148  H   -0.008590
   149  H    0.040436
   150  H    0.010106
   151  H    0.030742
   152  N   -0.145374
   153  C    0.102666
   154  C    0.057268
   155  O   -0.289512
   156  C    0.063328
   157  C    0.070448
   158  C    0.082728
   159  O   -0.453382
   160  O   -0.375268
   161  H    0.119815
   162  H   -0.000752
   163  H   -0.002748
   164  H    0.031640
   165  H   -0.019035
   166  H   -0.040323
   167  N   -0.122468
   168  C    0.143221
   169  H    0.030078
   170  H    0.014726
   171  H    0.023283
   172  H    0.124041
   173  Ca   1.274925
   174  O   -0.285148
   175  H    0.199785
   176  H    0.157083
 Sum of Mulliken charges =  -0.00000

 Dipole moment (field-independent basis, Debye):
    X=             -9.3563    Y=             18.7888    Z=            -16.2634  Tot=             26.5529
 Quadrupole moment (field-independent basis, Debye-Ang):
   XX=           -347.9993   YY=           -597.7587   ZZ=           -537.5539
   XY=           -351.5932   XZ=            121.5128   YZ=            -18.3037

 ESP charges:
               1
     1  C   -0.416980
     2  C    0.722044
     3  O   -0.593256
     4  H    0.101564
     5  H    0.099316
     6  H    0.130156
     7  N   -0.719882
     8  C    0.421422
     9  C    0.545066
    10  O   -0.541214
    11  C   -0.258299
    12  C    0.733029
    13  O   -0.713644
    14  O   -0.647208
    15  H    0.306823
    16  H   -0.026485
    17  H    0.088666
    18  H    0.055038
    19  N   -0.703910
    20  C    0.443223
    21  C    0.597465
    22  O   -0.514704
    23  C   -0.403686
    24  C    0.100307
    25  C   -0.162703
    26  C    0.060344
    27  N   -0.267937
    28  H    0.294057
    29  H   -0.021781
    30  H    0.112536
    31  H    0.143873
    32  H    0.024621
    33  H    0.041883
    34  H    0.091124
    35  H    0.038611
    36  H    0.071354
    37  H    0.079839
    38  H    0.308529
    39  H    0.272474
    40  H    0.316622
    41  N   -0.688272
    42  C    0.393896
    43  C    0.539741
    44  O   -0.492265
    45  C   -0.284106
    46  C    0.788936
    47  O   -0.811413
    48  O   -0.664563
    49  H    0.235466
    50  H   -0.018757
    51  H    0.057331
    52  H    0.078550
    53  N   -0.378031
    54  C   -0.165267
    55  C    0.664208
    56  O   -0.543994
    57  H    0.278430
    58  H    0.127417
    59  H    0.086657
    60  N   -0.736355
    61  C    0.414374
    62  C    0.442989
    63  O   -0.519268
    64  C   -0.351758
    65  C    0.720294
    66  N   -0.834091
    67  O   -0.565266
    68  H    0.319493
    69  H    0.038533
    70  H    0.073410
    71  H    0.108278
    72  H    0.373951
    73  H    0.407829
    74  N   -0.344882
    75  C   -0.094052
    76  C    0.526346
    77  O   -0.465240
    78  H    0.270214
    79  H    0.079949
    80  H    0.112000
    81  N   -0.608034
    82  C    0.436404
    83  C    0.418721
    84  O   -0.531942
    85  C   -0.280786
    86  C    0.059448
    87  C   -0.127420
    88  C   -0.125144
    89  C   -0.272070
    90  C   -0.344297
    91  C    0.406745
    92  O   -0.565911
    93  H    0.295877
    94  H   -0.001869
    95  H    0.103523
    96  H    0.112598
    97  H    0.126201
    98  H    0.126947
    99  H    0.170242
   100  H    0.147021
   101  H    0.408307
   102  N   -0.718307
   103  C    0.259566
   104  C    0.494716
   105  O   -0.552306
   106  C    0.422820
   107  C   -0.054284
   108  C   -0.483050
   109  C   -0.024527
   110  H    0.378190
   111  H   -0.000067
   112  H   -0.091689
   113  H   -0.003521
   114  H    0.040500
   115  H    0.024022
   116  H    0.101407
   117  H    0.124462
   118  H   -0.083442
   119  H    0.005672
   120  H    0.036279
   121  N   -0.252874
   122  C   -0.317287
   123  C    0.716108
   124  O   -0.575088
   125  C    0.324330
   126  O   -0.661150
   127  H    0.253363
   128  H    0.122313
   129  H    0.014535
   130  H   -0.010167
   131  H    0.421277
   132  N   -0.307749
   133  C    0.164073
   134  C    0.629472
   135  O   -0.577617
   136  C   -0.447566
   137  H    0.236429
   138  H    0.054970
   139  H    0.130525
   140  H    0.100577
   141  H    0.133339
   142  N   -0.618094
   143  C    0.441524
   144  C    0.525467
   145  O   -0.467961
   146  C   -0.268299
   147  H    0.218125
   148  H   -0.025906
   149  H    0.085612
   150  H    0.043477
   151  H    0.089561
   152  N   -0.770250
   153  C    0.087029
   154  C    0.420263
   155  O   -0.514752
   156  C    0.080528
   157  C   -0.097049
   158  C    0.805175
   159  O   -0.838994
   160  O   -0.732472
   161  H    0.374200
   162  H    0.064084
   163  H   -0.026928
   164  H    0.043773
   165  H    0.034627
   166  H    0.019113
   167  N   -0.232123
   168  C   -0.199354
   169  H    0.114602
   170  H    0.096066
   171  H    0.088808
   172  H    0.257586
   173  Ca   1.512537
   174  O   -0.811141
   175  H    0.459734
   176  H    0.369605
 Sum of ESP charges =   0.00000

 Normal termination of Gaussian 16 at Tue Sep 17 13:00:21 2019.
