 Gaussian 16, Revision A.03,
 Gaussian 16:  ES64L-G16RevA.03 25-Dec-2016

 ----------------------------------------------------------------------
 #b3lyp/svp scf=(tight,noincore) Test #IOP(5/87=12) Density=Current Pop
 =(MK,readradii) iop(6/33=2) iop(6/42=6)
 ----------------------------------------------------------------------

 ----------------
 Ng-295_loop3_3.0
 ----------------
 Symbolic Z-matrix:
 Charge =  0 Multiplicity = 1

                         Standard orientation:
 ---------------------------------------------------------------------
 Center     Atomic      Atomic             Coordinates (Angstroms)
 Number     Number       Type             X           Y           Z
 ---------------------------------------------------------------------
      1          6           0        5.660584   -4.808508    6.201765
      2          6           0        4.888647   -4.063237    5.131212
      3          8           0        3.720965   -3.747893    5.382758
      4          1           0        4.962583   -5.344613    6.845599
      5          1           0        6.340524   -5.519750    5.732309
      6          1           0        6.232416   -4.098749    6.798713
      7          7           0        5.365781   -3.921747    3.888986
      8          6           0        4.506461   -3.488223    2.809576
      9          6           0        4.992882   -4.209408    1.570064
     10          8           0        6.199989   -4.283552    1.359363
     11          6           0        4.660611   -1.967903    2.739104
     12          6           0        3.842580   -1.407955    1.578379
     13          8           0        2.856719   -0.661154    1.762948
     14          8           0        4.113628   -1.817822    0.436826
     15          1           0        6.357857   -4.045332    3.768933
     16          1           0        3.456906   -3.653135    3.060648
     17          1           0        5.729113   -1.772655    2.633362
     18          1           0        4.377559   -1.462073    3.658516
     19          7           0        4.091199   -4.783747    0.761607
     20          6           0        4.274038   -5.415268   -0.525852
     21          6           0        5.142929   -4.881229   -1.656132
     22          8           0        5.810489   -5.636681   -2.358881
     23          6           0        2.847475   -5.543245   -1.061800
     24          6           0        2.811208   -6.778760   -1.949656
     25          6           0        1.492490   -7.441717   -2.343953
     26          6           0        0.556271   -6.495203   -3.107566
     27          7           0       -0.732993   -7.093703   -3.453101
     28          1           0        3.134066   -4.685891    1.058627
     29          1           0        4.735693   -6.371768   -0.317567
     30          1           0        2.516554   -4.661282   -1.607358
     31          1           0        2.066256   -5.714268   -0.318734
     32          1           0        3.489359   -7.555345   -1.595219
     33          1           0        3.277748   -6.569978   -2.915549
     34          1           0        1.016928   -7.728693   -1.404599
     35          1           0        1.626952   -8.340057   -2.941871
     36          1           0        1.101696   -6.086398   -3.954850
     37          1           0        0.355421   -5.687639   -2.396721
     38          1           0       -1.260295   -7.403897   -2.642526
     39          1           0       -1.326212   -6.546266   -4.054271
     40          1           0       -0.648351   -7.969631   -3.941860
     41          7           0        5.240326   -3.552072   -1.720586
     42          6           0        6.238887   -2.871523   -2.524033
     43          6           0        7.300362   -2.105650   -1.735103
     44          8           0        8.386251   -1.844931   -2.239357
     45          6           0        5.573737   -1.890831   -3.484251
     46          6           0        4.553731   -0.968393   -2.844725
     47          8           0        4.895701   -0.218480   -1.903616
     48          8           0        3.416193   -0.804391   -3.344436
     49          1           0        4.633574   -3.086677   -1.050541
     50          1           0        6.691265   -3.648133   -3.136512
     51          1           0        5.067341   -2.476674   -4.253765
     52          1           0        6.339288   -1.321159   -4.024997
     53          7           0        7.039240   -1.743640   -0.474760
     54          6           0        7.893379   -0.998678    0.419878
     55          6           0        7.746253    0.520778    0.405378
     56          8           0        8.463315    1.143228    1.183824
     57          1           0        6.143439   -1.969370   -0.074153
     58          1           0        8.909007   -1.230607    0.121200
     59          1           0        7.740352   -1.410436    1.417544
     60          7           0        6.771590    1.085900   -0.306639
     61          6           0        6.333199    2.477037   -0.281152
     62          6           0        5.083025    2.439380    0.575031
     63          8           0        4.077862    1.841683    0.175775
     64          6           0        6.371913    3.038086   -1.702429
     65          6           0        6.546568    4.552347   -1.705499
     66          7           0        5.797289    5.251130   -2.560124
     67          8           0        7.287248    5.139585   -0.925535
     68          1           0        6.243728    0.494841   -0.929142
     69          1           0        7.103648    2.963079    0.323389
     70          1           0        5.537853    2.749236   -2.342592
     71          1           0        7.280528    2.613158   -2.112010
     72          1           0        5.160015    4.702651   -3.127709
     73          1           0        5.982298    6.233543   -2.676467
     74          7           0        5.088268    3.161674    1.700670
     75          6           0        4.056827    3.183907    2.716758
     76          6           0        2.576038    3.391522    2.442606
     77          8           0        1.751781    3.462946    3.352606
     78          1           0        5.989679    3.530756    1.968508
     79          1           0        4.391611    3.979590    3.382271
     80          1           0        4.138226    2.215206    3.222123
     81          7           0        2.232913    3.577619    1.163140
     82          6           0        0.922734    3.888872    0.638685
     83          6           0        0.130470    2.635326    0.290777
     84          8           0        0.647057    1.613853   -0.149599
     85          6           0        0.991542    4.734944   -0.634079
     86          6           0        1.625012    6.098287   -0.472797
     87          6           0        2.983231    6.370975   -0.720551
     88          6           0        0.859623    7.195811   -0.062650
     89          6           0        3.534697    7.628903   -0.477031
     90          6           0        1.362527    8.474500    0.166353
     91          6           0        2.720749    8.725369   -0.126389
     92          8           0        3.242011    9.994792   -0.068492
     93          1           0        3.010257    3.368589    0.557711
     94          1           0        0.343956    4.419161    1.390622
     95          1           0       -0.026435    4.787904   -1.024361
     96          1           0        1.498219    4.224669   -1.446851
     97          1           0        3.688761    5.662055   -1.132451
     98          1           0       -0.217483    7.141721    0.025758
     99          1           0        4.599069    7.703442   -0.617590
    100          1           0        0.684899    9.218817    0.569978
    101          1           0        2.523909   10.608605    0.111683
    102          7           0       -1.160956    2.760039    0.614763
    103          6           0       -2.160807    1.724370    0.776892
    104          6           0       -2.580209    0.990921   -0.487843
    105          8           0       -2.081095    1.169552   -1.605822
    106          6           0       -1.849554    0.672361    1.833915
    107          6           0       -1.488690    1.293465    3.182028
    108          6           0       -0.806362   -0.373731    1.456634
    109          6           0       -1.597753    0.339922    4.366874
    110          1           0       -1.536734    3.652654    0.882024
    111          1           0       -3.066238    2.149640    1.210758
    112          1           0       -2.813277    0.195885    2.020483
    113          1           0       -2.081354    2.164142    3.482143
    114          1           0       -0.440704    1.582045    3.188839
    115          1           0       -0.698332   -0.627642    0.408369
    116          1           0        0.214389   -0.116905    1.743355
    117          1           0       -1.085985   -1.251209    2.053328
    118          1           0       -2.653598    0.160184    4.569566
    119          1           0       -1.205452   -0.664106    4.222553
    120          1           0       -1.216810    0.799810    5.286377
    121          7           0       -3.535586    0.060200   -0.427733
    122          6           0       -4.195951   -0.531494   -1.572292
    123          6           0       -5.199012    0.409088   -2.224116
    124          8           0       -5.352628    0.526377   -3.436859
    125          6           0       -4.940984   -1.810567   -1.205415
    126          8           0       -5.937583   -1.604818   -0.229424
    127          1           0       -4.045224   -0.022904    0.434974
    128          1           0       -3.454425   -0.827485   -2.320041
    129          1           0       -4.340550   -2.643776   -0.823522
    130          1           0       -5.301343   -2.312473   -2.102316
    131          1           0       -6.413969   -2.419031   -0.110205
    132          7           0       -5.896337    1.222099   -1.435921
    133          6           0       -6.953207    2.123376   -1.833069
    134          6           0       -7.845279    1.643754   -2.965311
    135          8           0       -7.915542    2.337085   -3.970624
    136          6           0       -6.369263    3.516761   -2.048676
    137          1           0       -5.673294    1.158756   -0.447165
    138          1           0       -7.644090    2.328681   -1.012442
    139          1           0       -5.608514    3.411467   -2.822222
    140          1           0       -7.179461    4.209129   -2.302261
    141          1           0       -5.893849    3.835801   -1.123097
    142          7           0       -8.469888    0.452341   -2.965467
    143          6           0       -8.748254   -0.403708   -1.825690
    144          6           0       -9.997740   -0.018017   -1.041453
    145          8           0      -10.965590    0.528401   -1.568798
    146          6           0       -8.856528   -1.784817   -2.467339
    147          1           0       -9.027647    0.388645   -3.801497
    148          1           0       -7.928149   -0.396955   -1.122069
    149          1           0       -9.016021   -2.582266   -1.751632
    150          1           0       -9.810769   -1.740408   -2.993506
    151          1           0       -8.002641   -2.015169   -3.111324
    152          7           0      -10.046266   -0.255294    0.269480
    153          6           0       -9.128596   -0.860065    1.211888
    154          6           0       -9.153423   -0.001831    2.467204
    155          8           0       -8.079609    0.349696    2.939171
    156          6           0       -9.463738   -2.329502    1.457723
    157          6           0      -10.768566   -2.759156    2.108355
    158          6           0      -12.011096   -2.380596    1.302309
    159          8           0      -12.643006   -1.402072    1.750171
    160          8           0      -12.401131   -2.948174    0.266100
    161          1           0      -10.801954    0.220726    0.736535
    162          1           0       -8.068501   -0.921591    0.946157
    163          1           0       -8.613982   -2.656223    2.067451
    164          1           0       -9.390023   -2.844095    0.495871
    165          1           0      -10.901993   -2.434853    3.142485
    166          1           0      -10.686117   -3.839813    2.174557
    167          7           0      -10.308308    0.388016    2.996032
    168          6           0      -10.459713    1.223314    4.173552
    169          1           0      -10.662827    0.594558    5.040839
    170          1           0       -9.541946    1.787022    4.340556
    171          1           0      -11.289320    1.914865    4.025056
    172          1           0      -11.131041    0.086832    2.486328
    173         20           0        2.525236   -0.061317   -0.837458
    174          8           0        1.107910   -2.420171   -0.564888
    175          1           0        0.819704   -2.735526    0.292660
    176          1           0        0.510444   -2.841790   -1.180659
 ---------------------------------------------------------------------

 SCF Done:  E(RB3LYP) =  -5333.42854951     A.U. after   49 cycles

 The electronic state is 1-A.
 Alpha  occ. eigenvalues -- -145.43658 -19.24510 -19.18456 -19.17851 -19.17270
 Alpha  occ. eigenvalues --  -19.15454 -19.12733 -19.12502 -19.12039 -19.11993
 Alpha  occ. eigenvalues --  -19.11224 -19.11210 -19.10472 -19.09813 -19.09803
 Alpha  occ. eigenvalues --  -19.09746 -19.09500 -19.08519 -19.08120 -19.06535
 Alpha  occ. eigenvalues --  -19.06233 -19.05441 -18.98746 -18.98641 -15.49418
 Alpha  occ. eigenvalues --  -14.59166 -14.41307 -14.40811 -14.39401 -14.39230
 Alpha  occ. eigenvalues --  -14.37938 -14.37761 -14.36783 -14.36532 -14.36302
 Alpha  occ. eigenvalues --  -14.34411 -14.33479 -14.32434 -14.32035 -14.31724
 Alpha  occ. eigenvalues --  -12.63023 -12.63008 -12.62970 -10.36815 -10.34735
 Alpha  occ. eigenvalues --  -10.33491 -10.31977 -10.31439 -10.31278 -10.30691
 Alpha  occ. eigenvalues --  -10.30534 -10.29944 -10.29599 -10.29102 -10.28929
 Alpha  occ. eigenvalues --  -10.28851 -10.28237 -10.28208 -10.27792 -10.27697
 Alpha  occ. eigenvalues --  -10.27677 -10.27613 -10.27233 -10.27150 -10.26654
 Alpha  occ. eigenvalues --  -10.26652 -10.26120 -10.25943 -10.25795 -10.25629
 Alpha  occ. eigenvalues --  -10.24961 -10.24731 -10.23868 -10.23428 -10.23350
 Alpha  occ. eigenvalues --  -10.22909 -10.22530 -10.21991 -10.21963 -10.21590
 Alpha  occ. eigenvalues --  -10.21532 -10.21420 -10.21357 -10.20881 -10.20851
 Alpha  occ. eigenvalues --  -10.20581 -10.20325 -10.20269 -10.20240 -10.19710
 Alpha  occ. eigenvalues --  -10.19621 -10.19129 -10.17961 -10.17445 -10.17109
 Alpha  occ. eigenvalues --  -10.16202 -10.12688  -1.86139  -1.14870  -1.13693
 Alpha  occ. eigenvalues --   -1.13561  -1.13365  -1.10327  -1.09315  -1.08297
 Alpha  occ. eigenvalues --   -1.06740  -1.06716  -1.06378  -1.05873  -1.05745
 Alpha  occ. eigenvalues --   -1.05046  -1.04817  -1.04675  -1.04434  -1.03453
 Alpha  occ. eigenvalues --   -1.02847  -1.01941  -1.01195  -1.00245  -0.99895
 Alpha  occ. eigenvalues --   -0.98642  -0.98361  -0.97130  -0.96669  -0.95616
 Alpha  occ. eigenvalues --   -0.95447  -0.95034  -0.94135  -0.93766  -0.93428
 Alpha  occ. eigenvalues --   -0.93106  -0.92561  -0.92348  -0.92336  -0.91228
 Alpha  occ. eigenvalues --   -0.90171  -0.89659  -0.89330  -0.87792  -0.87496
 Alpha  occ. eigenvalues --   -0.86109  -0.85459  -0.82954  -0.82745  -0.81003
 Alpha  occ. eigenvalues --   -0.80866  -0.80412  -0.79541  -0.78383  -0.78041
 Alpha  occ. eigenvalues --   -0.77560  -0.76759  -0.76470  -0.76014  -0.75297
 Alpha  occ. eigenvalues --   -0.74793  -0.74584  -0.73830  -0.73809  -0.72897
 Alpha  occ. eigenvalues --   -0.72775  -0.71495  -0.70041  -0.69751  -0.69527
 Alpha  occ. eigenvalues --   -0.68821  -0.68498  -0.67325  -0.66966  -0.66486
 Alpha  occ. eigenvalues --   -0.66441  -0.65921  -0.64716  -0.64617  -0.64270
 Alpha  occ. eigenvalues --   -0.63940  -0.63917  -0.63369  -0.63046  -0.63019
 Alpha  occ. eigenvalues --   -0.61869  -0.61395  -0.61179  -0.60860  -0.60286
 Alpha  occ. eigenvalues --   -0.60117  -0.60075  -0.59656  -0.59140  -0.58728
 Alpha  occ. eigenvalues --   -0.58624  -0.58059  -0.57798  -0.57548  -0.57336
 Alpha  occ. eigenvalues --   -0.57091  -0.56904  -0.56837  -0.56432  -0.56218
 Alpha  occ. eigenvalues --   -0.55322  -0.54782  -0.54449  -0.53967  -0.53729
 Alpha  occ. eigenvalues --   -0.53437  -0.53237  -0.52936  -0.52694  -0.52349
 Alpha  occ. eigenvalues --   -0.52321  -0.52089  -0.51687  -0.51645  -0.51269
 Alpha  occ. eigenvalues --   -0.51144  -0.50907  -0.50610  -0.50543  -0.50353
 Alpha  occ. eigenvalues --   -0.49923  -0.49673  -0.49453  -0.49262  -0.49082
 Alpha  occ. eigenvalues --   -0.48685  -0.48487  -0.48115  -0.47998  -0.47791
 Alpha  occ. eigenvalues --   -0.47746  -0.47626  -0.47259  -0.47177  -0.47128
 Alpha  occ. eigenvalues --   -0.46781  -0.46571  -0.46257  -0.45914  -0.45869
 Alpha  occ. eigenvalues --   -0.45722  -0.45497  -0.45303  -0.45140  -0.44982
 Alpha  occ. eigenvalues --   -0.44931  -0.44802  -0.44558  -0.44420  -0.44308
 Alpha  occ. eigenvalues --   -0.44178  -0.44002  -0.43715  -0.43609  -0.43439
 Alpha  occ. eigenvalues --   -0.43362  -0.43350  -0.43211  -0.43205  -0.42927
 Alpha  occ. eigenvalues --   -0.42845  -0.42764  -0.42589  -0.42277  -0.42019
 Alpha  occ. eigenvalues --   -0.41971  -0.41902  -0.41863  -0.41696  -0.41638
 Alpha  occ. eigenvalues --   -0.41524  -0.41252  -0.41197  -0.41080  -0.40956
 Alpha  occ. eigenvalues --   -0.40786  -0.40593  -0.40399  -0.40285  -0.40045
 Alpha  occ. eigenvalues --   -0.39938  -0.39918  -0.39728  -0.39551  -0.39478
 Alpha  occ. eigenvalues --   -0.39309  -0.39062  -0.38873  -0.38607  -0.38498
 Alpha  occ. eigenvalues --   -0.38376  -0.38317  -0.38283  -0.38056  -0.37826
 Alpha  occ. eigenvalues --   -0.37472  -0.37191  -0.37052  -0.36798  -0.36791
 Alpha  occ. eigenvalues --   -0.36541  -0.36349  -0.36112  -0.36068  -0.35820
 Alpha  occ. eigenvalues --   -0.35659  -0.35644  -0.35561  -0.35318  -0.34721
 Alpha  occ. eigenvalues --   -0.34638  -0.34017  -0.33634  -0.33216  -0.33060
 Alpha  occ. eigenvalues --   -0.32719  -0.32402  -0.32335  -0.31739  -0.31600
 Alpha  occ. eigenvalues --   -0.31544  -0.30729  -0.30523  -0.30150  -0.29492
 Alpha  occ. eigenvalues --   -0.29202  -0.29190  -0.28956  -0.28662  -0.28443
 Alpha  occ. eigenvalues --   -0.28361  -0.28215  -0.28128  -0.28053  -0.27697
 Alpha  occ. eigenvalues --   -0.27582  -0.27468  -0.27211  -0.26949  -0.26753
 Alpha  occ. eigenvalues --   -0.26032  -0.25990  -0.25651  -0.25303  -0.25267
 Alpha  occ. eigenvalues --   -0.24869  -0.24799  -0.24000  -0.23699  -0.23638
 Alpha  occ. eigenvalues --   -0.23006  -0.22839  -0.22521  -0.21145  -0.20371
 Alpha  occ. eigenvalues --   -0.16028  -0.15906  -0.12985
 Alpha virt. eigenvalues --   -0.12182  -0.08305  -0.06002  -0.05315  -0.04777
 Alpha virt. eigenvalues --   -0.03858  -0.03730  -0.03589  -0.02726  -0.02419
 Alpha virt. eigenvalues --   -0.02260  -0.02044  -0.01271  -0.01192  -0.00645

 Mulliken charges:
               1
     1  C    0.072398
     2  C    0.008155
     3  O   -0.307287
     4  H    0.041064
     5  H    0.008981
     6  H    0.039532
     7  N   -0.129577
     8  C    0.067942
     9  C    0.088853
    10  O   -0.274971
    11  C    0.157771
    12  C    0.086992
    13  O   -0.396350
    14  O   -0.435112
    15  H    0.127469
    16  H    0.002886
    17  H   -0.003238
    18  H    0.016764
    19  N   -0.081472
    20  C    0.118177
    21  C    0.041933
    22  O   -0.264704
    23  C    0.013157
    24  C   -0.010342
    25  C   -0.010863
    26  C    0.028359
    27  N    0.156316
    28  H    0.104192
    29  H    0.032228
    30  H    0.008677
    31  H   -0.022958
    32  H    0.033542
    33  H    0.026462
    34  H    0.013085
    35  H    0.027884
    36  H    0.082320
    37  H    0.034199
    38  H    0.116996
    39  H    0.130769
    40  H    0.127494
    41  N   -0.151610
    42  C    0.107778
    43  C    0.084490
    44  O   -0.277332
    45  C    0.130276
    46  C    0.052834
    47  O   -0.416594
    48  O   -0.404197
    49  H    0.156909
    50  H    0.028932
    51  H   -0.016628
    52  H    0.036351
    53  N   -0.170256
    54  C    0.197524
    55  C    0.029268
    56  O   -0.298263
    57  H    0.133131
    58  H    0.033821
    59  H    0.036290
    60  N   -0.178158
    61  C    0.130007
    62  C    0.135807
    63  O   -0.394365
    64  C    0.138829
    65  C   -0.021101
    66  N   -0.042348
    67  O   -0.250389
    68  H    0.151482
    69  H    0.008965
    70  H   -0.001400
    71  H    0.047824
    72  H    0.124426
    73  H    0.138734
    74  N   -0.132693
    75  C    0.173130
    76  C    0.049865
    77  O   -0.277489
    78  H    0.156832
    79  H    0.050247
    80  H    0.064991
    81  N   -0.105646
    82  C    0.098575
    83  C    0.202507
    84  O   -0.374264
    85  C    0.123461
    86  C    0.054998
    87  C   -0.029420
    88  C   -0.029760
    89  C   -0.023369
    90  C   -0.045297
    91  C    0.182916
    92  O   -0.193264
    93  H    0.119416
    94  H    0.002758
    95  H    0.001417
    96  H   -0.008539
    97  H   -0.065405
    98  H   -0.034023
    99  H   -0.020755
   100  H   -0.029028
   101  H    0.177619
   102  N   -0.087970
   103  C    0.132778
   104  C    0.075751
   105  O   -0.258197
   106  C   -0.143109
   107  C    0.021810
   108  C    0.052141
   109  C    0.005608
   110  H    0.139911
   111  H    0.013600
   112  H   -0.009013
   113  H   -0.007757
   114  H    0.030197
   115  H   -0.029295
   116  H    0.045295
   117  H   -0.004469
   118  H   -0.000023
   119  H    0.006513
   120  H    0.029172
   121  N   -0.145910
   122  C    0.147199
   123  C    0.054908
   124  O   -0.248608
   125  C    0.211707
   126  O   -0.291095
   127  H    0.124738
   128  H    0.008581
   129  H   -0.036056
   130  H    0.005166
   131  H    0.186701
   132  N   -0.119700
   133  C    0.032368
   134  C    0.060821
   135  O   -0.256255
   136  C    0.094674
   137  H    0.106581
   138  H    0.022615
   139  H    0.028739
   140  H    0.030496
   141  H   -0.033778
   142  N   -0.099779
   143  C    0.034372
   144  C    0.070318
   145  O   -0.264727
   146  C    0.041665
   147  H    0.125712
   148  H   -0.000520
   149  H    0.000832
   150  H    0.030807
   151  H    0.016958
   152  N   -0.089542
   153  C    0.104719
   154  C    0.006908
   155  O   -0.295654
   156  C    0.040115
   157  C    0.079631
   158  C    0.041961
   159  O   -0.361950
   160  O   -0.322191
   161  H    0.129478
   162  H   -0.022983
   163  H   -0.030289
   164  H   -0.016014
   165  H   -0.017446
   166  H   -0.034679
   167  N   -0.164058
   168  C    0.141469
   169  H    0.023937
   170  H    0.024251
   171  H    0.023138
   172  H    0.117396
   173  Ca   1.318957
   174  O   -0.261887
   175  H    0.190411
   176  H    0.173301
 Sum of Mulliken charges =  -0.00000

 Dipole moment (field-independent basis, Debye):
    X=             22.6731    Y=            -15.0866    Z=             -5.7867  Tot=             27.8417
 Quadrupole moment (field-independent basis, Debye-Ang):
   XX=          -1192.1740   YY=           -336.6052   ZZ=           -573.3825
   XY=             -5.1459   XZ=             -1.4742   YZ=             86.8632

 ESP charges:
               1
     1  C   -0.428961
     2  C    0.737095
     3  O   -0.587687
     4  H    0.137154
     5  H    0.091545
     6  H    0.120325
     7  N   -0.622506
     8  C    0.043003
     9  C    0.607359
    10  O   -0.517048
    11  C   -0.259724
    12  C    0.837412
    13  O   -0.784562
    14  O   -0.655089
    15  H    0.348474
    16  H    0.101029
    17  H    0.089150
    18  H    0.110154
    19  N   -0.482240
    20  C    0.052797
    21  C    0.622067
    22  O   -0.571468
    23  C   -0.136176
    24  C    0.070436
    25  C   -0.031691
    26  C    0.089486
    27  N   -0.285243
    28  H    0.236918
    29  H    0.096019
    30  H   -0.001412
    31  H    0.065234
    32  H    0.015881
    33  H    0.014953
    34  H    0.004007
    35  H    0.034428
    36  H    0.080299
    37  H    0.038695
    38  H    0.244898
    39  H    0.264965
    40  H    0.264466
    41  N   -0.379170
    42  C    0.041186
    43  C    0.409023
    44  O   -0.545393
    45  C   -0.307697
    46  C    0.825326
    47  O   -0.705632
    48  O   -0.744994
    49  H    0.130118
    50  H    0.139964
    51  H    0.068989
    52  H    0.125267
    53  N    0.070045
    54  C   -0.493544
    55  C    0.610017
    56  O   -0.564173
    57  H    0.012638
    58  H    0.192929
    59  H    0.178138
    60  N   -0.200165
    61  C   -0.071183
    62  C    0.482669
    63  O   -0.538980
    64  C   -0.190032
    65  C    0.647157
    66  N   -0.792477
    67  O   -0.538715
    68  H    0.180644
    69  H    0.057672
    70  H    0.065840
    71  H    0.121106
    72  H    0.350236
    73  H    0.389630
    74  N   -0.343523
    75  C   -0.270998
    76  C    0.621459
    77  O   -0.562939
    78  H    0.330370
    79  H    0.157921
    80  H    0.147161
    81  N   -0.310915
    82  C    0.088082
    83  C    0.479369
    84  O   -0.500529
    85  C   -0.139022
    86  C    0.072251
    87  C   -0.278786
    88  C   -0.082910
    89  C   -0.171438
    90  C   -0.339199
    91  C    0.369634
    92  O   -0.530229
    93  H    0.204173
    94  H    0.049168
    95  H    0.061480
    96  H    0.076356
    97  H    0.162196
    98  H    0.103255
    99  H    0.143865
   100  H    0.163587
   101  H    0.404827
   102  N   -0.471037
   103  C   -0.159114
   104  C    0.608655
   105  O   -0.495754
   106  C    0.138486
   107  C    0.000102
   108  C   -0.717177
   109  C   -0.153624
   110  H    0.353036
   111  H    0.102957
   112  H    0.053369
   113  H    0.032252
   114  H    0.056066
   115  H    0.103215
   116  H    0.267509
   117  H    0.171231
   118  H    0.029672
   119  H    0.041797
   120  H    0.066143
   121  N   -0.167231
   122  C   -0.620164
   123  C    0.745535
   124  O   -0.516539
   125  C    0.461334
   126  O   -0.568645
   127  H    0.215197
   128  H    0.203712
   129  H   -0.043764
   130  H   -0.010077
   131  H    0.370166
   132  N   -0.630191
   133  C    0.689659
   134  C    0.291220
   135  O   -0.496656
   136  C   -0.424929
   137  H    0.256956
   138  H   -0.073508
   139  H    0.106004
   140  H    0.106769
   141  H    0.071332
   142  N   -0.444017
   143  C    0.164946
   144  C    0.569238
   145  O   -0.544768
   146  C   -0.344611
   147  H    0.319573
   148  H    0.020781
   149  H    0.102250
   150  H    0.120045
   151  H    0.080107
   152  N   -0.414522
   153  C   -0.165219
   154  C    0.560478
   155  O   -0.570657
   156  C    0.281450
   157  C   -0.395920
   158  C    0.805106
   159  O   -0.682809
   160  O   -0.640464
   161  H    0.236743
   162  H    0.047765
   163  H   -0.044593
   164  H   -0.050316
   165  H    0.074795
   166  H    0.050645
   167  N   -0.285933
   168  C   -0.179015
   169  H    0.086158
   170  H    0.097268
   171  H    0.093710
   172  H    0.282449
   173  Ca   1.495333
   174  O   -0.631662
   175  H    0.366765
   176  H    0.359397
 Sum of ESP charges =  -0.00000

 Normal termination of Gaussian 16 at Wed Sep 18 11:25:46 2019.
