 Gaussian 16, Revision A.03,
 Gaussian 16:  ES64L-G16RevA.03 25-Dec-2016

 ----------------------------------------------------------------------
 #b3lyp/svp scf=(tight,noincore) Test #IOP(5/87=12) Density=Current Pop
 =(MK,readradii) iop(6/33=2) iop(6/42=6)
 ----------------------------------------------------------------------

 -----------------
 Ng-293_loop3_11.0
 -----------------
 Symbolic Z-matrix:
 Charge =  0 Multiplicity = 1

                         Standard orientation:
 ---------------------------------------------------------------------
 Center     Atomic      Atomic             Coordinates (Angstroms)
 Number     Number       Type             X           Y           Z
 ---------------------------------------------------------------------
      1          6           0        8.281851   -3.562971   -7.102257
      2          6           0        8.767904   -3.290472   -5.689566
      3          8           0        9.983116   -3.285056   -5.472699
      4          1           0        7.585237   -4.401712   -7.091160
      5          1           0        7.778597   -2.677572   -7.491091
      6          1           0        9.132150   -3.806333   -7.738613
      7          7           0        7.852794   -3.353136   -4.731418
      8          6           0        8.226959   -3.276314   -3.328279
      9          6           0        7.263937   -2.500586   -2.453216
     10          8           0        6.088008   -2.350587   -2.764968
     11          6           0        8.274195   -4.717820   -2.816879
     12          6           0        8.997241   -4.806194   -1.477703
     13          8           0        9.983207   -4.057137   -1.267500
     14          8           0        8.529141   -5.520828   -0.565573
     15          1           0        6.852942   -3.306462   -4.863391
     16          1           0        9.232994   -2.872525   -3.231597
     17          1           0        8.790956   -5.445737   -3.443213
     18          1           0        7.247136   -5.064428   -2.802258
     19          7           0        7.727403   -1.900341   -1.355124
     20          6           0        7.028581   -1.295074   -0.229379
     21          6           0        6.055478   -2.186974    0.524799
     22          8           0        6.236325   -3.396351    0.494752
     23          6           0        6.404829    0.048905   -0.584840
     24          6           0        7.267723    1.039972   -1.367655
     25          6           0        8.377094    1.586557   -0.475781
     26          6           0        9.523114    2.233943   -1.240589
     27          7           0       10.457610    2.842356   -0.278742
     28          1           0        8.734636   -1.880362   -1.272171
     29          1           0        7.826526   -1.281546    0.510960
     30          1           0        6.154112    0.506801    0.373321
     31          1           0        5.466872   -0.019909   -1.117477
     32          1           0        6.703795    1.883823   -1.757655
     33          1           0        7.688059    0.503899   -2.208693
     34          1           0        8.894252    0.863866    0.157596
     35          1           0        7.837044    2.286567    0.178460
     36          1           0        9.005873    2.972108   -1.854979
     37          1           0       10.107561    1.569477   -1.886736
     38          1           0       10.956901    2.077158    0.157470
     39          1           0       11.008019    3.516090   -0.783254
     40          1           0       10.047534    3.356114    0.480461
     41          7           0        5.090497   -1.674225    1.292914
     42          6           0        4.459963   -2.430509    2.364669
     43          6           0        2.941131   -2.476806    2.448374
     44          8           0        2.391846   -2.834252    3.485108
     45          6           0        5.168699   -2.169820    3.682635
     46          6           0        4.896798   -0.795450    4.278267
     47          8           0        4.765347    0.191073    3.521106
     48          8           0        4.669479   -0.674017    5.510736
     49          1           0        5.042476   -0.674332    1.378404
     50          1           0        4.697592   -3.474918    2.163563
     51          1           0        6.240708   -2.274002    3.498403
     52          1           0        4.736579   -2.905013    4.364152
     53          7           0        2.308002   -1.899621    1.422213
     54          6           0        0.884620   -1.713500    1.258994
     55          6           0        0.168524   -3.057496    1.155643
     56          8           0        0.708097   -4.093849    0.770240
     57          1           0        2.837774   -1.522655    0.653878
     58          1           0        0.626322   -1.039569    0.445299
     59          1           0        0.531186   -1.170993    2.137214
     60          7           0       -1.089348   -3.057658    1.582089
     61          6           0       -1.919033   -4.222110    1.832238
     62          6           0       -3.355611   -3.953826    1.417672
     63          8           0       -3.858391   -2.866458    1.698463
     64          6           0       -1.799595   -4.519046    3.333459
     65          6           0       -2.785728   -5.541459    3.867418
     66          7           0       -2.627501   -6.801103    3.477980
     67          8           0       -3.789853   -5.229632    4.509444
     68          1           0       -1.468948   -2.149787    1.814845
     69          1           0       -1.465457   -5.039587    1.278613
     70          1           0       -2.047904   -3.556679    3.780441
     71          1           0       -0.751909   -4.763163    3.526488
     72          1           0       -1.814999   -7.119634    2.977503
     73          1           0       -3.336041   -7.505064    3.648305
     74          7           0       -4.097705   -4.883116    0.797173
     75          6           0       -5.510660   -4.750257    0.514144
     76          6           0       -5.868960   -3.686278   -0.512535
     77          8           0       -5.277266   -3.672260   -1.595726
     78          1           0       -3.751794   -5.831364    0.728840
     79          1           0       -6.081468   -4.492786    1.402507
     80          1           0       -5.894139   -5.729618    0.246758
     81          7           0       -6.766700   -2.764102   -0.156790
     82          6           0       -7.233838   -1.673403   -1.000329
     83          6           0       -6.201238   -0.615402   -1.352425
     84          8           0       -6.304705    0.195944   -2.272159
     85          6           0       -8.143396   -2.155350   -2.123064
     86          6           0       -9.083316   -3.256337   -1.682862
     87          6           0       -8.801824   -4.529226   -2.208426
     88          6           0      -10.125323   -3.056378   -0.786571
     89          6           0       -9.766850   -5.522860   -2.040152
     90          6           0      -10.880191   -4.145739   -0.312897
     91          6           0      -10.730269   -5.360967   -1.012429
     92          8           0      -11.414991   -6.478763   -0.662734
     93          1           0       -7.336058   -2.936864    0.660880
     94          1           0       -7.921590   -1.078025   -0.398398
     95          1           0       -7.535518   -2.575397   -2.920901
     96          1           0       -8.740313   -1.279387   -2.386649
     97          1           0       -7.930078   -4.694383   -2.817837
     98          1           0      -10.282630   -2.068387   -0.370604
     99          1           0       -9.693305   -6.403173   -2.654839
    100          1           0      -11.577368   -3.965953    0.485489
    101          1           0      -11.985884   -6.286111    0.078323
    102          7           0       -5.155419   -0.554784   -0.522974
    103          6           0       -4.175685    0.500752   -0.351907
    104          6           0       -4.757722    1.830274    0.115646
    105          8           0       -4.144796    2.472208    0.964493
    106          6           0       -3.369779    0.658617   -1.635649
    107          6           0       -3.005869   -0.613802   -2.392960
    108          6           0       -2.134736    1.514701   -1.321977
    109          6           0       -2.116540   -1.575216   -1.616057
    110          1           0       -4.986672   -1.321119    0.112837
    111          1           0       -3.402487    0.210840    0.361756
    112          1           0       -3.967484    1.236687   -2.341116
    113          1           0       -2.567409   -0.426881   -3.370208
    114          1           0       -3.892918   -1.167143   -2.683230
    115          1           0       -2.178954    2.597721   -1.214685
    116          1           0       -1.748890    1.306144   -0.323464
    117          1           0       -1.411754    1.401487   -2.121838
    118          1           0       -2.703486   -2.004077   -0.800415
    119          1           0       -2.025576   -2.430501   -2.287930
    120          1           0       -1.190406   -1.133232   -1.261196
    121          7           0       -5.938179    2.253842   -0.334812
    122          6           0       -6.533162    3.517668    0.059826
    123          6           0       -5.833034    4.710708   -0.556516
    124          8           0       -5.832490    5.760791    0.067604
    125          6           0       -7.987050    3.417697   -0.397026
    126          8           0       -8.172503    2.957097   -1.718296
    127          1           0       -6.478247    1.686040   -0.969893
    128          1           0       -6.521666    3.607857    1.145015
    129          1           0       -8.435118    4.386827   -0.156565
    130          1           0       -8.487637    2.743764    0.292196
    131          1           0       -8.899187    2.322786   -1.704878
    132          7           0       -5.181177    4.606447   -1.722111
    133          6           0       -4.348085    5.624788   -2.337690
    134          6           0       -3.357868    6.271582   -1.380545
    135          8           0       -3.065026    7.461142   -1.279596
    136          6           0       -5.235791    6.649059   -3.028882
    137          1           0       -5.358775    3.779648   -2.281452
    138          1           0       -3.688653    5.105899   -3.033682
    139          1           0       -4.627313    7.430789   -3.473688
    140          1           0       -5.843879    6.181138   -3.803594
    141          1           0       -5.915800    7.082024   -2.299821
    142          7           0       -2.757593    5.418983   -0.546132
    143          6           0       -1.735172    5.794921    0.410698
    144          6           0       -0.366170    5.525698   -0.195977
    145          8           0       -0.185156    4.589677   -0.970185
    146          6           0       -2.052915    4.975208    1.651387
    147          1           0       -3.143475    4.480332   -0.509649
    148          1           0       -1.783331    6.840321    0.717161
    149          1           0       -1.368307    5.405019    2.383763
    150          1           0       -3.098085    5.055121    1.955581
    151          1           0       -1.907295    3.930284    1.376566
    152          7           0        0.580740    6.400671    0.132632
    153          6           0        2.007309    6.230855   -0.065014
    154          6           0        2.474197    6.200928   -1.518465
    155          8           0        3.511618    5.657955   -1.908771
    156          6           0        2.489795    5.063705    0.782965
    157          6           0        2.325159    5.266109    2.292047
    158          6           0        2.691144    4.010600    3.079860
    159          8           0        1.826128    3.412976    3.752686
    160          8           0        3.868412    3.613011    3.087808
    161          1           0        0.330556    7.063441    0.855365
    162          1           0        2.488779    7.132404    0.303084
    163          1           0        3.524311    4.755725    0.575060
    164          1           0        1.943714    4.175076    0.477785
    165          1           0        1.370548    5.696479    2.574356
    166          1           0        3.118020    5.980391    2.503407
    167          7           0        1.594397    6.689524   -2.383985
    168          6           0        1.751457    6.517151   -3.822776
    169          1           0        2.792956    6.685237   -4.096316
    170          1           0        1.461712    5.503757   -4.101514
    171          1           0        1.118647    7.234380   -4.346355
    172          1           0        0.720640    7.086624   -2.053139
    173         20           0        3.672391    1.932528    5.167460
    174          8           0        2.820907    3.796482    6.804577
    175          1           0        3.099708    4.111443    7.660363
    176          1           0        2.316835    4.518218    6.424829
 ---------------------------------------------------------------------

 SCF Done:  E(RB3LYP) =  -5333.38289019     A.U. after   35 cycles

 The electronic state is 1-A.
 Alpha  occ. eigenvalues -- -145.46662 -19.24047 -19.17556 -19.16055 -19.12340
 Alpha  occ. eigenvalues --  -19.11454 -19.11278 -19.10065 -19.10051 -19.09589
 Alpha  occ. eigenvalues --  -19.09390 -19.08804 -19.08716 -19.08634 -19.08471
 Alpha  occ. eigenvalues --  -19.08370 -19.08186 -19.08125 -19.08071 -19.05687
 Alpha  occ. eigenvalues --  -19.05685 -19.03745 -18.95600 -18.95021 -15.52598
 Alpha  occ. eigenvalues --  -14.55339 -14.38610 -14.38275 -14.36925 -14.36438
 Alpha  occ. eigenvalues --  -14.35833 -14.35750 -14.35501 -14.35297 -14.34603
 Alpha  occ. eigenvalues --  -14.34236 -14.33118 -14.33016 -14.31647 -14.30119
 Alpha  occ. eigenvalues --  -12.66233 -12.66155 -12.66098 -10.32450 -10.30867
 Alpha  occ. eigenvalues --  -10.30506 -10.30178 -10.29137 -10.28597 -10.28302
 Alpha  occ. eigenvalues --  -10.28204 -10.27830 -10.27706 -10.27435 -10.26933
 Alpha  occ. eigenvalues --  -10.26883 -10.26853 -10.26852 -10.25830 -10.25571
 Alpha  occ. eigenvalues --  -10.25513 -10.25331 -10.25297 -10.25192 -10.24174
 Alpha  occ. eigenvalues --  -10.24093 -10.24018 -10.23546 -10.23258 -10.23104
 Alpha  occ. eigenvalues --  -10.23064 -10.22670 -10.22377 -10.21461 -10.21449
 Alpha  occ. eigenvalues --  -10.20952 -10.20892 -10.20621 -10.20307 -10.20294
 Alpha  occ. eigenvalues --  -10.20239 -10.20164 -10.20156 -10.19437 -10.18687
 Alpha  occ. eigenvalues --  -10.18316 -10.18126 -10.17577 -10.17033 -10.16925
 Alpha  occ. eigenvalues --  -10.16682 -10.16545 -10.16197 -10.16083 -10.14932
 Alpha  occ. eigenvalues --  -10.14854 -10.09910  -1.89226  -1.16982  -1.16382
 Alpha  occ. eigenvalues --   -1.16083  -1.11135  -1.09841  -1.06713  -1.05625
 Alpha  occ. eigenvalues --   -1.04845  -1.04299  -1.03805  -1.03670  -1.03439
 Alpha  occ. eigenvalues --   -1.03186  -1.02985  -1.02687  -1.02509  -1.02110
 Alpha  occ. eigenvalues --   -1.01465  -1.00933  -1.00787  -0.99944  -0.98754
 Alpha  occ. eigenvalues --   -0.96592  -0.95038  -0.94252  -0.93868  -0.93061
 Alpha  occ. eigenvalues --   -0.92870  -0.92643  -0.92434  -0.92327  -0.91876
 Alpha  occ. eigenvalues --   -0.91132  -0.90873  -0.90469  -0.89935  -0.89746
 Alpha  occ. eigenvalues --   -0.89272  -0.88816  -0.86648  -0.86568  -0.86351
 Alpha  occ. eigenvalues --   -0.81637  -0.80413  -0.80026  -0.79960  -0.79777
 Alpha  occ. eigenvalues --   -0.79430  -0.78548  -0.76965  -0.76582  -0.76278
 Alpha  occ. eigenvalues --   -0.76109  -0.75253  -0.74321  -0.74111  -0.73515
 Alpha  occ. eigenvalues --   -0.73020  -0.72992  -0.72195  -0.71369  -0.69748
 Alpha  occ. eigenvalues --   -0.69730  -0.69314  -0.68703  -0.67325  -0.66950
 Alpha  occ. eigenvalues --   -0.66327  -0.65882  -0.65303  -0.64466  -0.64152
 Alpha  occ. eigenvalues --   -0.64076  -0.63275  -0.63096  -0.62957  -0.62198
 Alpha  occ. eigenvalues --   -0.61791  -0.61494  -0.61091  -0.60745  -0.59963
 Alpha  occ. eigenvalues --   -0.59837  -0.59792  -0.59142  -0.59118  -0.58854
 Alpha  occ. eigenvalues --   -0.58728  -0.58477  -0.57559  -0.57534  -0.56754
 Alpha  occ. eigenvalues --   -0.56545  -0.56422  -0.56089  -0.55786  -0.55546
 Alpha  occ. eigenvalues --   -0.55264  -0.54920  -0.54395  -0.54242  -0.53826
 Alpha  occ. eigenvalues --   -0.53479  -0.53313  -0.52660  -0.52308  -0.51738
 Alpha  occ. eigenvalues --   -0.51646  -0.51230  -0.51108  -0.50913  -0.50563
 Alpha  occ. eigenvalues --   -0.50049  -0.49880  -0.49733  -0.49165  -0.49138
 Alpha  occ. eigenvalues --   -0.48862  -0.48597  -0.48234  -0.48190  -0.47847
 Alpha  occ. eigenvalues --   -0.47588  -0.47511  -0.47299  -0.47025  -0.46868
 Alpha  occ. eigenvalues --   -0.46766  -0.46242  -0.46196  -0.46105  -0.45644
 Alpha  occ. eigenvalues --   -0.45510  -0.45440  -0.45180  -0.44743  -0.44602
 Alpha  occ. eigenvalues --   -0.44478  -0.44371  -0.44228  -0.43939  -0.43849
 Alpha  occ. eigenvalues --   -0.43624  -0.43571  -0.43077  -0.42923  -0.42843
 Alpha  occ. eigenvalues --   -0.42803  -0.42709  -0.42589  -0.42488  -0.42440
 Alpha  occ. eigenvalues --   -0.42352  -0.42306  -0.42104  -0.42008  -0.41674
 Alpha  occ. eigenvalues --   -0.41520  -0.41384  -0.41281  -0.41144  -0.40984
 Alpha  occ. eigenvalues --   -0.40863  -0.40777  -0.40734  -0.40630  -0.40370
 Alpha  occ. eigenvalues --   -0.40262  -0.39805  -0.39717  -0.39636  -0.39495
 Alpha  occ. eigenvalues --   -0.39449  -0.39275  -0.39122  -0.39053  -0.38997
 Alpha  occ. eigenvalues --   -0.38793  -0.38756  -0.38645  -0.38472  -0.38307
 Alpha  occ. eigenvalues --   -0.38228  -0.38052  -0.37917  -0.37506  -0.37379
 Alpha  occ. eigenvalues --   -0.37371  -0.37209  -0.36827  -0.36720  -0.36713
 Alpha  occ. eigenvalues --   -0.36101  -0.35980  -0.35898  -0.35883  -0.35603
 Alpha  occ. eigenvalues --   -0.35568  -0.35535  -0.35510  -0.35339  -0.35206
 Alpha  occ. eigenvalues --   -0.35175  -0.34749  -0.34651  -0.34237  -0.34114
 Alpha  occ. eigenvalues --   -0.33842  -0.33806  -0.33421  -0.33329  -0.33073
 Alpha  occ. eigenvalues --   -0.32608  -0.32538  -0.31741  -0.30623  -0.30417
 Alpha  occ. eigenvalues --   -0.30285  -0.29864  -0.29445  -0.28942  -0.28523
 Alpha  occ. eigenvalues --   -0.28443  -0.28163  -0.27968  -0.27635  -0.27496
 Alpha  occ. eigenvalues --   -0.27330  -0.26772  -0.26705  -0.26621  -0.26431
 Alpha  occ. eigenvalues --   -0.26407  -0.26282  -0.26086  -0.25919  -0.25901
 Alpha  occ. eigenvalues --   -0.25525  -0.25412  -0.24920  -0.24866  -0.24702
 Alpha  occ. eigenvalues --   -0.24668  -0.24427  -0.24349  -0.24252  -0.23958
 Alpha  occ. eigenvalues --   -0.23863  -0.23811  -0.23784  -0.23328  -0.22660
 Alpha  occ. eigenvalues --   -0.22470  -0.21906  -0.21324  -0.20434  -0.19453
 Alpha  occ. eigenvalues --   -0.12864  -0.12553  -0.09821
 Alpha virt. eigenvalues --   -0.08491  -0.08306  -0.03868  -0.02472  -0.02092
 Alpha virt. eigenvalues --   -0.01627  -0.01509  -0.01346  -0.00988  -0.00823
 Alpha virt. eigenvalues --   -0.00204   0.00163   0.00404   0.00826   0.00972

 Mulliken charges:
               1
     1  C    0.052066
     2  C    0.024653
     3  O   -0.296557
     4  H    0.019282
     5  H    0.006885
     6  H    0.019227
     7  N   -0.117086
     8  C    0.065713
     9  C    0.092181
    10  O   -0.297913
    11  C    0.103814
    12  C    0.037397
    13  O   -0.403803
    14  O   -0.328646
    15  H    0.109138
    16  H   -0.007728
    17  H    0.002881
    18  H   -0.032178
    19  N   -0.110408
    20  C    0.133186
    21  C    0.047838
    22  O   -0.209332
    23  C    0.040954
    24  C    0.071998
    25  C   -0.105145
    26  C    0.039413
    27  N    0.133917
    28  H    0.105836
    29  H    0.012765
    30  H   -0.007372
    31  H    0.025532
    32  H    0.021517
    33  H    0.015358
    34  H    0.004332
    35  H    0.033610
    36  H    0.066658
    37  H    0.085946
    38  H    0.149683
    39  H    0.138422
    40  H    0.133344
    41  N   -0.172712
    42  C    0.088331
    43  C    0.091676
    44  O   -0.279015
    45  C    0.117823
    46  C    0.091884
    47  O   -0.445034
    48  O   -0.413983
    49  H    0.116880
    50  H    0.056573
    51  H    0.024752
    52  H    0.030398
    53  N   -0.124242
    54  C    0.167138
    55  C    0.057115
    56  O   -0.267916
    57  H    0.123475
    58  H    0.040806
    59  H    0.006780
    60  N   -0.134101
    61  C    0.106393
    62  C    0.124180
    63  O   -0.303067
    64  C    0.100692
    65  C   -0.013280
    66  N   -0.055754
    67  O   -0.256384
    68  H    0.123798
    69  H    0.003218
    70  H    0.010551
    71  H    0.055404
    72  H    0.119584
    73  H    0.125802
    74  N   -0.105254
    75  C    0.218915
    76  C    0.038420
    77  O   -0.272147
    78  H    0.119600
    79  H   -0.004501
    80  H    0.028602
    81  N   -0.122994
    82  C    0.075122
    83  C    0.087808
    84  O   -0.294421
    85  C    0.208431
    86  C   -0.079227
    87  C   -0.014934
    88  C   -0.023194
    89  C    0.012766
    90  C   -0.036050
    91  C    0.148912
    92  O   -0.186395
    93  H    0.135816
    94  H   -0.002158
    95  H    0.012007
    96  H   -0.002697
    97  H   -0.003794
    98  H   -0.039348
    99  H   -0.016373
   100  H   -0.034414
   101  H    0.168728
   102  N   -0.120949
   103  C    0.155129
   104  C    0.060688
   105  O   -0.282200
   106  C   -0.102471
   107  C    0.046708
   108  C    0.071895
   109  C    0.004201
   110  H    0.143148
   111  H    0.000674
   112  H   -0.011821
   113  H   -0.008777
   114  H   -0.002195
   115  H   -0.021981
   116  H   -0.007991
   117  H    0.006878
   118  H   -0.011609
   119  H    0.014111
   120  H    0.012089
   121  N   -0.144740
   122  C    0.126307
   123  C    0.069906
   124  O   -0.262261
   125  C    0.197635
   126  O   -0.295775
   127  H    0.126903
   128  H    0.021694
   129  H    0.013709
   130  H   -0.010305
   131  H    0.180499
   132  N   -0.154031
   133  C    0.069080
   134  C    0.054084
   135  O   -0.280590
   136  C    0.094219
   137  H    0.133285
   138  H    0.021407
   139  H    0.016344
   140  H   -0.005938
   141  H    0.031319
   142  N   -0.151179
   143  C    0.066161
   144  C    0.073622
   145  O   -0.258853
   146  C    0.068180
   147  H    0.157641
   148  H   -0.003689
   149  H   -0.004070
   150  H    0.045947
   151  H    0.031271
   152  N   -0.133335
   153  C    0.125095
   154  C    0.064673
   155  O   -0.286659
   156  C   -0.013079
   157  C    0.127796
   158  C    0.067349
   159  O   -0.423801
   160  O   -0.428640
   161  H    0.123302
   162  H   -0.003044
   163  H    0.019430
   164  H    0.023669
   165  H   -0.031533
   166  H   -0.023170
   167  N   -0.148398
   168  C    0.135117
   169  H    0.029643
   170  H    0.033567
   171  H    0.012095
   172  H    0.128105
   173  Ca   1.335829
   174  O   -0.319856
   175  H    0.191677
   176  H    0.208479
 Sum of Mulliken charges =  -0.00000

 Dipole moment (field-independent basis, Debye):
    X=             -7.5041    Y=             25.4230    Z=             15.3738  Tot=             30.6430
 Quadrupole moment (field-independent basis, Debye-Ang):
   XX=           -461.2448   YY=           -593.3467   ZZ=           -508.4844
   XY=            353.0604   XZ=             74.8905   YZ=             32.1202

 ESP charges:
               1
     1  C   -0.346550
     2  C    0.660426
     3  O   -0.560692
     4  H    0.100834
     5  H    0.063293
     6  H    0.096147
     7  N   -0.629604
     8  C    0.276190
     9  C    0.519137
    10  O   -0.544927
    11  C   -0.200986
    12  C    0.645415
    13  O   -0.682294
    14  O   -0.634417
    15  H    0.313868
    16  H   -0.025478
    17  H    0.095229
    18  H    0.029085
    19  N   -0.418199
    20  C    0.117341
    21  C    0.657445
    22  O   -0.461110
    23  C   -0.352883
    24  C    0.294075
    25  C   -0.168075
    26  C    0.178960
    27  N   -0.306271
    28  H    0.257423
    29  H    0.069918
    30  H    0.070666
    31  H    0.119377
    32  H   -0.001607
    33  H   -0.071971
    34  H    0.027812
    35  H    0.055202
    36  H    0.020482
    37  H    0.058300
    38  H    0.277160
    39  H    0.260278
    40  H    0.267270
    41  N   -0.764456
    42  C    0.306760
    43  C    0.575797
    44  O   -0.536721
    45  C   -0.178147
    46  C    0.716711
    47  O   -0.778771
    48  O   -0.728554
    49  H    0.343399
    50  H    0.033282
    51  H    0.073449
    52  H    0.050394
    53  N   -0.546926
    54  C    0.058929
    55  C    0.503501
    56  O   -0.493738
    57  H    0.326753
    58  H    0.082521
    59  H    0.052185
    60  N   -0.507675
    61  C    0.302012
    62  C    0.494151
    63  O   -0.488593
    64  C   -0.414014
    65  C    0.703374
    66  N   -0.818747
    67  O   -0.545561
    68  H    0.276345
    69  H    0.010801
    70  H    0.103236
    71  H    0.172175
    72  H    0.366224
    73  H    0.370714
    74  N   -0.509271
    75  C    0.101679
    76  C    0.467572
    77  O   -0.467387
    78  H    0.305567
    79  H    0.045235
    80  H    0.074187
    81  N   -0.673877
    82  C    0.390011
    83  C    0.535945
    84  O   -0.549154
    85  C   -0.415380
    86  C    0.196068
    87  C   -0.209395
    88  C   -0.155874
    89  C   -0.236694
    90  C   -0.382961
    91  C    0.395966
    92  O   -0.547029
    93  H    0.343344
    94  H    0.014824
    95  H    0.143997
    96  H    0.102466
    97  H    0.169166
    98  H    0.135293
    99  H    0.168489
   100  H    0.173923
   101  H    0.408972
   102  N   -0.729684
   103  C    0.206673
   104  C    0.448814
   105  O   -0.516855
   106  C    0.003142
   107  C    0.228438
   108  C   -0.234711
   109  C   -0.249845
   110  H    0.367499
   111  H    0.043104
   112  H    0.003933
   113  H   -0.033696
   114  H    0.015820
   115  H    0.035926
   116  H    0.052503
   117  H    0.072935
   118  H    0.044495
   119  H    0.062938
   120  H    0.031269
   121  N   -0.218517
   122  C   -0.211074
   123  C    0.659346
   124  O   -0.555896
   125  C    0.213421
   126  O   -0.606494
   127  H    0.211316
   128  H    0.132665
   129  H    0.025354
   130  H    0.006342
   131  H    0.415223
   132  N   -0.335560
   133  C    0.146076
   134  C    0.616425
   135  O   -0.574483
   136  C   -0.335460
   137  H    0.263220
   138  H    0.047257
   139  H    0.085162
   140  H    0.075550
   141  H    0.115822
   142  N   -0.588005
   143  C    0.614525
   144  C    0.337907
   145  O   -0.419938
   146  C   -0.365639
   147  H    0.132395
   148  H   -0.054995
   149  H    0.042717
   150  H    0.125906
   151  H    0.108440
   152  N   -0.573627
   153  C   -0.293103
   154  C    0.470145
   155  O   -0.509745
   156  C    0.442682
   157  C   -0.146232
   158  C    0.643685
   159  O   -0.711676
   160  O   -0.742560
   161  H    0.349470
   162  H    0.136656
   163  H   -0.061500
   164  H   -0.012064
   165  H    0.027218
   166  H   -0.008475
   167  N   -0.244929
   168  C   -0.189600
   169  H    0.095064
   170  H    0.114217
   171  H    0.083676
   172  H    0.276520
   173  Ca   1.579867
   174  O   -0.809467
   175  H    0.435448
   176  H    0.413866
 Sum of ESP charges =   0.00000

 Normal termination of Gaussian 16 at Mon Sep 16 23:57:36 2019.
