 Gaussian 16, Revision A.03,
 Gaussian 16:  ES64L-G16RevA.03 25-Dec-2016

 ----------------------------------------------------------------------
 #b3lyp/svp scf=(tight,noincore) Test #IOP(5/87=12) Density=Current Pop
 =(MK,readradii) iop(6/33=2) iop(6/42=6)
 ----------------------------------------------------------------------

 -----------------
 Ng-293_loop3_53.0
 -----------------
 Symbolic Z-matrix:
 Charge =  0 Multiplicity = 1

                         Standard orientation:
 ---------------------------------------------------------------------
 Center     Atomic      Atomic             Coordinates (Angstroms)
 Number     Number       Type             X           Y           Z
 ---------------------------------------------------------------------
      1          6           0        8.806966    2.415285    5.093244
      2          6           0        8.637875    2.382519    3.578175
      3          8           0        7.848121    1.633927    3.016661
      4          1           0        8.035624    3.049454    5.530628
      5          1           0        8.714285    1.404534    5.491463
      6          1           0        9.790426    2.815890    5.341160
      7          7           0        9.513395    3.105304    2.878784
      8          6           0        9.490307    3.400053    1.463302
      9          6           0        9.677910    2.355186    0.368972
     10          8           0        9.533716    2.677317   -0.798349
     11          6           0        8.273924    4.234783    1.073767
     12          6           0        7.683873    5.158058    2.121719
     13          8           0        8.320465    6.198209    2.389745
     14          8           0        6.644696    4.782122    2.706599
     15          1           0       10.157950    3.693324    3.391992
     16          1           0       10.295538    4.129126    1.372451
     17          1           0        7.543249    3.509849    0.707318
     18          1           0        8.618358    4.838454    0.230294
     19          7           0       10.035223    1.123259    0.752616
     20          6           0       10.295059    0.021944   -0.143482
     21          6           0        8.981464   -0.368765   -0.812746
     22          8           0        8.959070   -0.699009   -1.999353
     23          6           0       10.958607   -1.128815    0.610746
     24          6           0       11.433412   -2.227160   -0.345182
     25          6           0       12.051451   -3.445979    0.329065
     26          6           0       12.622725   -4.522299   -0.596721
     27          7           0       11.723738   -5.380213   -1.385648
     28          1           0       10.099697    0.945741    1.740964
     29          1           0       10.971801    0.345373   -0.930065
     30          1           0       10.226244   -1.502857    1.327011
     31          1           0       11.874985   -0.797307    1.085039
     32          1           0       12.103682   -1.695551   -1.017663
     33          1           0       10.714973   -2.484343   -1.119135
     34          1           0       11.305738   -3.867565    1.003362
     35          1           0       12.896653   -3.078560    0.902073
     36          1           0       13.147280   -5.257051    0.016372
     37          1           0       13.222407   -3.909992   -1.271451
     38          1           0       11.076308   -5.830979   -0.752447
     39          1           0       11.197777   -4.767155   -2.008163
     40          1           0       12.264101   -6.071296   -1.880230
     41          7           0        7.830215   -0.241011   -0.157608
     42          6           0        6.531777   -0.421282   -0.777012
     43          6           0        5.460169    0.350206   -0.021060
     44          8           0        5.660510    0.821787    1.096561
     45          6           0        6.218436   -1.913844   -0.790220
     46          6           0        4.940425   -2.299999   -1.523618
     47          8           0        4.592169   -1.617243   -2.510361
     48          8           0        4.174910   -3.118707   -0.960233
     49          1           0        7.852566    0.145244    0.772557
     50          1           0        6.443621   -0.097374   -1.816441
     51          1           0        6.188892   -2.305375    0.227439
     52          1           0        7.033828   -2.447293   -1.281614
     53          7           0        4.230286    0.401470   -0.531411
     54          6           0        3.050076    0.967872    0.098265
     55          6           0        1.782456    0.241736   -0.310472
     56          8           0        1.794381   -0.801881   -0.959565
     57          1           0        4.018266   -0.143919   -1.352020
     58          1           0        2.901707    2.012957   -0.164004
     59          1           0        3.264613    0.876585    1.160405
     60          7           0        0.658233    0.826404    0.106762
     61          6           0       -0.626594    0.292099   -0.304138
     62          6           0       -1.535236    1.276221   -1.034667
     63          8           0       -2.663328    0.916698   -1.338396
     64          6           0       -1.285652   -0.333506    0.912070
     65          6           0       -0.699791   -1.651884    1.380520
     66          7           0       -1.429751   -2.753686    1.519412
     67          8           0        0.485572   -1.685218    1.708399
     68          1           0        0.631576    1.565728    0.793122
     69          1           0       -0.493152   -0.529096   -1.010347
     70          1           0       -2.335683   -0.518234    0.695250
     71          1           0       -1.345047    0.380036    1.745275
     72          1           0       -2.391226   -2.818909    1.210524
     73          1           0       -1.009163   -3.546360    1.983388
     74          7           0       -1.116543    2.531194   -1.248068
     75          6           0       -1.812234    3.571400   -1.981202
     76          6           0       -2.968761    4.160494   -1.191763
     77          8           0       -2.770203    4.334125    0.006622
     78          1           0       -0.152869    2.760990   -1.016711
     79          1           0       -2.242084    3.134307   -2.883798
     80          1           0       -1.215343    4.442067   -2.235288
     81          7           0       -4.128294    4.313041   -1.832085
     82          6           0       -5.426997    4.599860   -1.245907
     83          6           0       -5.960062    3.568394   -0.272398
     84          8           0       -7.113970    3.636423    0.146253
     85          6           0       -5.475176    6.044319   -0.727240
     86          6           0       -4.562460    7.060523   -1.358649
     87          6           0       -3.300849    7.337730   -0.818284
     88          6           0       -4.972828    7.737262   -2.523734
     89          6           0       -2.398629    8.240144   -1.379397
     90          6           0       -4.064942    8.647734   -3.062421
     91          6           0       -2.762688    8.898262   -2.576243
     92          8           0       -1.975141    9.844971   -3.151059
     93          1           0       -4.131631    3.897849   -2.752196
     94          1           0       -6.144242    4.511298   -2.054002
     95          1           0       -5.258015    6.023749    0.344496
     96          1           0       -6.494491    6.406208   -0.791528
     97          1           0       -3.012686    6.849463    0.095914
     98          1           0       -5.834428    7.514517   -3.126751
     99          1           0       -1.412064    8.365212   -0.955665
    100          1           0       -4.393350    9.119340   -3.978301
    101          1           0       -2.266313   10.131282   -4.014219
    102          7           0       -5.161906    2.536919    0.003653
    103          6           0       -5.377059    1.406808    0.887711
    104          6           0       -6.487531    0.468456    0.426357
    105          8           0       -6.152598   -0.631491   -0.021011
    106          6           0       -5.591458    1.857796    2.322613
    107          6           0       -4.490273    2.760942    2.879226
    108          6           0       -5.774454    0.579120    3.136002
    109          6           0       -4.647032    3.209428    4.327220
    110          1           0       -4.247859    2.533727   -0.431213
    111          1           0       -4.445500    0.838735    0.932327
    112          1           0       -6.442528    2.543732    2.335703
    113          1           0       -4.504401    3.619494    2.204180
    114          1           0       -3.560758    2.211957    2.783730
    115          1           0       -5.852381    0.828074    4.198804
    116          1           0       -6.715052    0.079102    2.888904
    117          1           0       -4.896302   -0.049571    3.037533
    118          1           0       -4.409022    2.466417    5.100387
    119          1           0       -3.966134    4.024955    4.571133
    120          1           0       -5.622830    3.641976    4.543135
    121          7           0       -7.751332    0.872081    0.506928
    122          6           0       -8.901287    0.224562   -0.106929
    123          6           0       -9.053369   -1.185730    0.438277
    124          8           0       -9.561427   -2.026297   -0.304032
    125          6           0      -10.194638    1.022048    0.049145
    126          8           0       -9.960416    2.360353   -0.321502
    127          1           0       -7.901055    1.863524    0.629914
    128          1           0       -8.746731    0.163764   -1.180901
    129          1           0      -10.526553    0.986297    1.091140
    130          1           0      -11.091772    0.524638   -0.312426
    131          1           0       -9.514806    2.305342   -1.163408
    132          7           0       -8.680439   -1.421643    1.699652
    133          6           0       -8.531790   -2.704722    2.350584
    134          6           0       -7.828862   -3.711123    1.446676
    135          8           0       -8.179837   -4.890511    1.490959
    136          6           0       -9.878972   -3.166633    2.892560
    137          1           0       -8.373235   -0.612187    2.205129
    138          1           0       -7.872781   -2.613428    3.216998
    139          1           0       -9.615287   -3.974092    3.570925
    140          1           0      -10.300792   -2.466076    3.607954
    141          1           0      -10.630796   -3.263797    2.105209
    142          7           0       -6.912692   -3.313657    0.559629
    143          6           0       -6.146671   -4.183033   -0.297983
    144          6           0       -4.763466   -4.640833    0.154745
    145          8           0       -4.175485   -4.031327    1.035699
    146          6           0       -6.231462   -3.729039   -1.755103
    147          1           0       -6.695578   -2.323743    0.541446
    148          1           0       -6.592914   -5.176303   -0.234091
    149          1           0       -5.733664   -2.782034   -1.940245
    150          1           0       -5.767158   -4.473454   -2.398584
    151          1           0       -7.271217   -3.623490   -2.060994
    152          7           0       -4.284358   -5.739743   -0.423054
    153          6           0       -2.904033   -6.165322   -0.279929
    154          6           0       -2.427944   -6.296155    1.158411
    155          8           0       -1.322896   -5.931025    1.541749
    156          6           0       -2.010554   -5.281856   -1.157530
    157          6           0       -0.770857   -5.997499   -1.672802
    158          6           0       -0.209487   -5.427485   -2.973666
    159          8           0       -0.978763   -5.021275   -3.870610
    160          8           0        1.013011   -5.190432   -3.002034
    161          1           0       -4.785163   -6.232872   -1.153820
    162          1           0       -2.964680   -7.170659   -0.701497
    163          1           0       -1.802068   -4.304346   -0.727637
    164          1           0       -2.653205   -5.123650   -2.033013
    165          1           0       -1.048048   -7.052042   -1.776742
    166          1           0       -0.018837   -5.857226   -0.900993
    167          7           0       -3.374050   -6.769160    1.964233
    168          6           0       -3.193223   -6.977715    3.389156
    169          1           0       -3.297857   -8.038380    3.616595
    170          1           0       -2.199052   -6.640061    3.683296
    171          1           0       -3.946947   -6.412385    3.938236
    172          1           0       -4.274250   -6.984315    1.555516
    173         20           0        2.071365   -2.839402   -2.682901
    174          8           0        2.109230   -3.121921   -5.248491
    175          1           0        2.900517   -3.246045   -5.769412
    176          1           0        1.405140   -3.036968   -5.890395
 ---------------------------------------------------------------------

 SCF Done:  E(RB3LYP) =  -5333.40125362     A.U. after   57 cycles

 The electronic state is 1-A.
 Alpha  occ. eigenvalues -- -145.44757 -19.20682 -19.16886 -19.15061 -19.15049
 Alpha  occ. eigenvalues --  -19.13296 -19.12463 -19.11770 -19.11486 -19.09991
 Alpha  occ. eigenvalues --  -19.09262 -19.08718 -19.08079 -19.07577 -19.07301
 Alpha  occ. eigenvalues --  -19.07132 -19.07112 -19.06495 -19.06421 -19.04538
 Alpha  occ. eigenvalues --  -19.04027 -19.02577 -18.95901 -18.95751 -15.50616
 Alpha  occ. eigenvalues --  -14.56170 -14.39687 -14.39308 -14.39107 -14.36896
 Alpha  occ. eigenvalues --  -14.36258 -14.36170 -14.35736 -14.34301 -14.33435
 Alpha  occ. eigenvalues --  -14.32951 -14.32932 -14.32642 -14.32598 -14.30796
 Alpha  occ. eigenvalues --  -12.64239 -12.64210 -12.64125 -10.34050 -10.32751
 Alpha  occ. eigenvalues --  -10.32088 -10.31176 -10.30491 -10.29923 -10.28399
 Alpha  occ. eigenvalues --  -10.28270 -10.27258 -10.27229 -10.27228 -10.26763
 Alpha  occ. eigenvalues --  -10.26713 -10.26423 -10.26360 -10.26205 -10.26194
 Alpha  occ. eigenvalues --  -10.25999 -10.25569 -10.25139 -10.24946 -10.24289
 Alpha  occ. eigenvalues --  -10.24101 -10.23567 -10.23488 -10.23410 -10.23356
 Alpha  occ. eigenvalues --  -10.23090 -10.22944 -10.22689 -10.22476 -10.21944
 Alpha  occ. eigenvalues --  -10.21200 -10.21178 -10.20990 -10.20123 -10.19956
 Alpha  occ. eigenvalues --  -10.19875 -10.19422 -10.19352 -10.19299 -10.19175
 Alpha  occ. eigenvalues --  -10.18665 -10.18242 -10.18069 -10.17762 -10.17497
 Alpha  occ. eigenvalues --  -10.17222 -10.16723 -10.16241 -10.15120 -10.15014
 Alpha  occ. eigenvalues --  -10.14665 -10.08850  -1.87158  -1.14771  -1.14598
 Alpha  occ. eigenvalues --   -1.13940  -1.11734  -1.07448  -1.06756  -1.06603
 Alpha  occ. eigenvalues --   -1.05763  -1.05571  -1.05004  -1.04254  -1.03536
 Alpha  occ. eigenvalues --   -1.03444  -1.02289  -1.02267  -1.01365  -1.01253
 Alpha  occ. eigenvalues --   -1.00720  -1.00151  -0.99953  -0.99601  -0.98427
 Alpha  occ. eigenvalues --   -0.97359  -0.96816  -0.96259  -0.95017  -0.93979
 Alpha  occ. eigenvalues --   -0.93577  -0.93409  -0.92387  -0.92072  -0.91259
 Alpha  occ. eigenvalues --   -0.90621  -0.89981  -0.89665  -0.89458  -0.89052
 Alpha  occ. eigenvalues --   -0.88081  -0.87917  -0.87633  -0.87241  -0.85596
 Alpha  occ. eigenvalues --   -0.82812  -0.81672  -0.81584  -0.80650  -0.80419
 Alpha  occ. eigenvalues --   -0.78940  -0.78343  -0.76941  -0.76789  -0.76146
 Alpha  occ. eigenvalues --   -0.75356  -0.75124  -0.74885  -0.74680  -0.73721
 Alpha  occ. eigenvalues --   -0.73038  -0.72683  -0.71997  -0.71201  -0.71033
 Alpha  occ. eigenvalues --   -0.70857  -0.69092  -0.68513  -0.68197  -0.67437
 Alpha  occ. eigenvalues --   -0.67313  -0.66830  -0.65792  -0.65448  -0.64718
 Alpha  occ. eigenvalues --   -0.64353  -0.63773  -0.63453  -0.63257  -0.62376
 Alpha  occ. eigenvalues --   -0.62085  -0.61355  -0.61094  -0.60077  -0.59959
 Alpha  occ. eigenvalues --   -0.59885  -0.59732  -0.59592  -0.59378  -0.59224
 Alpha  occ. eigenvalues --   -0.58930  -0.57942  -0.57564  -0.57245  -0.57216
 Alpha  occ. eigenvalues --   -0.57094  -0.56612  -0.56172  -0.56039  -0.55520
 Alpha  occ. eigenvalues --   -0.55263  -0.55046  -0.54799  -0.54304  -0.54181
 Alpha  occ. eigenvalues --   -0.53867  -0.53454  -0.53211  -0.53040  -0.52482
 Alpha  occ. eigenvalues --   -0.52174  -0.51521  -0.50974  -0.50636  -0.50234
 Alpha  occ. eigenvalues --   -0.50069  -0.49826  -0.49703  -0.48989  -0.48936
 Alpha  occ. eigenvalues --   -0.48662  -0.48571  -0.48213  -0.48026  -0.47894
 Alpha  occ. eigenvalues --   -0.47835  -0.47587  -0.47362  -0.47166  -0.47052
 Alpha  occ. eigenvalues --   -0.46858  -0.46687  -0.46333  -0.46190  -0.45984
 Alpha  occ. eigenvalues --   -0.45762  -0.45699  -0.45483  -0.45370  -0.45279
 Alpha  occ. eigenvalues --   -0.45155  -0.44642  -0.44406  -0.44249  -0.44165
 Alpha  occ. eigenvalues --   -0.44019  -0.43905  -0.43821  -0.43545  -0.43501
 Alpha  occ. eigenvalues --   -0.42886  -0.42755  -0.42679  -0.42557  -0.42416
 Alpha  occ. eigenvalues --   -0.42243  -0.42174  -0.42098  -0.41711  -0.41661
 Alpha  occ. eigenvalues --   -0.41534  -0.41356  -0.41290  -0.41190  -0.40986
 Alpha  occ. eigenvalues --   -0.40920  -0.40725  -0.40428  -0.40182  -0.40162
 Alpha  occ. eigenvalues --   -0.39953  -0.39865  -0.39833  -0.39667  -0.39537
 Alpha  occ. eigenvalues --   -0.39472  -0.39151  -0.39086  -0.38865  -0.38818
 Alpha  occ. eigenvalues --   -0.38643  -0.38606  -0.38460  -0.38289  -0.38031
 Alpha  occ. eigenvalues --   -0.37941  -0.37813  -0.37798  -0.37668  -0.37610
 Alpha  occ. eigenvalues --   -0.37502  -0.37410  -0.37116  -0.37081  -0.37017
 Alpha  occ. eigenvalues --   -0.36898  -0.36692  -0.36656  -0.36219  -0.35783
 Alpha  occ. eigenvalues --   -0.35676  -0.35369  -0.35299  -0.35289  -0.35141
 Alpha  occ. eigenvalues --   -0.34921  -0.34455  -0.34427  -0.34272  -0.33890
 Alpha  occ. eigenvalues --   -0.33722  -0.33462  -0.33410  -0.33381  -0.32567
 Alpha  occ. eigenvalues --   -0.32390  -0.31979  -0.31876  -0.31137  -0.30990
 Alpha  occ. eigenvalues --   -0.30981  -0.30741  -0.30719  -0.30386  -0.29931
 Alpha  occ. eigenvalues --   -0.29850  -0.29126  -0.28424  -0.28314  -0.27667
 Alpha  occ. eigenvalues --   -0.27164  -0.27138  -0.26516  -0.26438  -0.26415
 Alpha  occ. eigenvalues --   -0.26383  -0.25868  -0.25837  -0.25645  -0.25467
 Alpha  occ. eigenvalues --   -0.25163  -0.25122  -0.24638  -0.24554  -0.24434
 Alpha  occ. eigenvalues --   -0.23766  -0.23479  -0.23411  -0.23289  -0.23174
 Alpha  occ. eigenvalues --   -0.22986  -0.22896  -0.22864  -0.22703  -0.22205
 Alpha  occ. eigenvalues --   -0.21715  -0.21175  -0.20165  -0.19857  -0.18549
 Alpha  occ. eigenvalues --   -0.13233  -0.12572  -0.10508
 Alpha virt. eigenvalues --   -0.09647  -0.05257  -0.02952  -0.02578  -0.02534
 Alpha virt. eigenvalues --   -0.02139  -0.01734  -0.01367  -0.01149  -0.00734
 Alpha virt. eigenvalues --   -0.00619  -0.00099   0.00409   0.00980   0.01388

 Mulliken charges:
               1
     1  C    0.061098
     2  C    0.035647
     3  O   -0.272781
     4  H    0.064886
     5  H    0.010106
     6  H   -0.020032
     7  N   -0.135856
     8  C    0.069976
     9  C    0.064310
    10  O   -0.253580
    11  C    0.097015
    12  C    0.031789
    13  O   -0.369441
    14  O   -0.346677
    15  H    0.118588
    16  H   -0.000154
    17  H   -0.018659
    18  H   -0.014059
    19  N   -0.124598
    20  C    0.143039
    21  C    0.052139
    22  O   -0.305435
    23  C    0.058876
    24  C   -0.048657
    25  C    0.041689
    26  C    0.024268
    27  N    0.126834
    28  H    0.119073
    29  H    0.000318
    30  H    0.014425
    31  H    0.011199
    32  H   -0.003076
    33  H   -0.014219
    34  H    0.023032
    35  H    0.038731
    36  H    0.045367
    37  H    0.063037
    38  H    0.135385
    39  H    0.154031
    40  H    0.127283
    41  N   -0.109395
    42  C    0.106774
    43  C    0.068320
    44  O   -0.244291
    45  C    0.129344
    46  C    0.067410
    47  O   -0.436954
    48  O   -0.389536
    49  H    0.139379
    50  H    0.030587
    51  H   -0.002628
    52  H   -0.006814
    53  N   -0.157301
    54  C    0.223567
    55  C    0.117679
    56  O   -0.377244
    57  H    0.117927
    58  H    0.022307
    59  H    0.074572
    60  N   -0.135143
    61  C    0.102015
    62  C    0.073542
    63  O   -0.277972
    64  C    0.054424
    65  C   -0.027125
    66  N   -0.028332
    67  O   -0.283159
    68  H    0.146117
    69  H    0.015303
    70  H    0.027992
    71  H    0.031610
    72  H    0.138992
    73  H    0.149992
    74  N   -0.107573
    75  C    0.212236
    76  C    0.013030
    77  O   -0.275547
    78  H    0.122045
    79  H   -0.005124
    80  H    0.056052
    81  N   -0.132410
    82  C    0.127998
    83  C    0.058308
    84  O   -0.292665
    85  C    0.165601
    86  C   -0.050456
    87  C    0.024662
    88  C   -0.007541
    89  C   -0.046323
    90  C   -0.064005
    91  C    0.191504
    92  O   -0.189935
    93  H    0.129058
    94  H    0.010902
    95  H    0.003630
    96  H    0.011175
    97  H   -0.010784
    98  H   -0.035900
    99  H   -0.014770
   100  H   -0.048314
   101  H    0.176221
   102  N   -0.108752
   103  C    0.182790
   104  C    0.069415
   105  O   -0.281675
   106  C   -0.153191
   107  C    0.035249
   108  C    0.106973
   109  C    0.027231
   110  H    0.137831
   111  H   -0.006324
   112  H    0.001013
   113  H    0.013744
   114  H   -0.025925
   115  H    0.002154
   116  H   -0.026266
   117  H    0.015447
   118  H    0.015243
   119  H    0.007486
   120  H    0.001563
   121  N   -0.125837
   122  C    0.051417
   123  C    0.026072
   124  O   -0.264744
   125  C    0.282345
   126  O   -0.273653
   127  H    0.140941
   128  H    0.005772
   129  H   -0.020544
   130  H    0.012404
   131  H    0.160428
   132  N   -0.129623
   133  C    0.068001
   134  C    0.042088
   135  O   -0.283482
   136  C    0.111938
   137  H    0.120473
   138  H    0.022052
   139  H    0.010636
   140  H   -0.024860
   141  H    0.040036
   142  N   -0.113372
   143  C    0.112906
   144  C    0.082770
   145  O   -0.273779
   146  C    0.059839
   147  H    0.129735
   148  H   -0.007027
   149  H    0.023223
   150  H   -0.013708
   151  H    0.037490
   152  N   -0.157242
   153  C    0.041853
   154  C    0.083634
   155  O   -0.269939
   156  C    0.079183
   157  C    0.071624
   158  C    0.059023
   159  O   -0.361662
   160  O   -0.472316
   161  H    0.130691
   162  H   -0.004537
   163  H   -0.027389
   164  H   -0.016522
   165  H   -0.016756
   166  H    0.002919
   167  N   -0.140344
   168  C    0.124017
   169  H    0.017135
   170  H    0.044461
   171  H    0.025458
   172  H    0.116453
   173  Ca   1.376192
   174  O   -0.309530
   175  H    0.194568
   176  H    0.197126
 Sum of Mulliken charges =  -0.00000

 Dipole moment (field-independent basis, Debye):
    X=             12.5436    Y=            -21.7809    Z=            -14.7209  Tot=             29.1283
 Quadrupole moment (field-independent basis, Debye-Ang):
   XX=           -298.6082   YY=           -578.4094   ZZ=           -515.2496
   XY=           -363.5732   XZ=            -64.3839   YZ=            -55.4426

 ESP charges:
               1
     1  C   -0.437299
     2  C    0.960673
     3  O   -0.655422
     4  H    0.150411
     5  H    0.088938
     6  H    0.067243
     7  N   -0.916469
     8  C    0.280145
     9  C    0.371282
    10  O   -0.481380
    11  C   -0.123194
    12  C    0.672366
    13  O   -0.659080
    14  O   -0.639477
    15  H    0.407142
    16  H    0.044648
    17  H    0.028647
    18  H    0.005568
    19  N   -0.371355
    20  C    0.115122
    21  C    0.553496
    22  O   -0.576591
    23  C   -0.342789
    24  C    0.157106
    25  C   -0.112034
    26  C    0.044737
    27  N   -0.279140
    28  H    0.245231
    29  H    0.075341
    30  H    0.100631
    31  H    0.118509
    32  H    0.019896
    33  H   -0.032608
    34  H    0.050410
    35  H    0.064342
    36  H    0.059575
    37  H    0.056652
    38  H    0.273319
    39  H    0.280610
    40  H    0.248740
    41  N   -0.527793
    42  C    0.340399
    43  C    0.414810
    44  O   -0.423421
    45  C   -0.183805
    46  C    0.718230
    47  O   -0.747900
    48  O   -0.726281
    49  H    0.306868
    50  H    0.040244
    51  H    0.048280
    52  H    0.033966
    53  N   -0.364160
    54  C    0.028483
    55  C    0.792885
    56  O   -0.568424
    57  H    0.144764
    58  H    0.038497
    59  H    0.096268
    60  N   -0.931060
    61  C    0.085774
    62  C    0.536424
    63  O   -0.530870
    64  C    0.114838
    65  C    0.499313
    66  N   -0.712074
    67  O   -0.518924
    68  H    0.422551
    69  H    0.091024
    70  H   -0.077648
    71  H    0.053315
    72  H    0.388386
    73  H    0.374092
    74  N   -0.380949
    75  C   -0.137265
    76  C    0.838109
    77  O   -0.615907
    78  H    0.322991
    79  H    0.057237
    80  H    0.097648
    81  N   -0.863071
    82  C    0.292806
    83  C    0.424087
    84  O   -0.523753
    85  C   -0.306007
    86  C    0.242679
    87  C   -0.340169
    88  C   -0.182897
    89  C   -0.078558
    90  C   -0.247471
    91  C    0.254686
    92  O   -0.518950
    93  H    0.392316
    94  H    0.074202
    95  H    0.123285
    96  H    0.077201
    97  H    0.195993
    98  H    0.142085
    99  H    0.129263
   100  H    0.116518
   101  H    0.410953
   102  N   -0.279288
   103  C   -0.365881
   104  C    0.679964
   105  O   -0.498947
   106  C    0.156841
   107  C    0.166852
   108  C   -0.367523
   109  C   -0.274728
   110  H    0.236382
   111  H    0.202585
   112  H    0.008702
   113  H    0.019067
   114  H   -0.030671
   115  H    0.083785
   116  H    0.073960
   117  H    0.100562
   118  H    0.078388
   119  H    0.060917
   120  H    0.062270
   121  N   -0.189228
   122  C   -0.670533
   123  C    0.802473
   124  O   -0.544298
   125  C    0.360700
   126  O   -0.585439
   127  H    0.274627
   128  H    0.210604
   129  H    0.050382
   130  H    0.015560
   131  H    0.393886
   132  N   -0.610333
   133  C    0.461186
   134  C    0.301465
   135  O   -0.516165
   136  C   -0.447266
   137  H    0.253438
   138  H    0.021499
   139  H    0.103840
   140  H    0.099161
   141  H    0.145799
   142  N   -0.256950
   143  C    0.446111
   144  C    0.494736
   145  O   -0.582294
   146  C   -0.356243
   147  H    0.057824
   148  H   -0.052391
   149  H    0.099412
   150  H    0.056497
   151  H    0.105359
   152  N   -0.558106
   153  C    0.178411
   154  C    0.278154
   155  O   -0.460473
   156  C    0.205073
   157  C   -0.294232
   158  C    0.827198
   159  O   -0.696711
   160  O   -0.816299
   161  H    0.330104
   162  H    0.020738
   163  H   -0.047059
   164  H   -0.057666
   165  H    0.057460
   166  H    0.025893
   167  N   -0.188164
   168  C    0.029091
   169  H    0.008653
   170  H    0.057225
   171  H    0.042601
   172  H    0.207069
   173  Ca   1.608305
   174  O   -0.878030
   175  H    0.445949
   176  H    0.450110
 Sum of ESP charges =   0.00000

 Normal termination of Gaussian 16 at Tue Sep 17 10:28:16 2019.
