 Gaussian 16, Revision A.03,
 Gaussian 16:  ES64L-G16RevA.03 25-Dec-2016

 ----------------------------------------------------------------------
 #b3lyp/svp scf=(tight,noincore) Test #IOP(5/87=12) Density=Current Pop
 =(MK,readradii) iop(6/33=2) iop(6/42=6)
 ----------------------------------------------------------------------

 -----------------
 Ng-295_loop3_27.0
 -----------------
 Symbolic Z-matrix:
 Charge =  0 Multiplicity = 1

                         Standard orientation:
 ---------------------------------------------------------------------
 Center     Atomic      Atomic             Coordinates (Angstroms)
 Number     Number       Type             X           Y           Z
 ---------------------------------------------------------------------
      1          6           0      -10.715863    3.822480    4.838464
      2          6           0       -9.631613    3.625902    3.787055
      3          8           0       -8.732021    4.453145    3.674791
      4          1           0      -10.258609    3.864561    5.827579
      5          1           0      -11.246315    4.754658    4.644345
      6          1           0      -11.417273    2.989304    4.797824
      7          7           0       -9.683962    2.518224    3.036050
      8          6           0       -8.613397    2.076817    2.176661
      9          6           0       -9.082565    1.141351    1.066623
     10          8           0       -9.590359    0.070327    1.400618
     11          6           0       -7.525730    1.447653    3.032543
     12          6           0       -6.238444    1.288218    2.248148
     13          8           0       -5.466958    2.232423    1.964979
     14          8           0       -5.928332    0.147367    1.835849
     15          1           0      -10.410192    1.818917    3.117040
     16          1           0       -8.207720    2.982976    1.730900
     17          1           0       -7.905093    0.477353    3.323405
     18          1           0       -7.372903    2.044224    3.934789
     19          7           0       -8.928992    1.457672   -0.215819
     20          6           0       -9.682949    0.827008   -1.283532
     21          6           0       -8.891106    0.285149   -2.458553
     22          8           0       -9.442407   -0.371334   -3.349450
     23          6           0      -10.700065    1.837685   -1.789601
     24          6           0      -11.741753    2.328726   -0.790919
     25          6           0      -12.433486    3.498023   -1.485577
     26          6           0      -13.059393    4.430070   -0.451687
     27          7           0      -14.101314    3.792753    0.371190
     28          1           0       -8.381180    2.289699   -0.397569
     29          1           0      -10.283831    0.005533   -0.882757
     30          1           0      -11.215079    1.339333   -2.615862
     31          1           0      -10.221543    2.635555   -2.364074
     32          1           0      -11.251719    2.705878    0.104527
     33          1           0      -12.391564    1.497532   -0.502888
     34          1           0      -13.101832    2.993075   -2.187960
     35          1           0      -11.726587    4.139919   -2.010899
     36          1           0      -13.620502    5.163437   -1.028861
     37          1           0      -12.326141    4.972641    0.137684
     38          1           0      -14.509756    4.482539    0.976807
     39          1           0      -14.742523    3.404356   -0.305122
     40          1           0      -13.701568    3.088469    0.978633
     41          7           0       -7.570721    0.328691   -2.577662
     42          6           0       -6.765087   -0.228855   -3.650880
     43          6           0       -6.663624   -1.736986   -3.838079
     44          8           0       -6.043007   -2.250177   -4.767418
     45          6           0       -5.387125    0.441516   -3.655660
     46          6           0       -4.706088    0.433832   -2.297268
     47          8           0       -5.239161   -0.116428   -1.300049
     48          8           0       -3.562184    0.924205   -2.174309
     49          1           0       -7.000417    0.600956   -1.787836
     50          1           0       -7.378747    0.092873   -4.492613
     51          1           0       -5.406250    1.457000   -4.032924
     52          1           0       -4.727217   -0.164411   -4.276525
     53          7           0       -7.158976   -2.526038   -2.882765
     54          6           0       -6.798200   -3.933580   -2.765434
     55          6           0       -5.515986   -4.236902   -2.011429
     56          8           0       -5.100373   -5.400794   -1.977928
     57          1           0       -7.600688   -2.084691   -2.086961
     58          1           0       -6.747052   -4.370560   -3.761090
     59          1           0       -7.492092   -4.555830   -2.199555
     60          7           0       -4.831899   -3.280196   -1.384981
     61          6           0       -3.473766   -3.412756   -0.905707
     62          6           0       -3.092706   -2.703725    0.391586
     63          8           0       -3.636115   -1.624174    0.580468
     64          6           0       -2.524401   -3.053176   -2.047638
     65          6           0       -1.106358   -3.580715   -1.867200
     66          7           0       -0.165833   -2.701545   -1.536940
     67          8           0       -0.847750   -4.781678   -1.937982
     68          1           0       -5.147818   -2.326425   -1.415251
     69          1           0       -3.216062   -4.471207   -0.810992
     70          1           0       -2.474842   -1.964455   -2.102693
     71          1           0       -2.921447   -3.468297   -2.989036
     72          1           0       -0.302890   -1.769987   -1.907231
     73          1           0        0.699485   -3.047984   -1.153528
     74          7           0       -2.341188   -3.356634    1.285415
     75          6           0       -1.839967   -2.835371    2.541426
     76          6           0       -0.324624   -2.878871    2.692899
     77          8           0        0.212491   -1.898913    3.207283
     78          1           0       -2.147628   -4.334009    1.141987
     79          1           0       -2.217049   -3.427905    3.373479
     80          1           0       -2.129983   -1.791289    2.602112
     81          7           0        0.333510   -3.948496    2.240502
     82          6           0        1.773315   -4.107021    2.225352
     83          6           0        2.485433   -3.358506    1.106730
     84          8           0        1.999818   -3.481389   -0.009459
     85          6           0        2.155454   -5.578564    2.349574
     86          6           0        3.602889   -5.940128    2.543748
     87          6           0        4.417975   -6.077153    1.414208
     88          6           0        4.155709   -6.045483    3.827839
     89          6           0        5.781609   -6.359862    1.584735
     90          6           0        5.519871   -6.316948    3.970558
     91          6           0        6.348191   -6.536368    2.861892
     92          8           0        7.713248   -6.628531    2.969252
     93          1           0       -0.193947   -4.714374    1.856028
     94          1           0        2.187740   -3.577850    3.083740
     95          1           0        1.902568   -6.133070    1.451647
     96          1           0        1.481972   -6.016513    3.098254
     97          1           0        4.058110   -5.889187    0.415326
     98          1           0        3.575006   -5.776429    4.702364
     99          1           0        6.491071   -6.359442    0.767690
    100          1           0        6.069595   -6.281669    4.901503
    101          1           0        7.943258   -6.576459    3.900909
    102          7           0        3.559225   -2.593385    1.328674
    103          6           0        4.275056   -1.598372    0.557937
    104          6           0        5.014782   -1.846672   -0.747495
    105          8           0        4.496907   -2.621022   -1.545172
    106          6           0        3.487210   -0.291489    0.510451
    107          6           0        3.178931    0.368594    1.850360
    108          6           0        2.211837   -0.372593   -0.323363
    109          6           0        3.397923    1.874230    1.891606
    110          1           0        3.806100   -2.543603    2.302878
    111          1           0        5.108369   -1.363520    1.229752
    112          1           0        4.050062    0.438771   -0.068183
    113          1           0        3.894992   -0.052259    2.556859
    114          1           0        2.177295    0.130346    2.220445
    115          1           0        1.452264   -1.053294    0.077381
    116          1           0        1.739116    0.603319   -0.358449
    117          1           0        2.426554   -0.683443   -1.351209
    118          1           0        4.401399    2.099636    1.527151
    119          1           0        2.620031    2.270856    1.238865
    120          1           0        3.290449    2.353554    2.860160
    121          7           0        6.189468   -1.271962   -1.010592
    122          6           0        7.057841   -1.465421   -2.161940
    123          6           0        8.479982   -0.942696   -2.020607
    124          8           0        9.360299   -1.348494   -2.772118
    125          6           0        6.383915   -0.980154   -3.445739
    126          8           0        6.372902    0.431698   -3.489946
    127          1           0        6.516270   -0.642695   -0.286007
    128          1           0        7.079274   -2.544493   -2.338978
    129          1           0        5.349517   -1.301564   -3.325674
    130          1           0        6.924199   -1.443226   -4.270031
    131          1           0        6.619145    0.709081   -4.376413
    132          7           0        8.779329   -0.165293   -0.966929
    133          6           0       10.069957    0.299470   -0.506308
    134          6           0       10.921583    0.805308   -1.655683
    135          8           0       11.787609    0.193761   -2.285689
    136          6           0       10.705357   -0.771325    0.378150
    137          1           0        7.973380    0.111183   -0.428126
    138          1           0        9.892112    1.149055    0.157527
    139          1           0       11.637502   -0.395281    0.806866
    140          1           0       10.040348   -0.861569    1.224447
    141          1           0       10.887214   -1.743497   -0.087048
    142          7           0       10.652866    1.989050   -2.206995
    143          6           0        9.660572    2.970373   -1.829026
    144          6           0       10.273604    4.128316   -1.057820
    145          8           0       11.461412    4.405997   -1.203439
    146          6           0        8.956625    3.490000   -3.077923
    147          1           0       11.244134    2.273936   -2.975982
    148          1           0        8.933712    2.478624   -1.167847
    149          1           0        9.651715    4.139185   -3.600522
    150          1           0        8.778559    2.609312   -3.696374
    151          1           0        8.016014    4.003874   -2.877215
    152          7           0        9.596851    4.848157   -0.153865
    153          6           0        8.225365    4.646209    0.277809
    154          6           0        8.085447    4.526476    1.791046
    155          8           0        7.201717    3.785381    2.218948
    156          6           0        7.421339    5.858752   -0.174940
    157          6           0        5.925553    5.857621    0.098234
    158          6           0        5.299712    7.088422   -0.548723
    159          8           0        4.850299    7.999853    0.167322
    160          8           0        5.148040    7.099724   -1.787702
    161          1           0       10.145382    5.597306    0.256611
    162          1           0        7.820071    3.788564   -0.249336
    163          1           0        7.517834    5.776903   -1.263467
    164          1           0        7.895494    6.786159    0.133593
    165          1           0        5.777951    5.830000    1.184673
    166          1           0        5.520612    5.007473   -0.447450
    167          7           0        8.950033    5.130484    2.601950
    168          6           0        8.950693    4.951125    4.039806
    169          1           0        9.338178    3.961649    4.281397
    170          1           0        9.581262    5.711146    4.501550
    171          1           0        7.933063    5.044561    4.418572
    172          1           0        9.516381    5.887472    2.260747
    173         20           0       -3.813380    1.080444    0.530488
    174          8           0       -2.825123    0.901453    2.871922
    175          1           0       -2.725683    1.758815    3.285252
    176          1           0       -2.308404    0.312679    3.420416
 ---------------------------------------------------------------------

 SCF Done:  E(RB3LYP) =  -5333.33893547     A.U. after   69 cycles

 The electronic state is 1-A.
 Alpha  occ. eigenvalues -- -145.43447 -19.21538 -19.17304 -19.13930 -19.13271
 Alpha  occ. eigenvalues --  -19.13130 -19.12231 -19.11814 -19.10902 -19.10563
 Alpha  occ. eigenvalues --  -19.10413 -19.10197 -19.09400 -19.09179 -19.08901
 Alpha  occ. eigenvalues --  -19.08563 -19.07773 -19.07627 -19.07429 -19.07087
 Alpha  occ. eigenvalues --  -19.06501 -19.05774 -18.97337 -18.97156 -15.49364
 Alpha  occ. eigenvalues --  -14.56946 -14.40386 -14.40053 -14.39415 -14.38948
 Alpha  occ. eigenvalues --  -14.37853 -14.36855 -14.36693 -14.36051 -14.35619
 Alpha  occ. eigenvalues --  -14.34610 -14.34582 -14.33352 -14.32231 -14.32173
 Alpha  occ. eigenvalues --  -12.62961 -12.62948 -12.62868 -10.35234 -10.32367
 Alpha  occ. eigenvalues --  -10.32117 -10.31905 -10.31386 -10.30543 -10.29932
 Alpha  occ. eigenvalues --  -10.29411 -10.29042 -10.28993 -10.28449 -10.28324
 Alpha  occ. eigenvalues --  -10.28032 -10.27396 -10.27369 -10.26906 -10.26773
 Alpha  occ. eigenvalues --  -10.26332 -10.26302 -10.26076 -10.25979 -10.25773
 Alpha  occ. eigenvalues --  -10.25772 -10.25723 -10.25265 -10.24539 -10.24434
 Alpha  occ. eigenvalues --  -10.23986 -10.23792 -10.23250 -10.22825 -10.22742
 Alpha  occ. eigenvalues --  -10.22210 -10.22015 -10.21454 -10.21399 -10.20981
 Alpha  occ. eigenvalues --  -10.20729 -10.20574 -10.20384 -10.20195 -10.20013
 Alpha  occ. eigenvalues --  -10.19630 -10.19471 -10.19414 -10.18971 -10.18055
 Alpha  occ. eigenvalues --  -10.17566 -10.17212 -10.17145 -10.16860 -10.16327
 Alpha  occ. eigenvalues --  -10.14465 -10.11075  -1.86249  -1.13886  -1.13584
 Alpha  occ. eigenvalues --   -1.13357  -1.12928  -1.07497  -1.06910  -1.06856
 Alpha  occ. eigenvalues --   -1.05931  -1.05718  -1.05562  -1.05033  -1.04817
 Alpha  occ. eigenvalues --   -1.04320  -1.03386  -1.03129  -1.02669  -1.02122
 Alpha  occ. eigenvalues --   -1.01056  -1.01030  -1.00402  -1.00180  -1.00104
 Alpha  occ. eigenvalues --   -0.99303  -0.96909  -0.96842  -0.95422  -0.95362
 Alpha  occ. eigenvalues --   -0.94908  -0.94334  -0.93457  -0.92885  -0.92065
 Alpha  occ. eigenvalues --   -0.91854  -0.91809  -0.91695  -0.90984  -0.90743
 Alpha  occ. eigenvalues --   -0.90251  -0.89562  -0.88800  -0.87817  -0.86268
 Alpha  occ. eigenvalues --   -0.84430  -0.82609  -0.81593  -0.81158  -0.81115
 Alpha  occ. eigenvalues --   -0.79763  -0.79221  -0.78321  -0.78140  -0.76647
 Alpha  occ. eigenvalues --   -0.76294  -0.75786  -0.75659  -0.75180  -0.74855
 Alpha  occ. eigenvalues --   -0.74591  -0.73523  -0.73456  -0.73224  -0.72197
 Alpha  occ. eigenvalues --   -0.71110  -0.70525  -0.70366  -0.69048  -0.68288
 Alpha  occ. eigenvalues --   -0.67765  -0.67002  -0.66592  -0.66236  -0.65987
 Alpha  occ. eigenvalues --   -0.64734  -0.64182  -0.63973  -0.63877  -0.63587
 Alpha  occ. eigenvalues --   -0.63418  -0.62673  -0.62408  -0.61793  -0.61666
 Alpha  occ. eigenvalues --   -0.61477  -0.60766  -0.60468  -0.59722  -0.59351
 Alpha  occ. eigenvalues --   -0.59101  -0.58988  -0.58556  -0.58371  -0.57990
 Alpha  occ. eigenvalues --   -0.57560  -0.57237  -0.56970  -0.56569  -0.56406
 Alpha  occ. eigenvalues --   -0.56282  -0.55693  -0.55566  -0.55332  -0.54835
 Alpha  occ. eigenvalues --   -0.54467  -0.53473  -0.53224  -0.53016  -0.52834
 Alpha  occ. eigenvalues --   -0.52690  -0.52347  -0.52235  -0.51998  -0.51479
 Alpha  occ. eigenvalues --   -0.51342  -0.51157  -0.50912  -0.50401  -0.50282
 Alpha  occ. eigenvalues --   -0.49969  -0.49681  -0.49646  -0.49499  -0.49323
 Alpha  occ. eigenvalues --   -0.49050  -0.48591  -0.48293  -0.48201  -0.48111
 Alpha  occ. eigenvalues --   -0.47748  -0.47611  -0.47571  -0.47354  -0.46919
 Alpha  occ. eigenvalues --   -0.46485  -0.46401  -0.46108  -0.46056  -0.45679
 Alpha  occ. eigenvalues --   -0.45452  -0.45273  -0.45214  -0.45152  -0.45107
 Alpha  occ. eigenvalues --   -0.45017  -0.44862  -0.44776  -0.44510  -0.44304
 Alpha  occ. eigenvalues --   -0.44184  -0.44043  -0.43857  -0.43603  -0.43425
 Alpha  occ. eigenvalues --   -0.43324  -0.43272  -0.43157  -0.42904  -0.42627
 Alpha  occ. eigenvalues --   -0.42493  -0.42400  -0.42342  -0.42217  -0.42194
 Alpha  occ. eigenvalues --   -0.41899  -0.41781  -0.41766  -0.41613  -0.41260
 Alpha  occ. eigenvalues --   -0.41153  -0.41052  -0.40997  -0.40815  -0.40579
 Alpha  occ. eigenvalues --   -0.40335  -0.40139  -0.40046  -0.40012  -0.39857
 Alpha  occ. eigenvalues --   -0.39737  -0.39545  -0.39420  -0.39222  -0.39069
 Alpha  occ. eigenvalues --   -0.38920  -0.38782  -0.38765  -0.38473  -0.38307
 Alpha  occ. eigenvalues --   -0.38223  -0.38136  -0.38040  -0.37855  -0.37758
 Alpha  occ. eigenvalues --   -0.37536  -0.37362  -0.37237  -0.37107  -0.36792
 Alpha  occ. eigenvalues --   -0.36758  -0.36539  -0.36220  -0.36146  -0.35689
 Alpha  occ. eigenvalues --   -0.35497  -0.35236  -0.35022  -0.34922  -0.34869
 Alpha  occ. eigenvalues --   -0.34474  -0.34295  -0.34291  -0.34096  -0.33729
 Alpha  occ. eigenvalues --   -0.33275  -0.33046  -0.32867  -0.32121  -0.31798
 Alpha  occ. eigenvalues --   -0.31504  -0.31249  -0.30572  -0.30195  -0.30174
 Alpha  occ. eigenvalues --   -0.29876  -0.29340  -0.28666  -0.28581  -0.28340
 Alpha  occ. eigenvalues --   -0.28073  -0.27979  -0.27943  -0.27740  -0.27671
 Alpha  occ. eigenvalues --   -0.27238  -0.27118  -0.27068  -0.26807  -0.26687
 Alpha  occ. eigenvalues --   -0.26353  -0.26151  -0.25623  -0.25530  -0.25485
 Alpha  occ. eigenvalues --   -0.25266  -0.25150  -0.24829  -0.24627  -0.24611
 Alpha  occ. eigenvalues --   -0.24509  -0.23645  -0.23495  -0.23376  -0.23113
 Alpha  occ. eigenvalues --   -0.22904  -0.22763  -0.21908  -0.21638  -0.21443
 Alpha  occ. eigenvalues --   -0.14371  -0.14320  -0.11384
 Alpha virt. eigenvalues --   -0.10847  -0.06860  -0.04761  -0.04192  -0.02851
 Alpha virt. eigenvalues --   -0.02679  -0.02126  -0.02025  -0.01546  -0.01369
 Alpha virt. eigenvalues --   -0.01335  -0.00850  -0.00459  -0.00345   0.00022

 Mulliken charges:
               1
     1  C    0.072098
     2  C    0.005542
     3  O   -0.272368
     4  H    0.058864
     5  H    0.026259
     6  H   -0.019691
     7  N   -0.137138
     8  C    0.075381
     9  C    0.056257
    10  O   -0.276628
    11  C    0.198482
    12  C    0.062390
    13  O   -0.488794
    14  O   -0.387672
    15  H    0.110767
    16  H   -0.012747
    17  H    0.001942
    18  H    0.008960
    19  N   -0.115877
    20  C    0.199777
    21  C    0.040456
    22  O   -0.300388
    23  C   -0.070957
    24  C    0.036946
    25  C   -0.023465
    26  C    0.044952
    27  N    0.150201
    28  H    0.125778
    29  H    0.034630
    30  H    0.027182
    31  H   -0.007417
    32  H   -0.008425
    33  H    0.011642
    34  H    0.038014
    35  H    0.050499
    36  H    0.037079
    37  H    0.076301
    38  H    0.103594
    39  H    0.114780
    40  H    0.120578
    41  N   -0.136837
    42  C    0.147664
    43  C    0.060873
    44  O   -0.268634
    45  C    0.090001
    46  C    0.083759
    47  O   -0.430447
    48  O   -0.411344
    49  H    0.111247
    50  H    0.017229
    51  H    0.022984
    52  H    0.055892
    53  N   -0.139136
    54  C    0.216973
    55  C    0.010288
    56  O   -0.296033
    57  H    0.127165
    58  H    0.055342
    59  H    0.031504
    60  N   -0.113275
    61  C    0.076881
    62  C    0.135165
    63  O   -0.313141
    64  C    0.088365
    65  C   -0.048328
    66  N   -0.069039
    67  O   -0.266822
    68  H    0.131466
    69  H    0.012644
    70  H   -0.016418
    71  H    0.048973
    72  H    0.123954
    73  H    0.147660
    74  N   -0.141006
    75  C    0.228464
    76  C    0.036602
    77  O   -0.284260
    78  H    0.139465
    79  H    0.045595
    80  H   -0.002006
    81  N   -0.106639
    82  C    0.161982
    83  C    0.089758
    84  O   -0.283775
    85  C    0.117920
    86  C   -0.075671
    87  C    0.019237
    88  C    0.017846
    89  C   -0.036468
    90  C   -0.046080
    91  C    0.153093
    92  O   -0.190800
    93  H    0.117359
    94  H   -0.024286
    95  H    0.020972
    96  H   -0.003334
    97  H    0.011568
    98  H   -0.026939
    99  H   -0.008155
   100  H   -0.046045
   101  H    0.172809
   102  N   -0.085105
   103  C    0.169898
   104  C    0.074916
   105  O   -0.258704
   106  C   -0.115815
   107  C    0.031058
   108  C    0.056015
   109  C    0.020634
   110  H    0.129539
   111  H   -0.026423
   112  H   -0.008388
   113  H   -0.039510
   114  H    0.002729
   115  H    0.001018
   116  H   -0.013439
   117  H    0.022859
   118  H    0.032619
   119  H    0.001523
   120  H    0.014877
   121  N   -0.135035
   122  C    0.105560
   123  C    0.077512
   124  O   -0.246938
   125  C    0.214997
   126  O   -0.329665
   127  H    0.108559
   128  H    0.029813
   129  H    0.021980
   130  H    0.021307
   131  H    0.177148
   132  N   -0.151208
   133  C    0.032330
   134  C    0.087366
   135  O   -0.254654
   136  C    0.093980
   137  H    0.103331
   138  H    0.017151
   139  H    0.013999
   140  H   -0.021422
   141  H    0.050671
   142  N   -0.088407
   143  C   -0.009984
   144  C    0.059651
   145  O   -0.280871
   146  C    0.061094
   147  H    0.126753
   148  H    0.000844
   149  H    0.018477
   150  H    0.013400
   151  H    0.049712
   152  N   -0.092637
   153  C    0.112518
   154  C    0.086086
   155  O   -0.290839
   156  C   -0.036663
   157  C    0.120519
   158  C    0.026078
   159  O   -0.329741
   160  O   -0.351630
   161  H    0.111701
   162  H   -0.006842
   163  H    0.000525
   164  H   -0.017991
   165  H   -0.017280
   166  H   -0.030542
   167  N   -0.149284
   168  C    0.135886
   169  H    0.021670
   170  H    0.014041
   171  H    0.038085
   172  H    0.111259
   173  Ca   1.364582
   174  O   -0.299661
   175  H    0.194039
   176  H    0.196808
 Sum of Mulliken charges =  -0.00000

 Dipole moment (field-independent basis, Debye):
    X=            -52.3534    Y=              0.2419    Z=             19.2671  Tot=             55.7867
 Quadrupole moment (field-independent basis, Debye-Ang):
   XX=           -142.9111   YY=           -710.6325   ZZ=           -560.2462
   XY=           -287.7675   XZ=             54.7194   YZ=            -38.4955

 ESP charges:
               1
     1  C   -0.445062
     2  C    0.675443
     3  O   -0.542173
     4  H    0.156820
     5  H    0.115937
     6  H    0.086317
     7  N   -0.552060
     8  C    0.154062
     9  C    0.507655
    10  O   -0.517635
    11  C   -0.230804
    12  C    0.684114
    13  O   -0.777770
    14  O   -0.673960
    15  H    0.288323
    16  H    0.025046
    17  H    0.074695
    18  H    0.115897
    19  N   -0.338086
    20  C   -0.055337
    21  C    0.541385
    22  O   -0.587344
    23  C   -0.106611
    24  C    0.250231
    25  C   -0.170928
    26  C    0.107417
    27  N   -0.304953
    28  H    0.238612
    29  H    0.122246
    30  H    0.054987
    31  H    0.042641
    32  H   -0.114312
    33  H   -0.019569
    34  H    0.052388
    35  H    0.087654
    36  H    0.035642
    37  H    0.080198
    38  H    0.243643
    39  H    0.253643
    40  H    0.240756
    41  N   -0.236105
    42  C   -0.292070
    43  C    0.619005
    44  O   -0.536237
    45  C   -0.182653
    46  C    0.763961
    47  O   -0.788112
    48  O   -0.744631
    49  H    0.175526
    50  H    0.178781
    51  H    0.087393
    52  H    0.116762
    53  N   -0.312058
    54  C   -0.269525
    55  C    0.641367
    56  O   -0.565158
    57  H    0.279621
    58  H    0.162016
    59  H    0.122846
    60  N   -0.526819
    61  C    0.198153
    62  C    0.364971
    63  O   -0.471019
    64  C   -0.396925
    65  C    0.686746
    66  N   -0.817250
    67  O   -0.553731
    68  H    0.371011
    69  H    0.044003
    70  H    0.097153
    71  H    0.173302
    72  H    0.350931
    73  H    0.390437
    74  N   -0.303300
    75  C    0.010788
    76  C    0.609627
    77  O   -0.566167
    78  H    0.259884
    79  H    0.058901
    80  H    0.055013
    81  N   -0.570645
    82  C    0.179444
    83  C    0.429682
    84  O   -0.485701
    85  C   -0.140215
    86  C    0.068318
    87  C   -0.176500
    88  C   -0.141608
    89  C   -0.237153
    90  C   -0.301645
    91  C    0.366605
    92  O   -0.531177
    93  H    0.327850
    94  H    0.034822
    95  H    0.078673
    96  H    0.057739
    97  H    0.177224
    98  H    0.129637
    99  H    0.163472
   100  H    0.130810
   101  H    0.401732
   102  N   -0.379086
   103  C   -0.210575
   104  C    0.673766
   105  O   -0.500362
   106  C    0.607082
   107  C   -0.167854
   108  C   -0.577654
   109  C   -0.073130
   110  H    0.261528
   111  H    0.061813
   112  H   -0.058394
   113  H    0.005909
   114  H    0.044971
   115  H    0.117558
   116  H    0.118232
   117  H    0.149583
   118  H   -0.003518
   119  H    0.009198
   120  H    0.058033
   121  N   -0.344993
   122  C   -0.236950
   123  C    0.661193
   124  O   -0.482792
   125  C    0.244611
   126  O   -0.598075
   127  H    0.136728
   128  H    0.114766
   129  H    0.017861
   130  H    0.019646
   131  H    0.391784
   132  N   -0.482343
   133  C    0.126475
   134  C    0.506554
   135  O   -0.503517
   136  C   -0.429971
   137  H    0.346891
   138  H    0.097065
   139  H    0.123020
   140  H    0.100154
   141  H    0.154803
   142  N   -0.579379
   143  C    0.440227
   144  C    0.567040
   145  O   -0.587222
   146  C   -0.413739
   147  H    0.337533
   148  H   -0.103397
   149  H    0.110667
   150  H    0.100253
   151  H    0.144100
   152  N   -0.568808
   153  C   -0.349626
   154  C    0.671206
   155  O   -0.545457
   156  C    0.182842
   157  C   -0.412678
   158  C    0.756019
   159  O   -0.639895
   160  O   -0.653213
   161  H    0.331221
   162  H    0.193437
   163  H    0.004730
   164  H    0.009433
   165  H    0.094567
   166  H    0.100110
   167  N   -0.363665
   168  C   -0.215663
   169  H    0.096666
   170  H    0.107833
   171  H    0.112097
   172  H    0.301226
   173  Ca   1.628709
   174  O   -0.830471
   175  H    0.440543
   176  H    0.415795
 Sum of ESP charges =   0.00000

 Normal termination of Gaussian 16 at Wed Sep 18 11:27:38 2019.
