 Gaussian 16, Revision A.03,
 Gaussian 16:  ES64L-G16RevA.03 25-Dec-2016

 ----------------------------------------------------------------------
 #b3lyp/svp scf=(tight,noincore) Test #IOP(5/87=12) Density=Current Pop
 =(MK,readradii) iop(6/33=2) iop(6/42=6)
 ----------------------------------------------------------------------

 -----------------
 Ng-293_loop3_24.0
 -----------------
 Symbolic Z-matrix:
 Charge =  0 Multiplicity = 1

                         Standard orientation:
 ---------------------------------------------------------------------
 Center     Atomic      Atomic             Coordinates (Angstroms)
 Number     Number       Type             X           Y           Z
 ---------------------------------------------------------------------
      1          6           0       -8.688969    0.036291   -5.070451
      2          6           0       -8.509837    0.800690   -3.762397
      3          8           0       -7.525100    0.757639   -3.037801
      4          1           0       -8.908545   -1.009102   -4.852952
      5          1           0       -9.514373    0.469529   -5.635031
      6          1           0       -7.773062    0.100040   -5.658162
      7          7           0       -9.569735    1.531680   -3.379161
      8          6           0       -9.633161    2.407130   -2.225487
      9          6           0       -9.430926    1.804556   -0.844290
     10          8           0       -9.208368    2.538769    0.111481
     11          6           0       -8.998796    3.737502   -2.594257
     12          6           0       -9.298624    4.865631   -1.617411
     13          8           0       -8.307757    5.437429   -1.101436
     14          8           0      -10.461497    5.307070   -1.458799
     15          1           0      -10.300368    1.580174   -4.075455
     16          1           0      -10.691110    2.663528   -2.185411
     17          1           0       -9.360318    4.002673   -3.586369
     18          1           0       -7.929181    3.638799   -2.758817
     19          7           0       -9.541431    0.475793   -0.744905
     20          6           0       -9.678203   -0.322576    0.452884
     21          6           0       -8.468956   -0.465620    1.361048
     22          8           0       -8.755602   -0.706977    2.539471
     23          6           0      -10.189019   -1.679918    0.003785
     24          6           0      -11.624516   -1.665454   -0.512488
     25          6           0      -11.788739   -2.719499   -1.612497
     26          6           0      -13.262930   -3.067842   -1.782254
     27          7           0      -13.969450   -1.935284   -2.394742
     28          1           0       -9.832955    0.054001   -1.615023
     29          1           0      -10.437159    0.198046    1.043677
     30          1           0      -10.279356   -2.362911    0.850816
     31          1           0       -9.515406   -2.052654   -0.764338
     32          1           0      -11.709991   -0.692763   -0.992142
     33          1           0      -12.303444   -1.879904    0.313810
     34          1           0      -11.328394   -3.659568   -1.314248
     35          1           0      -11.441656   -2.310058   -2.560279
     36          1           0      -13.754514   -3.338185   -0.842914
     37          1           0      -13.413214   -3.948520   -2.408291
     38          1           0      -14.966852   -2.071518   -2.374022
     39          1           0      -13.767045   -1.094447   -1.872128
     40          1           0      -13.818211   -1.822280   -3.382141
     41          7           0       -7.253152   -0.486233    0.798203
     42          6           0       -6.105557   -0.567225    1.675567
     43          6           0       -5.077547    0.448429    1.193236
     44          8           0       -4.994746    0.749079    0.003340
     45          6           0       -5.538692   -1.989569    1.633134
     46          6           0       -4.436358   -2.185153    2.652695
     47          8           0       -3.388352   -2.763457    2.276200
     48          8           0       -4.423574   -1.693177    3.800082
     49          1           0       -7.166969   -0.048464   -0.109228
     50          1           0       -6.393994   -0.299843    2.690954
     51          1           0       -5.125750   -2.119533    0.632390
     52          1           0       -6.364598   -2.694872    1.732273
     53          7           0       -4.244057    0.798765    2.175458
     54          6           0       -3.147160    1.739969    2.106542
     55          6           0       -1.757012    1.111223    2.066937
     56          8           0       -1.567876   -0.036890    2.430481
     57          1           0       -4.292619    0.220959    2.998186
     58          1           0       -3.145356    2.343237    3.013110
     59          1           0       -3.238307    2.376220    1.226669
     60          7           0       -0.737809    1.812808    1.547415
     61          6           0        0.519979    1.194219    1.192567
     62          6           0        1.714445    2.057326    1.566461
     63          8           0        2.856973    1.636760    1.685430
     64          6           0        0.536724    0.777860   -0.280412
     65          6           0       -0.483081   -0.265471   -0.714415
     66          7           0       -0.068829   -1.516709   -0.525477
     67          8           0       -1.615091    0.062650   -1.079641
     68          1           0       -0.855860    2.795237    1.383108
     69          1           0        0.706637    0.285860    1.758378
     70          1           0        1.517428    0.395040   -0.560177
     71          1           0        0.305100    1.665409   -0.869570
     72          1           0        0.684664   -1.697137    0.128735
     73          1           0       -0.844705   -2.147853   -0.653049
     74          7           0        1.561348    3.381071    1.679419
     75          6           0        2.536383    4.415955    1.958747
     76          6           0        3.443226    4.642045    0.751635
     77          8           0        3.074115    4.513491   -0.414612
     78          1           0        0.604854    3.685325    1.541402
     79          1           0        3.194740    4.139578    2.778919
     80          1           0        2.060619    5.355878    2.230026
     81          7           0        4.716530    4.600381    1.167641
     82          6           0        5.826987    4.552735    0.244975
     83          6           0        5.904560    3.371357   -0.718939
     84          8           0        6.755139    3.260021   -1.606869
     85          6           0        6.048734    5.872232   -0.501588
     86          6           0        5.658584    7.157884    0.174711
     87          6           0        4.422870    7.741868   -0.146026
     88          6           0        6.530800    7.698763    1.122387
     89          6           0        4.056050    8.818085    0.672021
     90          6           0        6.076839    8.756303    1.927886
     91          6           0        4.816922    9.360198    1.721682
     92          8           0        4.474588   10.418463    2.500003
     93          1           0        4.955492    4.666293    2.143527
     94          1           0        6.671413    4.362128    0.904455
     95          1           0        5.439550    5.692065   -1.382176
     96          1           0        7.097046    5.989627   -0.792037
     97          1           0        3.844532    7.415216   -1.006853
     98          1           0        7.422315    7.106957    1.294916
     99          1           0        3.107859    9.311827    0.529011
    100          1           0        6.708400    9.223216    2.672549
    101          1           0        4.925050   10.338533    3.339881
    102          7           0        5.054468    2.344788   -0.595253
    103          6           0        5.062099    1.054408   -1.245916
    104          6           0        6.214044    0.137429   -0.843954
    105          8           0        6.010764   -0.907665   -0.227631
    106          6           0        4.794598    1.216991   -2.730304
    107          6           0        3.441843    1.865603   -2.956042
    108          6           0        4.628914   -0.214144   -3.242945
    109          6           0        3.085417    2.235726   -4.402752
    110          1           0        4.371646    2.510774    0.122175
    111          1           0        4.209773    0.500471   -0.853877
    112          1           0        5.525217    1.748275   -3.343192
    113          1           0        3.362749    2.805285   -2.394845
    114          1           0        2.612619    1.262132   -2.602897
    115          1           0        3.893979   -0.800932   -2.700773
    116          1           0        4.246453   -0.192756   -4.268696
    117          1           0        5.556221   -0.789808   -3.239408
    118          1           0        2.897215    1.250824   -4.841441
    119          1           0        2.243183    2.903846   -4.481219
    120          1           0        3.963610    2.652814   -4.898247
    121          7           0        7.457034    0.491822   -1.189472
    122          6           0        8.700612   -0.147914   -0.808487
    123          6           0        8.794818   -1.647403   -1.079704
    124          8           0        9.362443   -2.334240   -0.245764
    125          6           0        9.855362    0.532526   -1.544527
    126          8           0        9.909230    1.891918   -1.176628
    127          1           0        7.511723    1.310131   -1.767209
    128          1           0        8.875420    0.109545    0.240159
    129          1           0        9.590225    0.491245   -2.590470
    130          1           0       10.793489    0.035290   -1.310486
    131          1           0       10.698297    2.203226   -1.628911
    132          7           0        8.274850   -2.091806   -2.226412
    133          6           0        8.287950   -3.509544   -2.534219
    134          6           0        7.969454   -4.437056   -1.372461
    135          8           0        8.553440   -5.487887   -1.106536
    136          6           0        9.548690   -3.920564   -3.298220
    137          1           0        7.947235   -1.456562   -2.936928
    138          1           0        7.403915   -3.566962   -3.179033
    139          1           0       10.320538   -4.150313   -2.562580
    140          1           0        9.425681   -4.796251   -3.929839
    141          1           0        9.963272   -3.184152   -3.982120
    142          7           0        6.890174   -4.089552   -0.674323
    143          6           0        6.232513   -4.872661    0.356609
    144          6           0        4.753105   -5.143289    0.123345
    145          8           0        4.178252   -4.726577   -0.879948
    146          6           0        6.417538   -4.008814    1.603218
    147          1           0        6.578047   -3.138121   -0.775590
    148          1           0        6.665874   -5.874417    0.431998
    149          1           0        5.817571   -4.352877    2.448653
    150          1           0        7.441510   -3.945876    1.969308
    151          1           0        6.173699   -2.963486    1.453783
    152          7           0        4.115213   -5.892534    1.030332
    153          6           0        2.775480   -6.423689    0.995856
    154          6           0        2.351654   -7.256943   -0.207871
    155          8           0        1.179976   -7.489187   -0.515495
    156          6           0        1.898608   -5.220615    1.333951
    157          6           0        0.422546   -5.556206    1.524795
    158          6           0       -0.243103   -4.423842    2.294382
    159          8           0        0.120383   -3.229517    2.200232
    160          8           0       -1.243486   -4.668769    2.991695
    161          1           0        4.761005   -6.402521    1.616051
    162          1           0        2.661516   -7.141507    1.803785
    163          1           0        1.981244   -4.521111    0.499885
    164          1           0        2.287785   -4.813935    2.273606
    165          1           0        0.426457   -6.501688    2.060190
    166          1           0       -0.125149   -5.759183    0.601795
    167          7           0        3.276179   -7.690337   -1.058238
    168          6           0        3.006076   -8.213638   -2.380282
    169          1           0        2.763961   -9.274220   -2.308008
    170          1           0        2.164341   -7.678199   -2.818611
    171          1           0        3.886998   -8.084845   -3.009132
    172          1           0        4.241384   -7.611464   -0.785917
    173         20           0       -1.545274   -2.200045    4.010971
    174          8           0       -1.428140   -1.926494    6.655522
    175          1           0       -2.167665   -2.119309    7.240864
    176          1           0       -0.852383   -1.368120    7.173423
 ---------------------------------------------------------------------

 SCF Done:  E(RB3LYP) =  -5333.33890168     A.U. after   28 cycles

 The electronic state is 1-A.
 Alpha  occ. eigenvalues -- -145.42390 -19.23899 -19.17396 -19.14036 -19.13961
 Alpha  occ. eigenvalues --  -19.12703 -19.12230 -19.09681 -19.09599 -19.09393
 Alpha  occ. eigenvalues --  -19.08134 -19.07290 -19.07187 -19.07162 -19.07150
 Alpha  occ. eigenvalues --  -19.07012 -19.06788 -19.05907 -19.05073 -19.04838
 Alpha  occ. eigenvalues --  -19.03269 -19.03157 -18.95931 -18.95475 -15.48275
 Alpha  occ. eigenvalues --  -14.55183 -14.39102 -14.38952 -14.38461 -14.36028
 Alpha  occ. eigenvalues --  -14.34906 -14.34691 -14.34584 -14.33899 -14.33539
 Alpha  occ. eigenvalues --  -14.33513 -14.33218 -14.32453 -14.32310 -14.32179
 Alpha  occ. eigenvalues --  -12.61873 -12.61841 -12.61807 -10.33437 -10.32027
 Alpha  occ. eigenvalues --  -10.31332 -10.30973 -10.28792 -10.28159 -10.28122
 Alpha  occ. eigenvalues --  -10.26944 -10.26861 -10.26536 -10.26489 -10.26419
 Alpha  occ. eigenvalues --  -10.26373 -10.26256 -10.26000 -10.25969 -10.25675
 Alpha  occ. eigenvalues --  -10.25539 -10.25307 -10.25164 -10.24476 -10.24182
 Alpha  occ. eigenvalues --  -10.24048 -10.23363 -10.23043 -10.23002 -10.22961
 Alpha  occ. eigenvalues --  -10.22837 -10.22250 -10.22237 -10.22220 -10.21319
 Alpha  occ. eigenvalues --  -10.20393 -10.20252 -10.20195 -10.20160 -10.19809
 Alpha  occ. eigenvalues --  -10.19696 -10.19646 -10.19599 -10.19539 -10.19403
 Alpha  occ. eigenvalues --  -10.19239 -10.18477 -10.17022 -10.16851 -10.16481
 Alpha  occ. eigenvalues --  -10.16291 -10.16251 -10.15684 -10.15444 -10.15307
 Alpha  occ. eigenvalues --  -10.13980 -10.11108  -1.84999  -1.12456  -1.12213
 Alpha  occ. eigenvalues --   -1.12045  -1.11293  -1.09484  -1.07334  -1.06417
 Alpha  occ. eigenvalues --   -1.06277  -1.05060  -1.03521  -1.02880  -1.02475
 Alpha  occ. eigenvalues --   -1.01993  -1.01667  -1.00859  -1.00261  -1.00197
 Alpha  occ. eigenvalues --   -0.99818  -0.99614  -0.99578  -0.99395  -0.99274
 Alpha  occ. eigenvalues --   -0.98724  -0.96404  -0.95522  -0.94141  -0.93030
 Alpha  occ. eigenvalues --   -0.91892  -0.91732  -0.91273  -0.91208  -0.90751
 Alpha  occ. eigenvalues --   -0.90249  -0.89609  -0.89383  -0.89268  -0.88934
 Alpha  occ. eigenvalues --   -0.88206  -0.88007  -0.87992  -0.87939  -0.85911
 Alpha  occ. eigenvalues --   -0.81775  -0.81423  -0.81075  -0.80026  -0.79673
 Alpha  occ. eigenvalues --   -0.78608  -0.77757  -0.76804  -0.76576  -0.75733
 Alpha  occ. eigenvalues --   -0.75612  -0.75031  -0.74600  -0.74220  -0.73846
 Alpha  occ. eigenvalues --   -0.72805  -0.72706  -0.71093  -0.70999  -0.70611
 Alpha  occ. eigenvalues --   -0.69623  -0.69487  -0.68858  -0.67763  -0.67177
 Alpha  occ. eigenvalues --   -0.66710  -0.65749  -0.64558  -0.64156  -0.63719
 Alpha  occ. eigenvalues --   -0.63398  -0.63280  -0.63020  -0.62791  -0.62665
 Alpha  occ. eigenvalues --   -0.62118  -0.61111  -0.60955  -0.60929  -0.60560
 Alpha  occ. eigenvalues --   -0.59672  -0.59461  -0.59359  -0.58859  -0.58239
 Alpha  occ. eigenvalues --   -0.57739  -0.57574  -0.56839  -0.56382  -0.56374
 Alpha  occ. eigenvalues --   -0.56273  -0.55990  -0.55875  -0.55759  -0.55255
 Alpha  occ. eigenvalues --   -0.55052  -0.54574  -0.54124  -0.53851  -0.53582
 Alpha  occ. eigenvalues --   -0.53498  -0.53057  -0.52959  -0.52262  -0.51977
 Alpha  occ. eigenvalues --   -0.51516  -0.51434  -0.51025  -0.50934  -0.50723
 Alpha  occ. eigenvalues --   -0.50461  -0.50380  -0.49485  -0.49188  -0.48812
 Alpha  occ. eigenvalues --   -0.48624  -0.48179  -0.47961  -0.47686  -0.47609
 Alpha  occ. eigenvalues --   -0.47368  -0.46914  -0.46853  -0.46575  -0.46521
 Alpha  occ. eigenvalues --   -0.46424  -0.46168  -0.45865  -0.45769  -0.45734
 Alpha  occ. eigenvalues --   -0.45515  -0.45295  -0.45241  -0.45107  -0.44922
 Alpha  occ. eigenvalues --   -0.44756  -0.44471  -0.44373  -0.43943  -0.43735
 Alpha  occ. eigenvalues --   -0.43616  -0.43347  -0.43311  -0.43217  -0.43112
 Alpha  occ. eigenvalues --   -0.42768  -0.42664  -0.42541  -0.42385  -0.42313
 Alpha  occ. eigenvalues --   -0.42153  -0.41977  -0.41647  -0.41392  -0.41277
 Alpha  occ. eigenvalues --   -0.41249  -0.41025  -0.40690  -0.40647  -0.40439
 Alpha  occ. eigenvalues --   -0.40361  -0.40217  -0.39934  -0.39795  -0.39689
 Alpha  occ. eigenvalues --   -0.39580  -0.39332  -0.39317  -0.39058  -0.39029
 Alpha  occ. eigenvalues --   -0.38881  -0.38663  -0.38658  -0.38393  -0.38168
 Alpha  occ. eigenvalues --   -0.38108  -0.38023  -0.37915  -0.37839  -0.37823
 Alpha  occ. eigenvalues --   -0.37483  -0.37428  -0.37334  -0.37178  -0.37025
 Alpha  occ. eigenvalues --   -0.36855  -0.36756  -0.36599  -0.36508  -0.36298
 Alpha  occ. eigenvalues --   -0.36212  -0.35990  -0.35956  -0.35866  -0.35727
 Alpha  occ. eigenvalues --   -0.35566  -0.35420  -0.35257  -0.35149  -0.34784
 Alpha  occ. eigenvalues --   -0.34652  -0.34352  -0.34242  -0.33894  -0.33457
 Alpha  occ. eigenvalues --   -0.33237  -0.33217  -0.33155  -0.32766  -0.32473
 Alpha  occ. eigenvalues --   -0.32420  -0.31761  -0.31462  -0.30875  -0.30405
 Alpha  occ. eigenvalues --   -0.30191  -0.30189  -0.29927  -0.29812  -0.29442
 Alpha  occ. eigenvalues --   -0.28572  -0.27977  -0.27449  -0.27073  -0.27034
 Alpha  occ. eigenvalues --   -0.26817  -0.26815  -0.26258  -0.26131  -0.26113
 Alpha  occ. eigenvalues --   -0.25663  -0.25637  -0.25037  -0.25005  -0.24346
 Alpha  occ. eigenvalues --   -0.24305  -0.24140  -0.24116  -0.23830  -0.23693
 Alpha  occ. eigenvalues --   -0.23389  -0.23357  -0.23065  -0.23061  -0.22765
 Alpha  occ. eigenvalues --   -0.22751  -0.22646  -0.22624  -0.21948  -0.21851
 Alpha  occ. eigenvalues --   -0.21719  -0.21230  -0.20882  -0.19235  -0.18865
 Alpha  occ. eigenvalues --   -0.13131  -0.12623  -0.09966
 Alpha virt. eigenvalues --   -0.08712  -0.06888  -0.03270  -0.03154  -0.02200
 Alpha virt. eigenvalues --   -0.01825  -0.01389  -0.01325  -0.01114  -0.00828
 Alpha virt. eigenvalues --    0.00122   0.00389   0.00677   0.01154   0.01540

 Mulliken charges:
               1
     1  C    0.060096
     2  C    0.009173
     3  O   -0.252007
     4  H    0.018627
     5  H   -0.010718
     6  H    0.051315
     7  N   -0.166306
     8  C    0.056727
     9  C    0.074032
    10  O   -0.216500
    11  C    0.136485
    12  C    0.067812
    13  O   -0.342756
    14  O   -0.371821
    15  H    0.095185
    16  H   -0.015229
    17  H   -0.050041
    18  H   -0.005186
    19  N   -0.132783
    20  C    0.126420
    21  C    0.108987
    22  O   -0.301256
    23  C    0.031310
    24  C   -0.014792
    25  C   -0.010374
    26  C    0.035156
    27  N    0.148216
    28  H    0.097205
    29  H    0.005090
    30  H    0.020939
    31  H    0.014590
    32  H   -0.010153
    33  H    0.021957
    34  H    0.052423
    35  H    0.020162
    36  H    0.060372
    37  H    0.046581
    38  H    0.101007
    39  H    0.136779
    40  H    0.103803
    41  N   -0.143809
    42  C    0.033949
    43  C    0.078727
    44  O   -0.244982
    45  C    0.183161
    46  C    0.075854
    47  O   -0.397560
    48  O   -0.432969
    49  H    0.154562
    50  H    0.023082
    51  H    0.010337
    52  H    0.007435
    53  N   -0.131360
    54  C    0.223479
    55  C    0.092146
    56  O   -0.350525
    57  H    0.115496
    58  H    0.016690
    59  H    0.057320
    60  N   -0.143208
    61  C    0.110310
    62  C    0.067725
    63  O   -0.280909
    64  C    0.074533
    65  C   -0.005954
    66  N   -0.031506
    67  O   -0.253221
    68  H    0.121417
    69  H    0.022347
    70  H    0.034727
    71  H    0.008137
    72  H    0.140572
    73  H    0.143208
    74  N   -0.121740
    75  C    0.203214
    76  C    0.078485
    77  O   -0.256364
    78  H    0.094768
    79  H    0.003123
    80  H    0.040318
    81  N   -0.156754
    82  C    0.110066
    83  C    0.057379
    84  O   -0.303485
    85  C    0.149796
    86  C   -0.102894
    87  C    0.042927
    88  C    0.036649
    89  C   -0.065182
    90  C   -0.069460
    91  C    0.180195
    92  O   -0.185767
    93  H    0.134649
    94  H    0.011964
    95  H    0.002162
    96  H    0.020887
    97  H    0.000254
    98  H   -0.028763
    99  H   -0.022724
   100  H   -0.039265
   101  H    0.178585
   102  N   -0.098936
   103  C    0.180401
   104  C    0.050627
   105  O   -0.267009
   106  C   -0.074732
   107  C   -0.041255
   108  C    0.067020
   109  C    0.049648
   110  H    0.126414
   111  H   -0.002284
   112  H    0.005345
   113  H    0.013832
   114  H   -0.019620
   115  H    0.017368
   116  H   -0.004463
   117  H   -0.019960
   118  H    0.003729
   119  H    0.018808
   120  H   -0.001831
   121  N   -0.118756
   122  C    0.107658
   123  C    0.067338
   124  O   -0.244813
   125  C    0.205117
   126  O   -0.288226
   127  H    0.134667
   128  H    0.011753
   129  H   -0.030802
   130  H    0.018972
   131  H    0.161810
   132  N   -0.159494
   133  C    0.068100
   134  C    0.065766
   135  O   -0.274893
   136  C    0.091450
   137  H    0.130800
   138  H    0.013427
   139  H    0.036775
   140  H    0.010294
   141  H   -0.018766
   142  N   -0.125577
   143  C    0.119094
   144  C    0.037715
   145  O   -0.258740
   146  C    0.041993
   147  H    0.130923
   148  H    0.012028
   149  H   -0.022661
   150  H    0.024957
   151  H    0.027780
   152  N   -0.122180
   153  C    0.087155
   154  C    0.058185
   155  O   -0.281650
   156  C    0.027140
   157  C    0.092856
   158  C    0.107929
   159  O   -0.464840
   160  O   -0.401080
   161  H    0.111049
   162  H    0.005930
   163  H    0.027908
   164  H   -0.013062
   165  H   -0.026258
   166  H    0.046919
   167  N   -0.130973
   168  C    0.141720
   169  H    0.016733
   170  H    0.040059
   171  H    0.013439
   172  H    0.101245
   173  Ca   1.322585
   174  O   -0.319256
   175  H    0.212238
   176  H    0.194654
 Sum of Mulliken charges =  -0.00000

 Dipole moment (field-independent basis, Debye):
    X=             -8.5473    Y=            -12.0884    Z=              6.3226  Tot=             16.0985
 Quadrupole moment (field-independent basis, Debye-Ang):
   XX=           -228.1754   YY=           -660.8528   ZZ=           -413.6304
   XY=            312.8223   XZ=            118.7432   YZ=             61.5154

 ESP charges:
               1
     1  C   -0.490554
     2  C    0.770975
     3  O   -0.591879
     4  H    0.113453
     5  H    0.093988
     6  H    0.155402
     7  N   -0.670657
     8  C    0.436025
     9  C    0.320846
    10  O   -0.446421
    11  C   -0.384455
    12  C    0.753185
    13  O   -0.635698
    14  O   -0.676023
    15  H    0.297332
    16  H   -0.038242
    17  H    0.077915
    18  H    0.104885
    19  N   -0.174285
    20  C   -0.093675
    21  C    0.566825
    22  O   -0.540772
    23  C   -0.198122
    24  C    0.145374
    25  C   -0.137721
    26  C    0.071127
    27  N   -0.269963
    28  H    0.177628
    29  H    0.088950
    30  H    0.108621
    31  H    0.056599
    32  H   -0.067258
    33  H    0.017070
    34  H    0.077620
    35  H    0.056910
    36  H    0.077555
    37  H    0.055164
    38  H    0.226622
    39  H    0.248423
    40  H    0.250630
    41  N   -0.493796
    42  C    0.295439
    43  C    0.428971
    44  O   -0.433364
    45  C   -0.218807
    46  C    0.739641
    47  O   -0.683318
    48  O   -0.776390
    49  H    0.279781
    50  H   -0.004588
    51  H    0.057290
    52  H    0.070919
    53  N   -0.354269
    54  C   -0.007346
    55  C    0.665316
    56  O   -0.595871
    57  H    0.226981
    58  H    0.031581
    59  H    0.100677
    60  N   -0.742673
    61  C    0.299967
    62  C    0.429549
    63  O   -0.504389
    64  C   -0.180978
    65  C    0.682107
    66  N   -0.794619
    67  O   -0.537577
    68  H    0.348118
    69  H    0.038670
    70  H    0.041560
    71  H    0.048748
    72  H    0.372676
    73  H    0.384763
    74  N   -0.373449
    75  C   -0.117805
    76  C    0.631263
    77  O   -0.509066
    78  H    0.284288
    79  H    0.104811
    80  H    0.087486
    81  N   -0.750625
    82  C    0.301161
    83  C    0.361765
    84  O   -0.549564
    85  C   -0.440302
    86  C    0.121700
    87  C   -0.138820
    88  C   -0.047392
    89  C   -0.256073
    90  C   -0.409376
    91  C    0.407447
    92  O   -0.518552
    93  H    0.379648
    94  H    0.078294
    95  H    0.172665
    96  H    0.128411
    97  H    0.159565
    98  H    0.110101
    99  H    0.136496
   100  H    0.164409
   101  H    0.385970
   102  N   -0.192513
   103  C   -0.450277
   104  C    0.734862
   105  O   -0.585009
   106  C    0.119948
   107  C    0.403430
   108  C   -0.477752
   109  C   -0.369355
   110  H    0.255898
   111  H    0.162885
   112  H    0.058300
   113  H   -0.062171
   114  H   -0.063851
   115  H    0.152602
   116  H    0.115689
   117  H    0.085864
   118  H    0.052804
   119  H    0.101632
   120  H    0.065956
   121  N   -0.370076
   122  C   -0.089117
   123  C    0.435119
   124  O   -0.460900
   125  C    0.156099
   126  O   -0.558884
   127  H    0.329717
   128  H    0.126274
   129  H   -0.015312
   130  H    0.052416
   131  H    0.387602
   132  N   -0.379776
   133  C    0.123012
   134  C    0.587677
   135  O   -0.543728
   136  C   -0.255792
   137  H    0.284341
   138  H    0.045882
   139  H    0.089066
   140  H    0.069630
   141  H    0.063034
   142  N   -0.657931
   143  C    0.530711
   144  C    0.405317
   145  O   -0.509432
   146  C   -0.466205
   147  H    0.297686
   148  H   -0.012647
   149  H    0.060390
   150  H    0.123704
   151  H    0.168534
   152  N   -0.499409
   153  C    0.205689
   154  C    0.304683
   155  O   -0.479625
   156  C    0.018195
   157  C   -0.102808
   158  C    0.766405
   159  O   -0.817215
   160  O   -0.769120
   161  H    0.242301
   162  H    0.042122
   163  H    0.067396
   164  H   -0.014960
   165  H   -0.005709
   166  H    0.082119
   167  N   -0.183774
   168  C   -0.152233
   169  H    0.060715
   170  H    0.114494
   171  H    0.086516
   172  H    0.198723
   173  Ca   1.615647
   174  O   -0.847794
   175  H    0.443860
   176  H    0.445803
 Sum of ESP charges =  -0.00000

 Normal termination of Gaussian 16 at Tue Sep 17 00:28:07 2019.
