 Gaussian 16, Revision A.03,
 Gaussian 16:  ES64L-G16RevA.03 25-Dec-2016

 ----------------------------------------------------------------------
 #b3lyp/svp scf=(tight,noincore) Test #IOP(5/87=12) Density=Current Pop
 =(MK,readradii) iop(6/33=2) iop(6/42=6)
 ----------------------------------------------------------------------

 -----------------
 Ng-293_loop3_49.0
 -----------------
 Symbolic Z-matrix:
 Charge =  0 Multiplicity = 1

                         Standard orientation:
 ---------------------------------------------------------------------
 Center     Atomic      Atomic             Coordinates (Angstroms)
 Number     Number       Type             X           Y           Z
 ---------------------------------------------------------------------
      1          6           0       10.427780   -1.621462   -5.772978
      2          6           0       10.463886   -1.543258   -4.254104
      3          8           0       11.543932   -1.423441   -3.675100
      4          1           0       11.424313   -1.855703   -6.147718
      5          1           0        9.731991   -2.402252   -6.080480
      6          1           0       10.103674   -0.663380   -6.178979
      7          7           0        9.318057   -1.814340   -3.621417
      8          6           0        9.290878   -1.902339   -2.175832
      9          6           0        7.906253   -1.519029   -1.666628
     10          8           0        6.959316   -1.644125   -2.442747
     11          6           0        9.615953   -3.364705   -1.888234
     12          6           0        9.780473   -3.713280   -0.410219
     13          8           0       10.059635   -2.773353    0.360888
     14          8           0        9.658902   -4.890757   -0.003686
     15          1           0        8.485636   -1.928763   -4.193154
     16          1           0        9.995927   -1.206902   -1.726975
     17          1           0       10.553809   -3.571971   -2.399963
     18          1           0        8.829572   -4.056997   -2.182575
     19          7           0        7.749662   -1.085523   -0.409150
     20          6           0        6.557052   -0.596012    0.262386
     21          6           0        5.522435   -1.692582    0.456551
     22          8           0        5.734549   -2.821221    0.038482
     23          6           0        6.129230    0.773874   -0.253446
     24          6           0        7.122486    1.926921   -0.359864
     25          6           0        7.617116    2.471020    0.986390
     26          6           0        8.495027    3.713618    0.918396
     27          7           0        9.436767    3.719748   -0.214338
     28          1           0        8.546850   -1.267043    0.179189
     29          1           0        6.931543   -0.240271    1.218527
     30          1           0        5.360274    1.199110    0.382228
     31          1           0        5.778983    0.543103   -1.261499
     32          1           0        6.682446    2.776775   -0.871541
     33          1           0        7.918620    1.575517   -1.013152
     34          1           0        8.180492    1.667752    1.457842
     35          1           0        6.737999    2.687871    1.594855
     36          1           0        9.163725    3.746681    1.776446
     37          1           0        7.897369    4.630817    0.911319
     38          1           0        8.982712    3.806499   -1.113287
     39          1           0       10.030792    4.536590   -0.131862
     40          1           0        9.935772    2.858901   -0.327643
     41          7           0        4.489532   -1.410659    1.248088
     42          6           0        3.471492   -2.281311    1.824334
     43          6           0        2.995337   -3.398919    0.907204
     44          8           0        3.144561   -4.563502    1.268976
     45          6           0        2.432089   -1.379449    2.473631
     46          6           0        2.748487   -0.110412    3.245342
     47          8           0        1.969164    0.157130    4.186180
     48          8           0        3.668404    0.684262    2.931582
     49          1           0        4.571250   -0.496689    1.679574
     50          1           0        4.026328   -2.780058    2.622275
     51          1           0        1.793622   -1.952305    3.146531
     52          1           0        1.754811   -1.037933    1.684985
     53          7           0        2.262748   -3.020888   -0.142990
     54          6           0        1.931699   -3.941309   -1.224624
     55          6           0        1.098785   -5.162445   -0.889395
     56          8           0        1.047501   -6.121490   -1.650187
     57          1           0        2.306766   -2.058210   -0.417058
     58          1           0        2.833455   -4.274239   -1.734029
     59          1           0        1.379912   -3.351562   -1.960035
     60          7           0        0.399768   -5.118866    0.247125
     61          6           0       -0.712508   -5.948501    0.673914
     62          6           0       -1.789922   -5.059856    1.265935
     63          8           0       -1.529494   -4.049839    1.921559
     64          6           0       -0.233917   -6.950759    1.718965
     65          6           0       -1.347763   -7.898699    2.135687
     66          7           0       -1.606835   -8.000620    3.443316
     67          8           0       -2.035143   -8.559076    1.361471
     68          1           0        0.481969   -4.233876    0.711167
     69          1           0       -1.120142   -6.484517   -0.174979
     70          1           0        0.018906   -6.314578    2.567171
     71          1           0        0.570004   -7.550177    1.287099
     72          1           0       -1.068060   -7.476705    4.125910
     73          1           0       -2.444658   -8.486986    3.716997
     74          7           0       -3.083533   -5.374821    1.146069
     75          6           0       -4.203968   -4.534106    1.533269
     76          6           0       -4.604592   -3.495116    0.501328
     77          8           0       -3.804041   -3.108292   -0.354934
     78          1           0       -3.303341   -6.258591    0.718944
     79          1           0       -4.094299   -4.118107    2.537767
     80          1           0       -5.041480   -5.214458    1.692627
     81          7           0       -5.848234   -3.026686    0.574323
     82          6           0       -6.601819   -2.361584   -0.468821
     83          6           0       -6.031292   -1.035763   -0.940409
     84          8           0       -6.596350   -0.333428   -1.775056
     85          6           0       -6.937330   -3.259721   -1.662631
     86          6           0       -7.569048   -4.572969   -1.289519
     87          6           0       -6.968276   -5.810845   -1.577156
     88          6           0       -8.849323   -4.513293   -0.738217
     89          6           0       -7.594466   -6.995618   -1.184982
     90          6           0       -9.500198   -5.704603   -0.394499
     91          6           0       -8.869306   -6.953077   -0.572224
     92          8           0       -9.474718   -8.085323   -0.115172
     93          1           0       -6.356123   -3.200804    1.428215
     94          1           0       -7.559338   -1.999925   -0.089666
     95          1           0       -5.972864   -3.543079   -2.088909
     96          1           0       -7.452722   -2.768114   -2.492085
     97          1           0       -5.943855   -5.765379   -1.923560
     98          1           0       -9.305323   -3.537933   -0.606549
     99          1           0       -7.055005   -7.928513   -1.123438
    100          1           0      -10.542321   -5.651962   -0.095652
    101          1           0      -10.383169   -8.047548    0.208387
    102          7           0       -4.845520   -0.625642   -0.491581
    103          6           0       -4.137383    0.602558   -0.791025
    104          6           0       -4.811552    1.860447   -0.260258
    105          8           0       -4.116722    2.663072    0.360955
    106          6           0       -3.616524    0.583039   -2.232145
    107          6           0       -2.596366   -0.535298   -2.450316
    108          6           0       -2.790017    1.816162   -2.578109
    109          6           0       -2.498089   -1.030237   -3.890621
    110          1           0       -4.420536   -1.238015    0.191784
    111          1           0       -3.279489    0.437445   -0.136766
    112          1           0       -4.427722    0.562219   -2.963530
    113          1           0       -2.908050   -1.400478   -1.879687
    114          1           0       -1.618363   -0.219376   -2.103756
    115          1           0       -2.259633    1.768830   -3.525026
    116          1           0       -3.543638    2.600263   -2.566199
    117          1           0       -2.045235    2.058039   -1.811757
    118          1           0       -2.317735   -0.251378   -4.628287
    119          1           0       -1.620015   -1.657233   -3.801390
    120          1           0       -3.343123   -1.649611   -4.208258
    121          7           0       -6.090474    2.136282   -0.520974
    122          6           0       -6.893513    3.252401   -0.062272
    123          6           0       -6.466086    4.573711   -0.677046
    124          8           0       -6.758611    5.654483   -0.180599
    125          6           0       -8.343573    2.929719   -0.404769
    126          8           0       -8.384834    2.455521   -1.729319
    127          1           0       -6.566681    1.460168   -1.103465
    128          1           0       -6.784525    3.376340    1.017061
    129          1           0       -8.975730    3.802793   -0.235600
    130          1           0       -8.677916    2.087693    0.205237
    131          1           0       -9.136855    2.919908   -2.112606
    132          7           0       -5.777945    4.501294   -1.820645
    133          6           0       -5.184542    5.560766   -2.612599
    134          6           0       -4.187255    6.424358   -1.870961
    135          8           0       -4.061208    7.609368   -2.187922
    136          6           0       -6.324712    6.261446   -3.348031
    137          1           0       -5.686026    3.562681   -2.178354
    138          1           0       -4.502931    5.135581   -3.354437
    139          1           0       -5.817813    6.994653   -3.977604
    140          1           0       -6.866086    5.494808   -3.899557
    141          1           0       -6.959896    6.784136   -2.636809
    142          7           0       -3.447401    5.897351   -0.888984
    143          6           0       -2.616871    6.618400    0.053835
    144          6           0       -1.153165    6.222832    0.024002
    145          8           0       -0.785658    5.173769   -0.519050
    146          6           0       -3.267049    6.551473    1.438353
    147          1           0       -3.569870    4.926921   -0.660582
    148          1           0       -2.711947    7.642897   -0.329005
    149          1           0       -4.328852    6.825091    1.418167
    150          1           0       -3.114215    5.564704    1.875421
    151          1           0       -2.733097    7.235498    2.097675
    152          7           0       -0.285185    7.126195    0.477373
    153          6           0        1.153064    6.943580    0.551475
    154          6           0        1.853023    6.941916   -0.799619
    155          8           0        3.053917    6.702881   -0.879722
    156          6           0        1.528830    5.733047    1.388082
    157          6           0        0.839171    5.646917    2.756092
    158          6           0        1.389538    4.450182    3.522527
    159          8           0        1.843902    4.667099    4.667210
    160          8           0        1.325883    3.300279    3.049693
    161          1           0       -0.662287    8.053984    0.639242
    162          1           0        1.555403    7.794905    1.112875
    163          1           0        2.606205    5.813367    1.468154
    164          1           0        1.339033    4.759651    0.926804
    165          1           0       -0.243653    5.553917    2.637169
    166          1           0        1.036356    6.580183    3.270615
    167          7           0        1.185688    7.492974   -1.807339
    168          6           0        1.539603    7.136089   -3.171552
    169          1           0        1.443961    6.057906   -3.301166
    170          1           0        0.870867    7.644799   -3.866170
    171          1           0        2.568701    7.435990   -3.370785
    172          1           0        0.250774    7.871721   -1.702039
    173         20           0        1.359542    2.294765    5.483745
    174          8           0       -0.047583    3.735323    7.130983
    175          1           0        0.253932    3.498464    7.999940
    176          1           0       -0.938626    4.058303    7.268923
 ---------------------------------------------------------------------

 SCF Done:  E(RB3LYP) =  -5333.35783378     A.U. after   43 cycles

 The electronic state is 1-A.
 Alpha  occ. eigenvalues -- -145.46166 -19.24149 -19.17229 -19.15451 -19.12576
 Alpha  occ. eigenvalues --  -19.10681 -19.09960 -19.09788 -19.09763 -19.09554
 Alpha  occ. eigenvalues --  -19.09288 -19.08876 -19.08368 -19.07656 -19.07082
 Alpha  occ. eigenvalues --  -19.06736 -19.06712 -19.06124 -19.05147 -19.05132
 Alpha  occ. eigenvalues --  -19.05009 -19.04390 -18.97330 -18.96859 -15.52179
 Alpha  occ. eigenvalues --  -14.56747 -14.39125 -14.36560 -14.36510 -14.35733
 Alpha  occ. eigenvalues --  -14.35338 -14.35213 -14.35165 -14.34944 -14.33955
 Alpha  occ. eigenvalues --  -14.33679 -14.32246 -14.30913 -14.30712 -14.30376
 Alpha  occ. eigenvalues --  -12.65804 -12.65724 -12.65669 -10.33695 -10.31553
 Alpha  occ. eigenvalues --  -10.29469 -10.28804 -10.28614 -10.28467 -10.28269
 Alpha  occ. eigenvalues --  -10.28072 -10.27822 -10.27584 -10.26814 -10.26517
 Alpha  occ. eigenvalues --  -10.26292 -10.25722 -10.25670 -10.25599 -10.25491
 Alpha  occ. eigenvalues --  -10.25403 -10.25274 -10.24293 -10.24290 -10.23736
 Alpha  occ. eigenvalues --  -10.23660 -10.23555 -10.23531 -10.23473 -10.23192
 Alpha  occ. eigenvalues --  -10.23077 -10.22937 -10.21832 -10.21715 -10.20614
 Alpha  occ. eigenvalues --  -10.20609 -10.20537 -10.20427 -10.20409 -10.20353
 Alpha  occ. eigenvalues --  -10.20231 -10.20130 -10.19196 -10.19100 -10.18793
 Alpha  occ. eigenvalues --  -10.18408 -10.17602 -10.17548 -10.17270 -10.17021
 Alpha  occ. eigenvalues --  -10.16757 -10.16647 -10.16431 -10.16367 -10.16206
 Alpha  occ. eigenvalues --  -10.15712 -10.10395  -1.88986  -1.16737  -1.16210
 Alpha  occ. eigenvalues --   -1.15816  -1.12191  -1.10327  -1.06029  -1.05509
 Alpha  occ. eigenvalues --   -1.04709  -1.04209  -1.03223  -1.03124  -1.03010
 Alpha  occ. eigenvalues --   -1.02519  -1.02472  -1.02027  -1.01968  -1.01155
 Alpha  occ. eigenvalues --   -1.00334  -1.00069  -0.99161  -0.98780  -0.97869
 Alpha  occ. eigenvalues --   -0.97041  -0.95802  -0.93243  -0.93176  -0.92820
 Alpha  occ. eigenvalues --   -0.92250  -0.92079  -0.91674  -0.91462  -0.91102
 Alpha  occ. eigenvalues --   -0.90646  -0.90461  -0.90177  -0.89579  -0.89398
 Alpha  occ. eigenvalues --   -0.88529  -0.88080  -0.86983  -0.86776  -0.86368
 Alpha  occ. eigenvalues --   -0.81839  -0.81464  -0.80603  -0.80587  -0.79629
 Alpha  occ. eigenvalues --   -0.78719  -0.78665  -0.76799  -0.76423  -0.76198
 Alpha  occ. eigenvalues --   -0.75618  -0.75424  -0.74358  -0.74139  -0.73007
 Alpha  occ. eigenvalues --   -0.72854  -0.72638  -0.71262  -0.70979  -0.70278
 Alpha  occ. eigenvalues --   -0.69523  -0.69138  -0.68314  -0.67988  -0.67339
 Alpha  occ. eigenvalues --   -0.66985  -0.66729  -0.65974  -0.64344  -0.64154
 Alpha  occ. eigenvalues --   -0.63792  -0.63602  -0.62830  -0.62484  -0.62034
 Alpha  occ. eigenvalues --   -0.61752  -0.61183  -0.60477  -0.59929  -0.59767
 Alpha  occ. eigenvalues --   -0.59559  -0.59050  -0.58892  -0.58834  -0.58575
 Alpha  occ. eigenvalues --   -0.58004  -0.57370  -0.57218  -0.57113  -0.56413
 Alpha  occ. eigenvalues --   -0.56229  -0.56002  -0.55557  -0.55528  -0.55010
 Alpha  occ. eigenvalues --   -0.54860  -0.54365  -0.54281  -0.53807  -0.53523
 Alpha  occ. eigenvalues --   -0.53285  -0.53093  -0.52714  -0.51925  -0.51632
 Alpha  occ. eigenvalues --   -0.51245  -0.50910  -0.50585  -0.50425  -0.50109
 Alpha  occ. eigenvalues --   -0.49421  -0.49283  -0.49019  -0.48890  -0.48773
 Alpha  occ. eigenvalues --   -0.48531  -0.48477  -0.48313  -0.47802  -0.47675
 Alpha  occ. eigenvalues --   -0.47490  -0.46986  -0.46703  -0.46489  -0.46234
 Alpha  occ. eigenvalues --   -0.46161  -0.45983  -0.45914  -0.45648  -0.45412
 Alpha  occ. eigenvalues --   -0.45282  -0.45160  -0.45101  -0.44464  -0.44310
 Alpha  occ. eigenvalues --   -0.44201  -0.44122  -0.43825  -0.43483  -0.43364
 Alpha  occ. eigenvalues --   -0.43158  -0.43088  -0.42939  -0.42878  -0.42660
 Alpha  occ. eigenvalues --   -0.42577  -0.42528  -0.42240  -0.42193  -0.42012
 Alpha  occ. eigenvalues --   -0.41910  -0.41838  -0.41734  -0.41666  -0.41428
 Alpha  occ. eigenvalues --   -0.41278  -0.41147  -0.41009  -0.40868  -0.40807
 Alpha  occ. eigenvalues --   -0.40582  -0.40535  -0.40297  -0.40230  -0.40063
 Alpha  occ. eigenvalues --   -0.39993  -0.39982  -0.39514  -0.39447  -0.39260
 Alpha  occ. eigenvalues --   -0.39171  -0.39137  -0.39111  -0.38955  -0.38949
 Alpha  occ. eigenvalues --   -0.38797  -0.38505  -0.38062  -0.37979  -0.37851
 Alpha  occ. eigenvalues --   -0.37605  -0.37445  -0.37266  -0.36994  -0.36859
 Alpha  occ. eigenvalues --   -0.36742  -0.36655  -0.36588  -0.36507  -0.36392
 Alpha  occ. eigenvalues --   -0.36061  -0.36033  -0.35812  -0.35712  -0.35599
 Alpha  occ. eigenvalues --   -0.35541  -0.35507  -0.35137  -0.34988  -0.34896
 Alpha  occ. eigenvalues --   -0.34817  -0.34741  -0.34706  -0.34493  -0.34439
 Alpha  occ. eigenvalues --   -0.33974  -0.33267  -0.32776  -0.32744  -0.32596
 Alpha  occ. eigenvalues --   -0.32475  -0.32418  -0.31343  -0.31005  -0.30583
 Alpha  occ. eigenvalues --   -0.30549  -0.29811  -0.29661  -0.29231  -0.28336
 Alpha  occ. eigenvalues --   -0.28290  -0.28031  -0.27551  -0.27313  -0.27106
 Alpha  occ. eigenvalues --   -0.26881  -0.26612  -0.26393  -0.26215  -0.26202
 Alpha  occ. eigenvalues --   -0.26153  -0.25694  -0.25358  -0.25219  -0.25101
 Alpha  occ. eigenvalues --   -0.24712  -0.24692  -0.24601  -0.24464  -0.24335
 Alpha  occ. eigenvalues --   -0.24048  -0.23871  -0.23498  -0.23407  -0.23134
 Alpha  occ. eigenvalues --   -0.23004  -0.22863  -0.22328  -0.21955  -0.21808
 Alpha  occ. eigenvalues --   -0.21643  -0.20782  -0.20715  -0.20402  -0.19709
 Alpha  occ. eigenvalues --   -0.14367  -0.13963  -0.11693
 Alpha virt. eigenvalues --   -0.10844  -0.08681  -0.03389  -0.02810  -0.02438
 Alpha virt. eigenvalues --   -0.02035  -0.01874  -0.01580  -0.00550   0.00043
 Alpha virt. eigenvalues --    0.00328   0.00427   0.00935   0.01159   0.01192

 Mulliken charges:
               1
     1  C    0.056595
     2  C    0.005540
     3  O   -0.305671
     4  H    0.024525
     5  H    0.015189
     6  H    0.009388
     7  N   -0.134725
     8  C    0.135568
     9  C    0.061853
    10  O   -0.302758
    11  C    0.074372
    12  C    0.066604
    13  O   -0.393468
    14  O   -0.322209
    15  H    0.115721
    16  H   -0.030578
    17  H    0.017317
    18  H    0.001214
    19  N   -0.127437
    20  C    0.083953
    21  C    0.081991
    22  O   -0.224138
    23  C    0.049665
    24  C   -0.028193
    25  C   -0.042336
    26  C    0.049098
    27  N    0.067327
    28  H    0.111326
    29  H   -0.006731
    30  H    0.020156
    31  H    0.023697
    32  H    0.004395
    33  H   -0.018098
    34  H    0.046540
    35  H    0.068879
    36  H    0.059135
    37  H    0.082662
    38  H    0.186297
    39  H    0.192182
    40  H    0.197758
    41  N   -0.152867
    42  C    0.141108
    43  C    0.087735
    44  O   -0.242173
    45  C    0.050201
    46  C    0.160331
    47  O   -0.496967
    48  O   -0.367704
    49  H    0.116369
    50  H    0.000644
    51  H    0.004387
    52  H    0.006516
    53  N   -0.169765
    54  C    0.196014
    55  C    0.017965
    56  O   -0.274269
    57  H    0.124043
    58  H    0.053197
    59  H    0.021524
    60  N   -0.101380
    61  C    0.104315
    62  C    0.041724
    63  O   -0.292617
    64  C    0.157322
    65  C   -0.039377
    66  N   -0.044690
    67  O   -0.275743
    68  H    0.121287
    69  H    0.017779
    70  H   -0.002212
    71  H    0.067451
    72  H    0.119272
    73  H    0.120013
    74  N   -0.123457
    75  C    0.201687
    76  C    0.056318
    77  O   -0.261867
    78  H    0.128468
    79  H    0.035283
    80  H    0.012169
    81  N   -0.130159
    82  C    0.122559
    83  C    0.043239
    84  O   -0.311816
    85  C    0.136628
    86  C   -0.060637
    87  C    0.012699
    88  C   -0.023300
    89  C   -0.019871
    90  C   -0.048673
    91  C    0.182573
    92  O   -0.211963
    93  H    0.126007
    94  H    0.016224
    95  H   -0.003300
    96  H    0.039089
    97  H   -0.011900
    98  H   -0.028695
    99  H   -0.006002
   100  H   -0.037902
   101  H    0.183484
   102  N   -0.098925
   103  C    0.195049
   104  C    0.032795
   105  O   -0.283148
   106  C   -0.106216
   107  C   -0.002691
   108  C    0.083217
   109  C    0.038223
   110  H    0.123353
   111  H   -0.007049
   112  H    0.003104
   113  H    0.006745
   114  H   -0.010971
   115  H    0.008883
   116  H   -0.039525
   117  H    0.030366
   118  H   -0.001704
   119  H    0.006934
   120  H    0.014059
   121  N   -0.155078
   122  C    0.132620
   123  C    0.036589
   124  O   -0.276058
   125  C    0.205841
   126  O   -0.302988
   127  H    0.157035
   128  H    0.015391
   129  H    0.024481
   130  H   -0.000477
   131  H    0.170154
   132  N   -0.130198
   133  C    0.060321
   134  C    0.053978
   135  O   -0.291770
   136  C    0.088335
   137  H    0.126101
   138  H    0.032132
   139  H    0.020792
   140  H   -0.002748
   141  H    0.033575
   142  N   -0.127597
   143  C    0.065129
   144  C    0.071162
   145  O   -0.260587
   146  C    0.060733
   147  H    0.130197
   148  H    0.003341
   149  H    0.050981
   150  H    0.021883
   151  H   -0.014847
   152  N   -0.158477
   153  C    0.131161
   154  C    0.083374
   155  O   -0.284837
   156  C   -0.034744
   157  C    0.150299
   158  C    0.046178
   159  O   -0.447087
   160  O   -0.388117
   161  H    0.121681
   162  H    0.008365
   163  H    0.004156
   164  H    0.038597
   165  H   -0.000316
   166  H   -0.039651
   167  N   -0.146037
   168  C    0.132477
   169  H    0.031489
   170  H    0.014251
   171  H    0.025475
   172  H    0.117850
   173  Ca   1.271651
   174  O   -0.288094
   175  H    0.164891
   176  H    0.195621
 Sum of Mulliken charges =  -0.00000

 Dipole moment (field-independent basis, Debye):
    X=            -18.4649    Y=             28.5575    Z=             18.9498  Tot=             38.9304
 Quadrupole moment (field-independent basis, Debye-Ang):
   XX=           -549.3896   YY=           -626.7196   ZZ=           -418.7812
   XY=            325.3051   XZ=            -20.9802   YZ=             -0.3263

 ESP charges:
               1
     1  C   -0.389232
     2  C    0.726152
     3  O   -0.594490
     4  H    0.110613
     5  H    0.107671
     6  H    0.072622
     7  N   -0.786549
     8  C    0.526156
     9  C    0.535374
    10  O   -0.556632
    11  C   -0.392676
    12  C    0.719158
    13  O   -0.687066
    14  O   -0.617944
    15  H    0.351434
    16  H   -0.068805
    17  H    0.132317
    18  H    0.090237
    19  N   -0.596658
    20  C    0.409623
    21  C    0.451037
    22  O   -0.426653
    23  C   -0.700813
    24  C    0.566397
    25  C   -0.321275
    26  C    0.044693
    27  N   -0.247316
    28  H    0.273224
    29  H    0.003842
    30  H    0.159787
    31  H    0.164209
    32  H   -0.075880
    33  H   -0.131740
    34  H    0.106965
    35  H    0.140720
    36  H    0.073323
    37  H    0.087760
    38  H    0.274855
    39  H    0.296562
    40  H    0.316495
    41  N   -0.408092
    42  C   -0.368312
    43  C    0.799643
    44  O   -0.560938
    45  C   -0.043286
    46  C    0.876147
    47  O   -0.866289
    48  O   -0.722763
    49  H    0.275486
    50  H    0.154393
    51  H    0.043380
    52  H    0.016549
    53  N   -0.424817
    54  C   -0.192163
    55  C    0.531214
    56  O   -0.537130
    57  H    0.313795
    58  H    0.136343
    59  H    0.110382
    60  N   -0.275226
    61  C    0.301226
    62  C    0.378191
    63  O   -0.476403
    64  C   -0.454659
    65  C    0.730396
    66  N   -0.798050
    67  O   -0.574277
    68  H    0.127035
    69  H    0.000471
    70  H    0.122769
    71  H    0.186886
    72  H    0.358407
    73  H    0.361684
    74  N   -0.469714
    75  C    0.127018
    76  C    0.577962
    77  O   -0.490017
    78  H    0.298669
    79  H    0.053705
    80  H    0.033459
    81  N   -0.799154
    82  C    0.319311
    83  C    0.463869
    84  O   -0.564000
    85  C   -0.289418
    86  C    0.082342
    87  C   -0.126495
    88  C   -0.076217
    89  C   -0.281591
    90  C   -0.389098
    91  C    0.449728
    92  O   -0.588529
    93  H    0.357266
    94  H    0.047515
    95  H    0.132609
    96  H    0.110261
    97  H    0.129455
    98  H    0.116409
    99  H    0.171454
   100  H    0.153468
   101  H    0.430378
   102  N   -0.452760
   103  C   -0.434206
   104  C    0.729631
   105  O   -0.584573
   106  C    0.339019
   107  C    0.248323
   108  C   -0.468297
   109  C   -0.259760
   110  H    0.367794
   111  H    0.161474
   112  H    0.016087
   113  H   -0.048695
   114  H   -0.029222
   115  H    0.128978
   116  H    0.058467
   117  H    0.118021
   118  H    0.035342
   119  H    0.054167
   120  H    0.053520
   121  N   -0.371928
   122  C   -0.180281
   123  C    0.606828
   124  O   -0.563725
   125  C    0.084943
   126  O   -0.601165
   127  H    0.366422
   128  H    0.114172
   129  H    0.067035
   130  H    0.058998
   131  H    0.421086
   132  N   -0.349806
   133  C    0.319253
   134  C    0.568693
   135  O   -0.551819
   136  C   -0.356005
   137  H    0.190286
   138  H    0.012977
   139  H    0.072396
   140  H    0.078476
   141  H    0.117237
   142  N   -0.712337
   143  C    0.665266
   144  C    0.322269
   145  O   -0.439225
   146  C   -0.379976
   147  H    0.247984
   148  H   -0.067786
   149  H    0.123439
   150  H    0.111605
   151  H    0.032977
   152  N   -0.366253
   153  C   -0.227605
   154  C    0.544365
   155  O   -0.519204
   156  C    0.342776
   157  C   -0.215097
   158  C    0.733577
   159  O   -0.764995
   160  O   -0.658571
   161  H    0.240980
   162  H    0.122704
   163  H   -0.054902
   164  H   -0.030871
   165  H    0.023519
   166  H    0.029723
   167  N   -0.363083
   168  C   -0.147044
   169  H    0.101151
   170  H    0.090670
   171  H    0.082062
   172  H    0.274613
   173  Ca   1.446505
   174  O   -0.759966
   175  H    0.352141
   176  H    0.431079
 Sum of ESP charges =   0.00000

 Normal termination of Gaussian 16 at Tue Sep 17 10:22:36 2019.
