 Gaussian 16, Revision A.03,
 Gaussian 16:  ES64L-G16RevA.03 25-Dec-2016

 ----------------------------------------------------------------------
 #b3lyp/svp scf=(tight,noincore) Test #IOP(5/87=12) Density=Current Pop
 =(MK,readradii) iop(6/33=2) iop(6/42=6)
 ----------------------------------------------------------------------

 -----------------
 Ng-295_loop3_24.0
 -----------------
 Symbolic Z-matrix:
 Charge =  0 Multiplicity = 1

                         Standard orientation:
 ---------------------------------------------------------------------
 Center     Atomic      Atomic             Coordinates (Angstroms)
 Number     Number       Type             X           Y           Z
 ---------------------------------------------------------------------
      1          6           0        7.962857   -6.120758    3.579773
      2          6           0        6.816175   -5.552758    2.752129
      3          8           0        5.924093   -6.308971    2.372745
      4          1           0        7.568510   -6.546594    4.501881
      5          1           0        8.471822   -6.898323    3.010183
      6          1           0        8.667258   -5.324469    3.819511
      7          7           0        6.736096   -4.235241    2.556845
      8          6           0        5.907685   -3.487815    1.624273
      9          6           0        6.551873   -3.545420    0.242281
     10          8           0        7.743499   -3.278918    0.095304
     11          6           0        5.894191   -2.045032    2.103434
     12          6           0        4.973351   -1.146982    1.291978
     13          8           0        4.890047   -1.287331    0.046401
     14          8           0        4.297446   -0.276625    1.871831
     15          1           0        7.405141   -3.703245    3.095231
     16          1           0        4.859650   -3.781483    1.643800
     17          1           0        6.894791   -1.616763    1.971959
     18          1           0        5.690720   -1.941696    3.168760
     19          7           0        5.769698   -3.963462   -0.756991
     20          6           0        6.122451   -4.082287   -2.149846
     21          6           0        6.716221   -2.870827   -2.868943
     22          8           0        7.406342   -3.041997   -3.867409
     23          6           0        4.785961   -4.378165   -2.829883
     24          6           0        3.684296   -3.336722   -2.985869
     25          6           0        2.513705   -3.922483   -3.776566
     26          6           0        1.351799   -2.948744   -3.923222
     27          7           0        1.813512   -1.599452   -4.269675
     28          1           0        4.829050   -4.203316   -0.478868
     29          1           0        6.684336   -5.001125   -2.306440
     30          1           0        4.363398   -5.229207   -2.291303
     31          1           0        5.133775   -4.809289   -3.766290
     32          1           0        4.119712   -2.530973   -3.577208
     33          1           0        3.382739   -3.001391   -1.995760
     34          1           0        2.236262   -4.900087   -3.380189
     35          1           0        2.800903   -4.259641   -4.776187
     36          1           0        0.828028   -2.884005   -2.976716
     37          1           0        0.687948   -3.382198   -4.677622
     38          1           0        1.081339   -0.911522   -4.337320
     39          1           0        2.492158   -1.311158   -3.572806
     40          1           0        2.407842   -1.630929   -5.087282
     41          7           0        6.411874   -1.662528   -2.378753
     42          6           0        6.785511   -0.393567   -2.965808
     43          6           0        7.503224    0.502094   -1.971485
     44          8           0        8.097251    1.522518   -2.338865
     45          6           0        5.515911    0.293913   -3.452108
     46          6           0        4.474031    0.445274   -2.349848
     47          8           0        4.728944    1.331654   -1.517172
     48          8           0        3.425652   -0.242041   -2.348806
     49          1           0        5.941498   -1.672187   -1.488049
     50          1           0        7.427397   -0.507561   -3.839357
     51          1           0        5.002667   -0.197397   -4.275573
     52          1           0        5.849077    1.220582   -3.933340
     53          7           0        7.536529    0.172456   -0.675788
     54          6           0        8.314797    0.914031    0.298770
     55          6           0        7.618830    2.156966    0.826824
     56          8           0        8.286288    2.796395    1.630833
     57          1           0        7.051636   -0.642865   -0.323323
     58          1           0        9.321134    1.083659   -0.075546
     59          1           0        8.437455    0.256690    1.154549
     60          7           0        6.387633    2.495282    0.412704
     61          6           0        5.648344    3.583128    1.025439
     62          6           0        4.391331    2.925498    1.577562
     63          8           0        3.645886    2.329405    0.798854
     64          6           0        5.538094    4.750963    0.052861
     65          6           0        4.742874    5.878620    0.689819
     66          7           0        3.417983    5.798966    0.560520
     67          8           0        5.278016    6.801482    1.292188
     68          1           0        5.897707    1.897959   -0.236355
     69          1           0        6.160167    3.963639    1.903874
     70          1           0        5.047913    4.367396   -0.836632
     71          1           0        6.564753    5.050776   -0.145844
     72          1           0        3.109301    5.171373   -0.177614
     73          1           0        2.876114    6.615544    0.811676
     74          7           0        4.175543    3.193898    2.871585
     75          6           0        3.121687    2.619624    3.689752
     76          6           0        1.689544    2.868680    3.259709
     77          8           0        0.744140    2.428733    3.909370
     78          1           0        4.804108    3.792403    3.384712
     79          1           0        3.293780    2.958690    4.710545
     80          1           0        3.225482    1.536269    3.604491
     81          7           0        1.457434    3.474553    2.095432
     82          6           0        0.136266    3.584805    1.514002
     83          6           0       -0.489621    2.255375    1.126731
     84          8           0        0.112218    1.389820    0.500068
     85          6           0        0.081288    4.495536    0.286587
     86          6           0       -1.268912    4.823924   -0.303430
     87          6           0       -1.702438    4.132850   -1.440167
     88          6           0       -2.016723    5.895342    0.188650
     89          6           0       -2.915710    4.449612   -2.066452
     90          6           0       -3.253967    6.191697   -0.397524
     91          6           0       -3.723968    5.464919   -1.514391
     92          8           0       -4.902414    5.841980   -2.089185
     93          1           0        2.248792    3.593586    1.477140
     94          1           0       -0.553928    4.081938    2.187123
     95          1           0        0.699394    4.064541   -0.500679
     96          1           0        0.485106    5.482661    0.496625
     97          1           0       -1.059727    3.369554   -1.843283
     98          1           0       -1.617345    6.506021    0.982356
     99          1           0       -3.238363    3.920804   -2.949660
    100          1           0       -3.903608    6.922005    0.064446
    101          1           0       -5.111044    6.610901   -1.543445
    102          7           0       -1.748440    2.057416    1.530197
    103          6           0       -2.658524    0.954917    1.265539
    104          6           0       -2.866488    0.908729   -0.240986
    105          8           0       -2.017757    0.929514   -1.126776
    106          6           0       -2.162558   -0.383947    1.783284
    107          6           0       -3.110002   -1.558614    1.546839
    108          6           0       -2.011933   -0.123746    3.272179
    109          6           0       -2.370016   -2.870892    1.775193
    110          1           0       -2.034473    2.719128    2.234414
    111          1           0       -3.611741    1.139319    1.754490
    112          1           0       -1.226359   -0.679567    1.309850
    113          1           0       -3.434875   -1.627282    0.504994
    114          1           0       -3.995975   -1.622200    2.181669
    115          1           0       -2.813931    0.444973    3.742877
    116          1           0       -2.072540   -1.086944    3.790519
    117          1           0       -1.027461    0.297923    3.481728
    118          1           0       -1.439642   -2.889629    1.204796
    119          1           0       -2.093394   -3.075485    2.816213
    120          1           0       -2.965687   -3.718031    1.449414
    121          7           0       -4.132210    0.679955   -0.620209
    122          6           0       -4.579341    0.334795   -1.960559
    123          6           0       -5.994343    0.815311   -2.240160
    124          8           0       -6.395186    1.012514   -3.386605
    125          6           0       -4.531677   -1.174110   -2.173711
    126          8           0       -5.450047   -1.724291   -1.259821
    127          1           0       -4.827323    0.650116    0.098488
    128          1           0       -3.977943    0.741546   -2.767885
    129          1           0       -3.526930   -1.590849   -2.054498
    130          1           0       -4.769545   -1.379270   -3.215550
    131          1           0       -5.319679   -2.669812   -1.159351
    132          7           0       -6.831601    0.845073   -1.192156
    133          6           0       -8.077198    1.565470   -1.016610
    134          6           0       -9.141423    1.240181   -2.059974
    135          8           0       -9.425503    2.099407   -2.889571
    136          6           0       -7.819750    3.066647   -0.936675
    137          1           0       -6.491950    0.438144   -0.333584
    138          1           0       -8.400464    1.104500   -0.093081
    139          1           0       -7.579957    3.502246   -1.908041
    140          1           0       -8.670047    3.609704   -0.535322
    141          1           0       -6.978857    3.152118   -0.246028
    142          7           0       -9.754329    0.053853   -2.000197
    143          6           0       -9.424505   -1.144736   -1.258577
    144          6           0      -10.024086   -1.181047    0.137197
    145          8           0      -11.143910   -0.699177    0.326391
    146          6           0       -9.964202   -2.370157   -1.985192
    147          1           0      -10.319692   -0.203264   -2.800482
    148          1           0       -8.338601   -1.274567   -1.159297
    149          1           0       -9.268945   -2.412032   -2.837520
    150          1           0       -9.880742   -3.278151   -1.390059
    151          1           0      -11.003462   -2.258225   -2.277614
    152          7           0       -9.452452   -1.733881    1.209768
    153          6           0       -8.097983   -2.206829    1.432110
    154          6           0       -7.768979   -2.074696    2.907609
    155          8           0       -6.837595   -1.346182    3.254007
    156          6           0       -7.832006   -3.621282    0.923800
    157          6           0       -6.368793   -4.012456    1.155507
    158          6           0       -5.952064   -4.908116   -0.005971
    159          8           0       -5.443244   -4.369900   -1.003681
    160          8           0       -5.963445   -6.147661    0.196759
    161          1           0      -10.152433   -1.821772    1.925939
    162          1           0       -7.429824   -1.653480    0.769187
    163          1           0       -8.237051   -3.719072   -0.086040
    164          1           0       -8.368021   -4.330705    1.553884
    165          1           0       -6.343638   -4.588348    2.069244
    166          1           0       -5.763183   -3.106246    1.213122
    167          7           0       -8.511385   -2.690011    3.831200
    168          6           0       -8.605802   -2.227019    5.209505
    169          1           0       -7.840660   -2.718731    5.811035
    170          1           0       -8.453970   -1.147985    5.241908
    171          1           0       -9.591623   -2.468482    5.607652
    172          1           0       -9.230911   -3.274691    3.452740
    173         20           0        2.457132    0.008747   -0.070614
    174          8           0        1.583325   -0.354696    2.443321
    175          1           0        1.055717   -0.383258    3.245327
    176          1           0        2.459024   -0.607519    2.725868
 ---------------------------------------------------------------------

 SCF Done:  E(RB3LYP) =  -5333.49009850     A.U. after   22 cycles

 The electronic state is 1-A.
 Alpha  occ. eigenvalues -- -145.48423 -19.20634 -19.18438 -19.17220 -19.16395
 Alpha  occ. eigenvalues --  -19.15510 -19.14682 -19.14222 -19.13478 -19.13034
 Alpha  occ. eigenvalues --  -19.12940 -19.11775 -19.11618 -19.11148 -19.10209
 Alpha  occ. eigenvalues --  -19.09965 -19.09419 -19.09073 -19.08692 -19.08641
 Alpha  occ. eigenvalues --  -19.06950 -19.06776 -18.98800 -18.96458 -15.54155
 Alpha  occ. eigenvalues --  -14.55344 -14.41868 -14.39660 -14.39210 -14.39153
 Alpha  occ. eigenvalues --  -14.38502 -14.37839 -14.37050 -14.36619 -14.36237
 Alpha  occ. eigenvalues --  -14.35680 -14.35469 -14.34668 -14.33831 -14.33420
 Alpha  occ. eigenvalues --  -12.67792 -12.67746 -12.67683 -10.34525 -10.34259
 Alpha  occ. eigenvalues --  -10.33457 -10.33423 -10.33344 -10.32541 -10.31473
 Alpha  occ. eigenvalues --  -10.30795 -10.30772 -10.29962 -10.29829 -10.29284
 Alpha  occ. eigenvalues --  -10.28598 -10.28141 -10.28045 -10.27937 -10.27625
 Alpha  occ. eigenvalues --  -10.27616 -10.27508 -10.27413 -10.27024 -10.26573
 Alpha  occ. eigenvalues --  -10.26538 -10.26139 -10.26127 -10.26071 -10.26025
 Alpha  occ. eigenvalues --  -10.24488 -10.23751 -10.23582 -10.23518 -10.22906
 Alpha  occ. eigenvalues --  -10.22560 -10.22393 -10.22347 -10.22274 -10.22191
 Alpha  occ. eigenvalues --  -10.22162 -10.21926 -10.21864 -10.21735 -10.21641
 Alpha  occ. eigenvalues --  -10.21469 -10.21196 -10.20996 -10.20769 -10.19537
 Alpha  occ. eigenvalues --  -10.18346 -10.18049 -10.17743 -10.17486 -10.16864
 Alpha  occ. eigenvalues --  -10.15666 -10.12026  -1.90793  -1.18405  -1.18168
 Alpha  occ. eigenvalues --   -1.17766  -1.11539  -1.09816  -1.09496  -1.09079
 Alpha  occ. eigenvalues --   -1.08245  -1.07499  -1.06738  -1.06548  -1.06143
 Alpha  occ. eigenvalues --   -1.04794  -1.04635  -1.04484  -1.03440  -1.03369
 Alpha  occ. eigenvalues --   -1.02451  -1.01969  -1.01691  -1.00823  -0.99867
 Alpha  occ. eigenvalues --   -0.99693  -0.99151  -0.98483  -0.97911  -0.96653
 Alpha  occ. eigenvalues --   -0.96601  -0.95913  -0.94729  -0.94432  -0.93598
 Alpha  occ. eigenvalues --   -0.93220  -0.93206  -0.92415  -0.91888  -0.91642
 Alpha  occ. eigenvalues --   -0.91345  -0.90453  -0.89838  -0.89316  -0.87885
 Alpha  occ. eigenvalues --   -0.84624  -0.84381  -0.82733  -0.82503  -0.82304
 Alpha  occ. eigenvalues --   -0.81436  -0.81029  -0.78448  -0.78292  -0.78248
 Alpha  occ. eigenvalues --   -0.77060  -0.76862  -0.76633  -0.76008  -0.74902
 Alpha  occ. eigenvalues --   -0.74864  -0.74524  -0.74130  -0.72647  -0.72096
 Alpha  occ. eigenvalues --   -0.71444  -0.70582  -0.70532  -0.70086  -0.69546
 Alpha  occ. eigenvalues --   -0.68681  -0.68473  -0.67063  -0.66468  -0.65981
 Alpha  occ. eigenvalues --   -0.65389  -0.65128  -0.64905  -0.64512  -0.64215
 Alpha  occ. eigenvalues --   -0.63923  -0.63056  -0.62081  -0.61888  -0.61766
 Alpha  occ. eigenvalues --   -0.61090  -0.61011  -0.60810  -0.60712  -0.60632
 Alpha  occ. eigenvalues --   -0.60411  -0.60042  -0.59612  -0.59090  -0.58761
 Alpha  occ. eigenvalues --   -0.58646  -0.58302  -0.58131  -0.57851  -0.57218
 Alpha  occ. eigenvalues --   -0.56951  -0.56946  -0.56703  -0.56493  -0.55990
 Alpha  occ. eigenvalues --   -0.55869  -0.55223  -0.55031  -0.54613  -0.54339
 Alpha  occ. eigenvalues --   -0.54024  -0.53968  -0.53524  -0.53335  -0.53108
 Alpha  occ. eigenvalues --   -0.52637  -0.52386  -0.51938  -0.51555  -0.51393
 Alpha  occ. eigenvalues --   -0.51380  -0.50994  -0.50931  -0.50796  -0.50533
 Alpha  occ. eigenvalues --   -0.50043  -0.49849  -0.49652  -0.49543  -0.49389
 Alpha  occ. eigenvalues --   -0.49113  -0.48831  -0.48596  -0.48386  -0.48003
 Alpha  occ. eigenvalues --   -0.47942  -0.47774  -0.47673  -0.47541  -0.47341
 Alpha  occ. eigenvalues --   -0.47185  -0.47042  -0.46902  -0.46642  -0.46466
 Alpha  occ. eigenvalues --   -0.46303  -0.46219  -0.46016  -0.45863  -0.45817
 Alpha  occ. eigenvalues --   -0.45270  -0.45206  -0.45145  -0.45047  -0.44949
 Alpha  occ. eigenvalues --   -0.44683  -0.44581  -0.44152  -0.44113  -0.43960
 Alpha  occ. eigenvalues --   -0.43868  -0.43721  -0.43626  -0.43360  -0.43143
 Alpha  occ. eigenvalues --   -0.42990  -0.42718  -0.42510  -0.42320  -0.42116
 Alpha  occ. eigenvalues --   -0.42019  -0.41931  -0.41773  -0.41688  -0.41659
 Alpha  occ. eigenvalues --   -0.41600  -0.41349  -0.41313  -0.40977  -0.40858
 Alpha  occ. eigenvalues --   -0.40794  -0.40674  -0.40477  -0.40440  -0.40182
 Alpha  occ. eigenvalues --   -0.39949  -0.39882  -0.39772  -0.39692  -0.39195
 Alpha  occ. eigenvalues --   -0.39115  -0.39093  -0.39007  -0.38911  -0.38796
 Alpha  occ. eigenvalues --   -0.38563  -0.38516  -0.38486  -0.38248  -0.38173
 Alpha  occ. eigenvalues --   -0.37917  -0.37880  -0.37834  -0.37673  -0.37152
 Alpha  occ. eigenvalues --   -0.36952  -0.36670  -0.36231  -0.36032  -0.35728
 Alpha  occ. eigenvalues --   -0.35604  -0.35388  -0.35279  -0.34951  -0.34720
 Alpha  occ. eigenvalues --   -0.34383  -0.34237  -0.34007  -0.33842  -0.33497
 Alpha  occ. eigenvalues --   -0.33313  -0.33260  -0.32632  -0.32304  -0.32169
 Alpha  occ. eigenvalues --   -0.31996  -0.31587  -0.31359  -0.31068  -0.30909
 Alpha  occ. eigenvalues --   -0.30540  -0.29814  -0.29667  -0.29508  -0.29224
 Alpha  occ. eigenvalues --   -0.28989  -0.28855  -0.28594  -0.28302  -0.28143
 Alpha  occ. eigenvalues --   -0.27714  -0.27709  -0.27646  -0.27517  -0.27207
 Alpha  occ. eigenvalues --   -0.26291  -0.26207  -0.26078  -0.25784  -0.25599
 Alpha  occ. eigenvalues --   -0.25432  -0.25365  -0.24830  -0.24748  -0.24560
 Alpha  occ. eigenvalues --   -0.24417  -0.23772  -0.22512  -0.22427  -0.22311
 Alpha  occ. eigenvalues --   -0.15735  -0.15316  -0.12913
 Alpha virt. eigenvalues --   -0.10583  -0.07359  -0.04670  -0.04420  -0.03488
 Alpha virt. eigenvalues --   -0.03221  -0.02753  -0.02488  -0.02444  -0.02088
 Alpha virt. eigenvalues --   -0.01828  -0.01185  -0.01014  -0.00899  -0.00332

 Mulliken charges:
               1
     1  C    0.064374
     2  C   -0.000664
     3  O   -0.292510
     4  H    0.048568
     5  H    0.052590
     6  H   -0.006089
     7  N   -0.103977
     8  C    0.120312
     9  C    0.066729
    10  O   -0.266362
    11  C    0.068633
    12  C    0.079386
    13  O   -0.430064
    14  O   -0.397835
    15  H    0.123485
    16  H   -0.008368
    17  H    0.028578
    18  H    0.014366
    19  N   -0.100843
    20  C    0.184200
    21  C    0.063492
    22  O   -0.255638
    23  C   -0.072223
    24  C    0.026113
    25  C   -0.066531
    26  C    0.088588
    27  N    0.065808
    28  H    0.114605
    29  H    0.022809
    30  H    0.010090
    31  H    0.020811
    32  H    0.018728
    33  H   -0.010130
    34  H    0.047103
    35  H    0.027822
    36  H    0.059998
    37  H    0.080191
    38  H    0.196751
    39  H    0.135632
    40  H    0.183605
    41  N   -0.195619
    42  C    0.118574
    43  C    0.079735
    44  O   -0.277881
    45  C    0.131098
    46  C    0.156166
    47  O   -0.338174
    48  O   -0.515863
    49  H    0.187464
    50  H    0.039155
    51  H   -0.054179
    52  H    0.037351
    53  N   -0.181693
    54  C    0.211899
    55  C    0.039029
    56  O   -0.292521
    57  H    0.119089
    58  H    0.048521
    59  H    0.021855
    60  N   -0.149943
    61  C    0.098611
    62  C    0.129394
    63  O   -0.363855
    64  C    0.158880
    65  C   -0.051566
    66  N   -0.066180
    67  O   -0.238768
    68  H    0.170302
    69  H   -0.003010
    70  H    0.009644
    71  H    0.041709
    72  H    0.131100
    73  H    0.137381
    74  N   -0.149930
    75  C    0.224179
    76  C    0.018095
    77  O   -0.295033
    78  H    0.152976
    79  H    0.048573
    80  H    0.022524
    81  N   -0.103773
    82  C    0.153499
    83  C    0.145523
    84  O   -0.361740
    85  C    0.094223
    86  C   -0.073352
    87  C    0.031978
    88  C   -0.010620
    89  C   -0.025852
    90  C   -0.051505
    91  C    0.166782
    92  O   -0.162565
    93  H    0.126739
    94  H   -0.014859
    95  H   -0.007603
    96  H    0.002233
    97  H   -0.028308
    98  H   -0.030929
    99  H   -0.007997
   100  H   -0.030132
   101  H    0.171396
   102  N   -0.103927
   103  C    0.115757
   104  C    0.103283
   105  O   -0.303350
   106  C   -0.053456
   107  C   -0.033701
   108  C    0.067491
   109  C    0.004230
   110  H    0.133499
   111  H    0.005153
   112  H   -0.034805
   113  H    0.023204
   114  H    0.043704
   115  H    0.008670
   116  H    0.001752
   117  H    0.009204
   118  H   -0.043462
   119  H    0.001668
   120  H    0.053330
   121  N   -0.106377
   122  C    0.095618
   123  C    0.084002
   124  O   -0.253871
   125  C    0.282704
   126  O   -0.358189
   127  H    0.103758
   128  H    0.001142
   129  H   -0.028536
   130  H   -0.009635
   131  H    0.162446
   132  N   -0.171915
   133  C    0.026467
   134  C    0.092925
   135  O   -0.251789
   136  C    0.110001
   137  H    0.131963
   138  H   -0.009491
   139  H    0.052910
   140  H    0.011581
   141  H   -0.034749
   142  N   -0.057086
   143  C   -0.000112
   144  C    0.014256
   145  O   -0.292072
   146  C    0.040443
   147  H    0.119140
   148  H    0.027095
   149  H    0.045470
   150  H    0.035395
   151  H    0.025010
   152  N   -0.089234
   153  C    0.076193
   154  C    0.061773
   155  O   -0.286344
   156  C    0.027260
   157  C    0.045002
   158  C    0.072205
   159  O   -0.410298
   160  O   -0.387700
   161  H    0.100938
   162  H   -0.003985
   163  H    0.015933
   164  H   -0.027277
   165  H   -0.027766
   166  H   -0.006066
   167  N   -0.148757
   168  C    0.137260
   169  H    0.033055
   170  H    0.033063
   171  H    0.018126
   172  H    0.113203
   173  Ca   1.356335
   174  O   -0.306016
   175  H    0.195806
   176  H    0.176194
 Sum of Mulliken charges =  -0.00000

 Dipole moment (field-independent basis, Debye):
    X=             13.1440    Y=              6.2722    Z=              1.7599  Tot=             14.6698
 Quadrupole moment (field-independent basis, Debye-Ang):
   XX=           -822.1237   YY=           -639.6729   ZZ=           -499.2249
   XY=            -89.6477   XZ=            -45.4598   YZ=             26.0670

 ESP charges:
               1
     1  C   -0.482968
     2  C    0.709126
     3  O   -0.576292
     4  H    0.149379
     5  H    0.156780
     6  H    0.098595
     7  N   -0.508915
     8  C   -0.033652
     9  C    0.643166
    10  O   -0.520054
    11  C   -0.108488
    12  C    0.583019
    13  O   -0.588946
    14  O   -0.629598
    15  H    0.296070
    16  H    0.096315
    17  H    0.080288
    18  H    0.064308
    19  N   -0.453697
    20  C    0.174318
    21  C    0.444876
    22  O   -0.546238
    23  C   -0.166233
    24  C   -0.078561
    25  C   -0.090183
    26  C   -0.032262
    27  N   -0.316201
    28  H    0.254364
    29  H    0.083286
    30  H    0.074903
    31  H    0.058589
    32  H    0.083053
    33  H    0.098647
    34  H    0.081545
    35  H    0.070218
    36  H    0.081209
    37  H    0.104891
    38  H    0.323908
    39  H    0.338300
    40  H    0.306565
    41  N    0.113191
    42  C   -0.015929
    43  C    0.435784
    44  O   -0.523601
    45  C   -0.165057
    46  C    0.803365
    47  O   -0.682690
    48  O   -0.898197
    49  H   -0.532870
    50  H    0.126760
    51  H    0.009434
    52  H    0.091204
    53  N   -0.181050
    54  C   -0.262059
    55  C    0.600848
    56  O   -0.564593
    57  H    0.284110
    58  H    0.166964
    59  H    0.101201
    60  N   -0.453708
    61  C    0.438875
    62  C    0.193366
    63  O   -0.475425
    64  C   -0.531588
    65  C    0.764606
    66  N   -0.856160
    67  O   -0.551163
    68  H    0.351964
    69  H   -0.033128
    70  H    0.146549
    71  H    0.183755
    72  H    0.357907
    73  H    0.385092
    74  N   -0.250630
    75  C   -0.252586
    76  C    0.637555
    77  O   -0.575587
    78  H    0.320812
    79  H    0.155631
    80  H    0.124029
    81  N   -0.414429
    82  C    0.147736
    83  C    0.565803
    84  O   -0.658390
    85  C   -0.203655
    86  C    0.007541
    87  C   -0.152902
    88  C   -0.119067
    89  C   -0.209696
    90  C   -0.333980
    91  C    0.350121
    92  O   -0.487043
    93  H    0.174368
    94  H    0.043723
    95  H    0.085582
    96  H    0.102468
    97  H    0.137738
    98  H    0.133415
    99  H    0.168828
   100  H    0.154192
   101  H    0.384829
   102  N   -0.426917
   103  C   -0.259057
   104  C    0.730741
   105  O   -0.539853
   106  C   -0.017649
   107  C    0.115894
   108  C   -0.283281
   109  C   -0.150284
   110  H    0.315009
   111  H    0.191078
   112  H    0.105996
   113  H    0.024553
   114  H    0.043257
   115  H    0.112335
   116  H    0.070065
   117  H    0.071883
   118  H   -0.012292
   119  H    0.032533
   120  H    0.068602
   121  N   -0.489852
   122  C   -0.086115
   123  C    0.557363
   124  O   -0.531917
   125  C    0.189068
   126  O   -0.632049
   127  H    0.155860
   128  H    0.086889
   129  H    0.001590
   130  H    0.028987
   131  H    0.477252
   132  N   -0.262928
   133  C    0.081447
   134  C    0.737038
   135  O   -0.552297
   136  C   -0.353460
   137  H    0.311521
   138  H    0.031239
   139  H    0.135013
   140  H    0.102079
   141  H    0.049282
   142  N   -0.867838
   143  C    0.758992
   144  C    0.385454
   145  O   -0.562750
   146  C   -0.445834
   147  H    0.364137
   148  H   -0.120320
   149  H    0.095263
   150  H    0.131603
   151  H    0.112094
   152  N   -0.348300
   153  C   -0.317610
   154  C    0.718739
   155  O   -0.574479
   156  C   -0.181035
   157  C   -0.080742
   158  C    0.747187
   159  O   -0.760967
   160  O   -0.693389
   161  H    0.257656
   162  H    0.099236
   163  H    0.090660
   164  H    0.048667
   165  H    0.016287
   166  H   -0.027861
   167  N   -0.344124
   168  C   -0.205083
   169  H    0.103381
   170  H    0.107093
   171  H    0.102968
   172  H    0.291584
   173  Ca   1.725604
   174  O   -0.897333
   175  H    0.480955
   176  H    0.373881
 Sum of ESP charges =  -0.00000

 Normal termination of Gaussian 16 at Wed Sep 18 10:13:41 2019.
