 Gaussian 16, Revision A.03,
 Gaussian 16:  ES64L-G16RevA.03 25-Dec-2016

 ----------------------------------------------------------------------
 #b3lyp/svp scf=(tight,noincore) Test #IOP(5/87=12) Density=Current Pop
 =(MK,readradii) iop(6/33=2) iop(6/42=6)
 ----------------------------------------------------------------------

 -----------------
 Ng-293_loop3_31.0
 -----------------
 Symbolic Z-matrix:
 Charge =  0 Multiplicity = 1

                         Standard orientation:
 ---------------------------------------------------------------------
 Center     Atomic      Atomic             Coordinates (Angstroms)
 Number     Number       Type             X           Y           Z
 ---------------------------------------------------------------------
      1          6           0        8.834192    0.123124    5.736736
      2          6           0        9.267249    0.741586    4.414062
      3          8           0       10.424157    0.604232    4.022400
      4          1           0        8.079634    0.756312    6.203734
      5          1           0        8.415051   -0.866253    5.555864
      6          1           0        9.696635    0.038250    6.398158
      7          7           0        8.315306    1.451666    3.806287
      8          6           0        8.479254    2.202481    2.578810
      9          6           0        8.465559    1.269233    1.375332
     10          8           0        7.578510    0.429906    1.252146
     11          6           0        7.445826    3.315224    2.422503
     12          6           0        5.999462    2.952144    2.723174
     13          8           0        5.095789    3.667872    2.243999
     14          8           0        5.646362    1.953325    3.394130
     15          1           0        7.365445    1.320484    4.104035
     16          1           0        9.437756    2.700933    2.711920
     17          1           0        7.561586    3.776107    1.448241
     18          1           0        7.752902    4.066135    3.140512
     19          7           0        9.406482    1.501492    0.462195
     20          6           0        9.777573    0.728097   -0.701443
     21          6           0        8.803494    0.876175   -1.862539
     22          8           0        9.285486    1.095469   -2.969875
     23          6           0       10.163553   -0.683304   -0.277337
     24          6           0       11.003954   -0.972375    0.963455
     25          6           0       12.360594   -0.268839    0.971555
     26          6           0       13.313632   -1.192481    1.722823
     27          7           0       14.636969   -0.555841    1.748694
     28          1           0       10.034694    2.268743    0.678701
     29          1           0       10.705612    1.245893   -0.923998
     30          1           0       10.510188   -1.336460   -1.084822
     31          1           0        9.220181   -1.203381   -0.103358
     32          1           0       11.229496   -2.036675    0.851668
     33          1           0       10.437173   -0.699843    1.850069
     34          1           0       12.166427    0.632810    1.548379
     35          1           0       12.719796   -0.171947   -0.050104
     36          1           0       13.275378   -2.117498    1.140174
     37          1           0       12.900701   -1.247413    2.728591
     38          1           0       14.768347    0.157515    2.451874
     39          1           0       15.375213   -1.207493    1.962110
     40          1           0       14.983250   -0.210905    0.865626
     41          7           0        7.496614    0.677868   -1.642454
     42          6           0        6.448200    0.740958   -2.638169
     43          6           0        5.174978    1.236386   -1.977518
     44          8           0        4.836572    0.890127   -0.853958
     45          6           0        6.236274   -0.688360   -3.109377
     46          6           0        5.247698   -0.809666   -4.259422
     47          8           0        5.253866    0.089875   -5.127056
     48          8           0        4.426534   -1.748209   -4.244350
     49          1           0        7.253389    0.706965   -0.655087
     50          1           0        6.743982    1.421066   -3.434577
     51          1           0        5.792452   -1.221264   -2.266978
     52          1           0        7.186551   -1.121484   -3.426044
     53          7           0        4.476518    2.076138   -2.747563
     54          6           0        3.273545    2.740324   -2.287875
     55          6           0        1.907919    2.055490   -2.304310
     56          8           0        1.637618    1.166707   -3.095386
     57          1           0        4.727441    2.214064   -3.716384
     58          1           0        3.197085    3.716354   -2.774823
     59          1           0        3.516206    2.930319   -1.247338
     60          7           0        0.966580    2.489557   -1.455272
     61          6           0       -0.359609    1.974647   -1.168935
     62          6           0       -1.571978    2.862572   -1.420831
     63          8           0       -2.614131    2.320608   -1.801346
     64          6           0       -0.416011    1.157759    0.118277
     65          6           0        0.841090    0.352525    0.399518
     66          7           0        1.869242    0.944086    1.002393
     67          8           0        0.885872   -0.854019    0.139432
     68          1           0        1.301530    3.241165   -0.873727
     69          1           0       -0.572387    1.224440   -1.927035
     70          1           0       -1.283836    0.515168   -0.016100
     71          1           0       -0.538938    1.800576    0.985326
     72          1           0        1.816309    1.902230    1.313772
     73          1           0        2.628886    0.372037    1.347360
     74          7           0       -1.517836    4.187296   -1.290158
     75          6           0       -2.674214    5.035994   -1.438486
     76          6           0       -3.747549    4.688915   -0.412286
     77          8           0       -3.437249    4.467376    0.747686
     78          1           0       -0.672878    4.700205   -1.062187
     79          1           0       -3.041579    4.894273   -2.452221
     80          1           0       -2.477200    6.098835   -1.305615
     81          7           0       -4.989755    4.545684   -0.882189
     82          6           0       -6.120151    4.137475   -0.063612
     83          6           0       -5.874432    2.858037    0.723829
     84          8           0       -6.608429    2.555221    1.663484
     85          6           0       -6.546251    5.236647    0.906522
     86          6           0       -6.608409    6.658265    0.396192
     87          6           0       -5.557566    7.547853    0.683528
     88          6           0       -7.715321    7.055719   -0.362080
     89          6           0       -5.614089    8.855538    0.199415
     90          6           0       -7.863071    8.412247   -0.698234
     91          6           0       -6.832653    9.308672   -0.361541
     92          8           0       -6.966509   10.605615   -0.738397
     93          1           0       -5.203676    4.636875   -1.862659
     94          1           0       -7.040990    4.075913   -0.636731
     95          1           0       -5.878094    5.219281    1.766909
     96          1           0       -7.567444    5.044319    1.239951
     97          1           0       -4.691686    7.205335    1.225039
     98          1           0       -8.506904    6.331371   -0.498155
     99          1           0       -4.835579    9.580337    0.374591
    100          1           0       -8.788572    8.653078   -1.199681
    101          1           0       -7.843998   10.696533   -1.112090
    102          7           0       -4.999152    1.981321    0.200518
    103          6           0       -4.822629    0.588132    0.531371
    104          6           0       -5.918291   -0.401994    0.186735
    105          8           0       -5.695164   -1.512580   -0.278254
    106          6           0       -4.457169    0.288409    1.984335
    107          6           0       -3.605312    1.374956    2.640197
    108          6           0       -3.988861   -1.135287    2.280101
    109          6           0       -3.026754    1.091986    4.020993
    110          1           0       -4.430893    2.314319   -0.564723
    111          1           0       -3.961820    0.193665   -0.010020
    112          1           0       -5.401168    0.312661    2.540551
    113          1           0       -4.194683    2.273700    2.808725
    114          1           0       -2.720688    1.612547    2.063663
    115          1           0       -3.780020   -1.323310    3.336715
    116          1           0       -4.790705   -1.863176    2.207130
    117          1           0       -3.096296   -1.432693    1.730304
    118          1           0       -2.300092    0.278967    4.004787
    119          1           0       -2.387576    1.899605    4.376245
    120          1           0       -3.855043    0.988576    4.729897
    121          7           0       -7.174129    0.025261    0.375739
    122          6           0       -8.296297   -0.725361   -0.146759
    123          6           0       -8.427354   -2.167773    0.345250
    124          8           0       -8.981005   -3.038027   -0.338730
    125          6           0       -9.643163   -0.021315   -0.234343
    126          8           0       -9.535806    1.354477   -0.526352
    127          1           0       -7.390518    0.906442    0.822613
    128          1           0       -8.038810   -0.852534   -1.189605
    129          1           0      -10.133603   -0.020663    0.739756
    130          1           0      -10.279611   -0.548643   -0.947407
    131          1           0       -8.849543    1.346719   -1.199614
    132          7           0       -8.017229   -2.410510    1.589989
    133          6           0       -7.840747   -3.685962    2.257053
    134          6           0       -7.268629   -4.771652    1.363712
    135          8           0       -7.995561   -5.735196    1.101124
    136          6           0       -9.068707   -4.070241    3.078541
    137          1           0       -7.740454   -1.600632    2.113050
    138          1           0       -7.086381   -3.517238    3.034141
    139          1           0       -9.063937   -5.072855    3.511140
    140          1           0       -9.124931   -3.381733    3.916214
    141          1           0       -9.974939   -4.056470    2.478746
    142          7           0       -6.085592   -4.599921    0.749602
    143          6           0       -5.436617   -5.544349   -0.137578
    144          6           0       -3.923011   -5.542525    0.010385
    145          8           0       -3.336589   -4.606508    0.530654
    146          6           0       -5.689807   -5.281326   -1.613964
    147          1           0       -5.591322   -3.721144    0.712887
    148          1           0       -5.842867   -6.519720    0.139391
    149          1           0       -5.378851   -4.283220   -1.905152
    150          1           0       -5.196429   -5.994051   -2.269403
    151          1           0       -6.758788   -5.409713   -1.793397
    152          7           0       -3.256547   -6.593947   -0.475864
    153          6           0       -1.890856   -6.948960   -0.153289
    154          6           0       -1.610882   -7.303784    1.292192
    155          8           0       -0.717046   -6.762318    1.927465
    156          6           0       -0.854014   -5.960964   -0.697830
    157          6           0       -1.022051   -5.922198   -2.217323
    158          6           0        0.147941   -5.100403   -2.738447
    159          8           0       -0.011884   -3.868882   -2.898172
    160          8           0        1.304757   -5.557735   -2.804204
    161          1           0       -3.829746   -7.282824   -0.935745
    162          1           0       -1.800783   -7.879427   -0.718547
    163          1           0        0.149651   -6.254117   -0.410048
    164          1           0       -0.995449   -4.975815   -0.242443
    165          1           0       -1.994047   -5.549831   -2.541466
    166          1           0       -0.898316   -6.922350   -2.627305
    167          7           0       -2.423563   -8.220740    1.826458
    168          6           0       -2.621887   -8.375388    3.252940
    169          1           0       -3.075890   -7.470626    3.656162
    170          1           0       -3.278371   -9.224946    3.438916
    171          1           0       -1.660906   -8.545604    3.737812
    172          1           0       -3.062746   -8.722299    1.222153
    173         20           0        2.533972   -3.314385   -3.270798
    174          8           0        1.310243   -1.302188   -4.455049
    175          1           0        1.672726   -0.421161   -4.392631
    176          1           0        0.724481   -1.271412   -5.206205
 ---------------------------------------------------------------------

 SCF Done:  E(RB3LYP) =  -5333.38884178     A.U. after   25 cycles

 The electronic state is 1-A.
 Alpha  occ. eigenvalues -- -145.44211 -19.16284 -19.13647 -19.13330 -19.11581
 Alpha  occ. eigenvalues --  -19.11000 -19.09871 -19.09691 -19.09193 -19.08294
 Alpha  occ. eigenvalues --  -19.07984 -19.07813 -19.07722 -19.07554 -19.07262
 Alpha  occ. eigenvalues --  -19.07140 -19.06384 -19.06177 -19.06154 -19.04807
 Alpha  occ. eigenvalues --  -19.04729 -19.01622 -18.97084 -18.95884 -15.50122
 Alpha  occ. eigenvalues --  -14.58017 -14.38100 -14.37300 -14.36238 -14.35314
 Alpha  occ. eigenvalues --  -14.34788 -14.34436 -14.34262 -14.33888 -14.33865
 Alpha  occ. eigenvalues --  -14.33841 -14.32175 -14.32065 -14.31918 -14.30993
 Alpha  occ. eigenvalues --  -12.63768 -12.63700 -12.63604 -10.34003 -10.30457
 Alpha  occ. eigenvalues --  -10.29766 -10.28844 -10.28680 -10.27403 -10.26625
 Alpha  occ. eigenvalues --  -10.26528 -10.26206 -10.26168 -10.26028 -10.25939
 Alpha  occ. eigenvalues --  -10.25929 -10.25877 -10.25767 -10.25744 -10.25290
 Alpha  occ. eigenvalues --  -10.24949 -10.24357 -10.24283 -10.24096 -10.23685
 Alpha  occ. eigenvalues --  -10.23234 -10.22440 -10.22418 -10.22251 -10.22000
 Alpha  occ. eigenvalues --  -10.21930 -10.21857 -10.21568 -10.21131 -10.20899
 Alpha  occ. eigenvalues --  -10.20213 -10.20062 -10.19854 -10.19308 -10.19235
 Alpha  occ. eigenvalues --  -10.19081 -10.18947 -10.18891 -10.18713 -10.17998
 Alpha  occ. eigenvalues --  -10.17129 -10.17000 -10.16862 -10.16100 -10.15921
 Alpha  occ. eigenvalues --  -10.15342 -10.15183 -10.15067 -10.14888 -10.14870
 Alpha  occ. eigenvalues --  -10.14700 -10.13951  -1.86640  -1.14459  -1.13926
 Alpha  occ. eigenvalues --   -1.13453  -1.13274  -1.05540  -1.05253  -1.04026
 Alpha  occ. eigenvalues --   -1.03132  -1.03055  -1.02416  -1.01907  -1.01853
 Alpha  occ. eigenvalues --   -1.01589  -1.00855  -1.00790  -1.00417  -1.00127
 Alpha  occ. eigenvalues --   -1.00126  -0.99775  -0.99478  -0.98878  -0.98736
 Alpha  occ. eigenvalues --   -0.97552  -0.94184  -0.93922  -0.92651  -0.92558
 Alpha  occ. eigenvalues --   -0.91776  -0.91772  -0.91473  -0.91090  -0.90307
 Alpha  occ. eigenvalues --   -0.90107  -0.89847  -0.89564  -0.89245  -0.88870
 Alpha  occ. eigenvalues --   -0.88694  -0.88656  -0.87673  -0.86753  -0.84865
 Alpha  occ. eigenvalues --   -0.80886  -0.80665  -0.80163  -0.79436  -0.78695
 Alpha  occ. eigenvalues --   -0.77842  -0.76909  -0.76626  -0.75319  -0.75094
 Alpha  occ. eigenvalues --   -0.74748  -0.74611  -0.74031  -0.73633  -0.72889
 Alpha  occ. eigenvalues --   -0.72666  -0.71826  -0.71722  -0.71520  -0.71139
 Alpha  occ. eigenvalues --   -0.69666  -0.68375  -0.68217  -0.67540  -0.67446
 Alpha  occ. eigenvalues --   -0.65409  -0.65026  -0.64117  -0.63886  -0.62882
 Alpha  occ. eigenvalues --   -0.62700  -0.62276  -0.62098  -0.61940  -0.61495
 Alpha  occ. eigenvalues --   -0.61056  -0.60520  -0.60451  -0.60328  -0.59597
 Alpha  occ. eigenvalues --   -0.58425  -0.58310  -0.58116  -0.57498  -0.57473
 Alpha  occ. eigenvalues --   -0.57294  -0.56747  -0.56566  -0.56099  -0.55863
 Alpha  occ. eigenvalues --   -0.55692  -0.55358  -0.54937  -0.54648  -0.54411
 Alpha  occ. eigenvalues --   -0.53860  -0.53754  -0.53390  -0.53227  -0.53017
 Alpha  occ. eigenvalues --   -0.52790  -0.52433  -0.52369  -0.51901  -0.50693
 Alpha  occ. eigenvalues --   -0.50625  -0.50411  -0.49907  -0.49531  -0.49288
 Alpha  occ. eigenvalues --   -0.48914  -0.48131  -0.48116  -0.47679  -0.47141
 Alpha  occ. eigenvalues --   -0.47030  -0.47004  -0.46838  -0.46704  -0.46558
 Alpha  occ. eigenvalues --   -0.46454  -0.46137  -0.46068  -0.45823  -0.45582
 Alpha  occ. eigenvalues --   -0.45402  -0.45261  -0.45117  -0.45094  -0.44705
 Alpha  occ. eigenvalues --   -0.44499  -0.44262  -0.44183  -0.44029  -0.43839
 Alpha  occ. eigenvalues --   -0.43791  -0.43482  -0.43221  -0.43101  -0.43021
 Alpha  occ. eigenvalues --   -0.42857  -0.42765  -0.42567  -0.42397  -0.42168
 Alpha  occ. eigenvalues --   -0.41938  -0.41854  -0.41573  -0.41361  -0.41287
 Alpha  occ. eigenvalues --   -0.41260  -0.41052  -0.40944  -0.40876  -0.40511
 Alpha  occ. eigenvalues --   -0.40488  -0.40454  -0.40206  -0.40069  -0.39955
 Alpha  occ. eigenvalues --   -0.39761  -0.39647  -0.39484  -0.39301  -0.39260
 Alpha  occ. eigenvalues --   -0.39176  -0.38855  -0.38792  -0.38661  -0.38608
 Alpha  occ. eigenvalues --   -0.38484  -0.38419  -0.38014  -0.37894  -0.37718
 Alpha  occ. eigenvalues --   -0.37395  -0.37278  -0.37135  -0.37053  -0.36939
 Alpha  occ. eigenvalues --   -0.36862  -0.36768  -0.36456  -0.36369  -0.36343
 Alpha  occ. eigenvalues --   -0.36297  -0.36010  -0.35882  -0.35737  -0.35620
 Alpha  occ. eigenvalues --   -0.35517  -0.35465  -0.35020  -0.34717  -0.34499
 Alpha  occ. eigenvalues --   -0.34470  -0.34360  -0.34238  -0.34185  -0.34042
 Alpha  occ. eigenvalues --   -0.34000  -0.33905  -0.33822  -0.33160  -0.32987
 Alpha  occ. eigenvalues --   -0.32938  -0.32653  -0.32603  -0.32447  -0.32083
 Alpha  occ. eigenvalues --   -0.32040  -0.31917  -0.31447  -0.30870  -0.29679
 Alpha  occ. eigenvalues --   -0.29421  -0.29370  -0.28720  -0.28512  -0.28346
 Alpha  occ. eigenvalues --   -0.28309  -0.27550  -0.27382  -0.26691  -0.26552
 Alpha  occ. eigenvalues --   -0.26504  -0.26296  -0.26178  -0.26118  -0.26010
 Alpha  occ. eigenvalues --   -0.25055  -0.25049  -0.24798  -0.24674  -0.24410
 Alpha  occ. eigenvalues --   -0.23979  -0.23770  -0.23697  -0.23691  -0.23614
 Alpha  occ. eigenvalues --   -0.23480  -0.22983  -0.22948  -0.22740  -0.22728
 Alpha  occ. eigenvalues --   -0.22458  -0.22014  -0.22001  -0.21982  -0.21878
 Alpha  occ. eigenvalues --   -0.21853  -0.20898  -0.20665  -0.20469  -0.17895
 Alpha  occ. eigenvalues --   -0.15364  -0.13806  -0.11444
 Alpha virt. eigenvalues --   -0.10376  -0.04654  -0.04416  -0.04003  -0.02071
 Alpha virt. eigenvalues --   -0.01098  -0.00620  -0.00211   0.00351   0.00463
 Alpha virt. eigenvalues --    0.01817   0.01890   0.01957   0.02291   0.02306

 Mulliken charges:
               1
     1  C    0.050358
     2  C    0.023437
     3  O   -0.356090
     4  H    0.030955
     5  H    0.037256
     6  H    0.004760
     7  N   -0.102123
     8  C    0.105806
     9  C    0.078332
    10  O   -0.264857
    11  C    0.083004
    12  C    0.059836
    13  O   -0.386441
    14  O   -0.376803
    15  H    0.111101
    16  H   -0.052253
    17  H   -0.023603
    18  H   -0.005836
    19  N   -0.148022
    20  C    0.152090
    21  C    0.076981
    22  O   -0.286668
    23  C    0.026998
    24  C    0.006421
    25  C   -0.050846
    26  C    0.013023
    27  N    0.112033
    28  H    0.115005
    29  H   -0.040216
    30  H   -0.010472
    31  H    0.016129
    32  H   -0.006783
    33  H    0.070783
    34  H    0.041543
    35  H    0.017451
    36  H    0.075482
    37  H    0.101360
    38  H    0.180557
    39  H    0.156263
    40  H    0.165241
    41  N   -0.151640
    42  C    0.139130
    43  C    0.050494
    44  O   -0.250062
    45  C    0.081467
    46  C    0.117800
    47  O   -0.363777
    48  O   -0.484918
    49  H    0.153674
    50  H    0.000675
    51  H   -0.030438
    52  H    0.012398
    53  N   -0.120720
    54  C    0.153607
    55  C    0.090575
    56  O   -0.279774
    57  H    0.136548
    58  H    0.027088
    59  H    0.041416
    60  N   -0.151385
    61  C    0.104415
    62  C    0.109320
    63  O   -0.305773
    64  C    0.084374
    65  C   -0.002910
    66  N   -0.026286
    67  O   -0.270684
    68  H    0.106805
    69  H    0.038283
    70  H    0.041725
    71  H    0.018401
    72  H    0.118082
    73  H    0.157686
    74  N   -0.116455
    75  C    0.211208
    76  C    0.019677
    77  O   -0.258359
    78  H    0.119623
    79  H    0.002134
    80  H    0.040388
    81  N   -0.121796
    82  C    0.096732
    83  C    0.104851
    84  O   -0.305346
    85  C    0.135581
    86  C   -0.055137
    87  C    0.000515
    88  C   -0.023014
    89  C   -0.012927
    90  C   -0.052554
    91  C    0.162417
    92  O   -0.183657
    93  H    0.127776
    94  H    0.014075
    95  H    0.002673
    96  H    0.014741
    97  H   -0.013098
    98  H   -0.026255
    99  H   -0.021567
   100  H   -0.034502
   101  H    0.168298
   102  N   -0.091907
   103  C    0.207572
   104  C    0.042143
   105  O   -0.256201
   106  C   -0.150100
   107  C    0.060997
   108  C    0.087620
   109  C    0.003396
   110  H    0.135402
   111  H    0.007997
   112  H   -0.027917
   113  H    0.015724
   114  H   -0.025965
   115  H   -0.007020
   116  H   -0.023169
   117  H    0.037313
   118  H    0.012708
   119  H   -0.004255
   120  H    0.003886
   121  N   -0.146455
   122  C    0.034103
   123  C    0.061761
   124  O   -0.275993
   125  C    0.274698
   126  O   -0.296709
   127  H    0.128978
   128  H    0.001601
   129  H   -0.009785
   130  H    0.022984
   131  H    0.153813
   132  N   -0.125743
   133  C    0.091284
   134  C    0.076334
   135  O   -0.276303
   136  C    0.082780
   137  H    0.111827
   138  H    0.006129
   139  H    0.008136
   140  H   -0.014415
   141  H    0.027973
   142  N   -0.141596
   143  C    0.071633
   144  C    0.059205
   145  O   -0.248525
   146  C    0.065872
   147  H    0.154216
   148  H   -0.001909
   149  H    0.030755
   150  H   -0.015269
   151  H    0.038371
   152  N   -0.134015
   153  C    0.068461
   154  C    0.089396
   155  O   -0.244643
   156  C    0.040379
   157  C    0.142966
   158  C    0.075232
   159  O   -0.424417
   160  O   -0.460644
   161  H    0.106940
   162  H   -0.018733
   163  H    0.007958
   164  H    0.053777
   165  H   -0.001015
   166  H   -0.034385
   167  N   -0.156514
   168  C    0.135839
   169  H    0.032327
   170  H    0.008489
   171  H    0.034935
   172  H    0.100842
   173  Ca   1.413035
   174  O   -0.316721
   175  H    0.182793
   176  H    0.176925
 Sum of Mulliken charges =  -0.00000

 Dipole moment (field-independent basis, Debye):
    X=             33.7435    Y=             -0.5029    Z=             -1.0829  Tot=             33.7646
 Quadrupole moment (field-independent basis, Debye-Ang):
   XX=             36.1842   YY=           -510.2000   ZZ=           -594.5384
   XY=           -120.5270   XZ=             98.3647   YZ=            -38.3131

 ESP charges:
               1
     1  C   -0.412727
     2  C    0.643472
     3  O   -0.591886
     4  H    0.112136
     5  H    0.120212
     6  H    0.093774
     7  N   -0.411696
     8  C    0.075338
     9  C    0.633738
    10  O   -0.515656
    11  C   -0.315015
    12  C    0.746977
    13  O   -0.707969
    14  O   -0.673875
    15  H    0.252041
    16  H    0.011414
    17  H    0.056104
    18  H    0.091677
    19  N   -0.459522
    20  C   -0.353347
    21  C    0.755974
    22  O   -0.581863
    23  C    0.075961
    24  C   -0.027748
    25  C    0.036146
    26  C   -0.072971
    27  N   -0.215546
    28  H    0.304999
    29  H    0.119352
    30  H    0.025564
    31  H    0.050905
    32  H    0.005185
    33  H    0.031286
    34  H   -0.000080
    35  H    0.024582
    36  H    0.115568
    37  H    0.104554
    38  H    0.305164
    39  H    0.266322
    40  H    0.269106
    41  N   -0.532496
    42  C    0.142692
    43  C    0.592927
    44  O   -0.448544
    45  C   -0.356695
    46  C    0.906431
    47  O   -0.690997
    48  O   -0.893823
    49  H    0.299178
    50  H    0.031325
    51  H    0.037399
    52  H    0.113938
    53  N   -0.541007
    54  C   -0.100735
    55  C    0.708442
    56  O   -0.490716
    57  H    0.353165
    58  H    0.091001
    59  H    0.113913
    60  N   -0.856863
    61  C    0.442981
    62  C    0.507363
    63  O   -0.529489
    64  C   -0.398175
    65  C    0.818216
    66  N   -0.855867
    67  O   -0.598239
    68  H    0.318191
    69  H    0.031723
    70  H    0.121585
    71  H    0.070179
    72  H    0.397856
    73  H    0.400459
    74  N   -0.445160
    75  C   -0.112550
    76  C    0.762441
    77  O   -0.585970
    78  H    0.322165
    79  H    0.085900
    80  H    0.103787
    81  N   -0.851141
    82  C    0.489287
    83  C    0.274666
    84  O   -0.499691
    85  C   -0.363949
    86  C    0.169639
    87  C   -0.244351
    88  C   -0.116091
    89  C   -0.240136
    90  C   -0.389827
    91  C    0.406519
    92  O   -0.547259
    93  H    0.371153
    94  H    0.028946
    95  H    0.153755
    96  H    0.089235
    97  H    0.176623
    98  H    0.133723
    99  H    0.164034
   100  H    0.165067
   101  H    0.403928
   102  N   -0.628051
   103  C    0.059648
   104  C    0.485151
   105  O   -0.488964
   106  C    0.323238
   107  C    0.068297
   108  C   -0.306573
   109  C   -0.388181
   110  H    0.391942
   111  H    0.030393
   112  H   -0.067419
   113  H    0.095588
   114  H    0.011550
   115  H    0.070862
   116  H    0.070530
   117  H    0.066162
   118  H    0.096238
   119  H    0.091675
   120  H    0.073436
   121  N   -0.224917
   122  C   -0.207740
   123  C    0.391784
   124  O   -0.460181
   125  C    0.350632
   126  O   -0.570073
   127  H    0.254703
   128  H    0.105080
   129  H    0.017633
   130  H   -0.012159
   131  H    0.344728
   132  N   -0.337724
   133  C    0.271696
   134  C    0.439231
   135  O   -0.480315
   136  C   -0.445719
   137  H    0.230323
   138  H    0.036959
   139  H    0.115020
   140  H    0.099704
   141  H    0.134853
   142  N   -0.502467
   143  C    0.496763
   144  C    0.272346
   145  O   -0.387223
   146  C   -0.219499
   147  H    0.156557
   148  H   -0.081197
   149  H    0.092670
   150  H    0.005312
   151  H    0.076274
   152  N   -0.170834
   153  C   -0.489724
   154  C    0.681617
   155  O   -0.511452
   156  C    0.361909
   157  C   -0.064782
   158  C    0.629724
   159  O   -0.720091
   160  O   -0.786763
   161  H    0.225503
   162  H    0.113046
   163  H   -0.027728
   164  H   -0.012939
   165  H    0.011431
   166  H    0.008296
   167  N   -0.445044
   168  C   -0.113768
   169  H    0.092359
   170  H    0.082540
   171  H    0.080265
   172  H    0.285382
   173  Ca   1.673031
   174  O   -0.821045
   175  H    0.380045
   176  H    0.422738
 Sum of ESP charges =  -0.00000

 Normal termination of Gaussian 16 at Tue Sep 17 10:17:38 2019.
