 Gaussian 16, Revision A.03,
 Gaussian 16:  ES64L-G16RevA.03 25-Dec-2016

 ----------------------------------------------------------------------
 #b3lyp/svp scf=(tight,noincore) Test #IOP(5/87=12) Density=Current Pop
 =(MK,readradii) iop(6/33=2) iop(6/42=6)
 ----------------------------------------------------------------------

 -----------------
 Ng-293_loop3_81.0
 -----------------
 Symbolic Z-matrix:
 Charge =  0 Multiplicity = 1

                         Standard orientation:
 ---------------------------------------------------------------------
 Center     Atomic      Atomic             Coordinates (Angstroms)
 Number     Number       Type             X           Y           Z
 ---------------------------------------------------------------------
      1          6           0       -9.861878   -1.462136    5.584995
      2          6           0      -10.443807   -1.642114    4.199366
      3          8           0      -11.495990   -1.058538    3.929644
      4          1           0      -10.172157   -0.496859    5.986309
      5          1           0      -10.221687   -2.258402    6.237012
      6          1           0       -8.774180   -1.499602    5.530341
      7          7           0       -9.872699   -2.459982    3.303639
      8          6           0      -10.093842   -2.552910    1.870509
      9          6           0       -9.313891   -1.504536    1.096954
     10          8           0       -8.137316   -1.231247    1.317598
     11          6           0       -9.861627   -3.881563    1.165700
     12          6           0       -8.654744   -4.598433    1.764056
     13          8           0       -8.827407   -5.186242    2.849030
     14          8           0       -7.522945   -4.480805    1.258295
     15          1           0       -9.031517   -2.929521    3.615482
     16          1           0      -11.162086   -2.404877    1.733242
     17          1           0       -9.667410   -3.725370    0.106085
     18          1           0      -10.788607   -4.461385    1.213830
     19          7           0       -9.989147   -1.040920    0.034555
     20          6           0       -9.855015    0.067861   -0.885180
     21          6           0       -8.685879   -0.003914   -1.854442
     22          8           0       -8.949394    0.074310   -3.051538
     23          6           0       -9.927606    1.353276   -0.066132
     24          6           0       -9.818720    2.542564   -1.021662
     25          6           0       -9.892786    3.854570   -0.253513
     26          6           0       -9.962564    5.110249   -1.118095
     27          7           0      -10.047508    6.264868   -0.215742
     28          1           0      -10.915421   -1.436512    0.055141
     29          1           0      -10.684592    0.160719   -1.588657
     30          1           0       -9.125536    1.363505    0.676283
     31          1           0      -10.914282    1.385232    0.405512
     32          1           0      -10.555011    2.443703   -1.814254
     33          1           0       -8.795731    2.596658   -1.392427
     34          1           0       -9.047819    3.971892    0.425726
     35          1           0      -10.759431    3.905726    0.411325
     36          1           0      -10.845733    5.157401   -1.769239
     37          1           0       -9.042307    5.110031   -1.695006
     38          1           0      -10.882272    6.169062    0.341923
     39          1           0       -9.252247    6.286019    0.410766
     40          1           0      -10.047258    7.184960   -0.632912
     41          7           0       -7.482600   -0.365343   -1.398384
     42          6           0       -6.270461   -0.453424   -2.188802
     43          6           0       -5.290207   -1.449307   -1.599973
     44          8           0       -5.176407   -1.549688   -0.380640
     45          6           0       -5.622221    0.923049   -2.321496
     46          6           0       -4.385960    1.003766   -3.213036
     47          8           0       -4.344114    0.353230   -4.281049
     48          8           0       -3.332389    1.506949   -2.768520
     49          1           0       -7.310367   -0.462529   -0.403050
     50          1           0       -6.518201   -0.818616   -3.181858
     51          1           0       -5.344692    1.167802   -1.301852
     52          1           0       -6.388904    1.621723   -2.645459
     53          7           0       -4.472839   -2.128121   -2.412513
     54          6           0       -3.387697   -2.968875   -1.934288
     55          6           0       -2.166118   -2.199044   -1.455534
     56          8           0       -1.904306   -1.113878   -1.970869
     57          1           0       -4.589383   -1.960157   -3.394096
     58          1           0       -3.095212   -3.733833   -2.643014
     59          1           0       -3.768603   -3.556593   -1.104530
     60          7           0       -1.445723   -2.844573   -0.526814
     61          6           0       -0.342709   -2.283773    0.213567
     62          6           0        1.003825   -2.642142   -0.413505
     63          8           0        1.816576   -1.751702   -0.637896
     64          6           0       -0.454310   -2.774674    1.657818
     65          6           0       -1.860240   -2.530635    2.175799
     66          7           0       -2.584850   -3.619295    2.445357
     67          8           0       -2.347477   -1.408066    2.334355
     68          1           0       -1.606860   -3.829982   -0.394511
     69          1           0       -0.447323   -1.200793    0.102618
     70          1           0        0.166515   -2.155733    2.299136
     71          1           0       -0.195304   -3.830358    1.715681
     72          1           0       -2.182798   -4.545236    2.543279
     73          1           0       -3.568883   -3.479932    2.637078
     74          7           0        1.271419   -3.887465   -0.810573
     75          6           0        2.546474   -4.349224   -1.306872
     76          6           0        3.758871   -4.108122   -0.418410
     77          8           0        3.605677   -4.214257    0.791907
     78          1           0        0.599904   -4.577859   -0.515235
     79          1           0        2.694329   -3.848017   -2.267409
     80          1           0        2.459325   -5.430104   -1.419132
     81          7           0        4.939973   -3.768347   -0.950999
     82          6           0        6.217541   -3.452707   -0.331974
     83          6           0        6.267612   -2.255519    0.604420
     84          8           0        7.388452   -1.913921    0.990072
     85          6           0        6.744058   -4.648827    0.456173
     86          6           0        7.304537   -5.800362   -0.344408
     87          6           0        6.492203   -6.803086   -0.903656
     88          6           0        8.685733   -5.900482   -0.521251
     89          6           0        6.996326   -7.937975   -1.554414
     90          6           0        9.200784   -6.965478   -1.285126
     91          6           0        8.382651   -7.985233   -1.805952
     92          8           0        9.013305   -8.951255   -2.529330
     93          1           0        4.996811   -4.031134   -1.922962
     94          1           0        6.919666   -3.382209   -1.160317
     95          1           0        5.971654   -5.042635    1.109784
     96          1           0        7.550604   -4.283478    1.083393
     97          1           0        5.429263   -6.807853   -0.712253
     98          1           0        9.294600   -5.067517   -0.205894
     99          1           0        6.378424   -8.778570   -1.830272
    100          1           0       10.232391   -6.992610   -1.570873
    101          1           0        9.957630   -8.806829   -2.624682
    102          7           0        5.150550   -1.599515    0.900953
    103          6           0        5.051690   -0.420473    1.733952
    104          6           0        5.786368    0.764742    1.115718
    105          8           0        5.359567    1.880964    1.418521
    106          6           0        5.378207   -0.739808    3.182439
    107          6           0        4.519596   -1.847397    3.772129
    108          6           0        5.313598    0.459081    4.130906
    109          6           0        4.866091   -2.396766    5.152902
    110          1           0        4.285839   -1.877914    0.454445
    111          1           0        3.990508   -0.146855    1.728891
    112          1           0        6.419540   -1.051107    3.178213
    113          1           0        4.479593   -2.746890    3.146181
    114          1           0        3.477776   -1.542688    3.739526
    115          1           0        4.390685    1.032293    4.154581
    116          1           0        5.388486    0.287350    5.206035
    117          1           0        5.973260    1.240101    3.751625
    118          1           0        4.244243   -3.262644    5.364944
    119          1           0        5.895020   -2.751367    5.210895
    120          1           0        4.780219   -1.655610    5.947329
    121          7           0        6.872059    0.640362    0.355190
    122          6           0        7.341274    1.556190   -0.659352
    123          6           0        8.069993    2.763563   -0.094889
    124          8           0        8.380980    3.615063   -0.930195
    125          6           0        8.311121    0.837179   -1.591619
    126          8           0        7.704864   -0.369637   -1.978592
    127          1           0        7.188459   -0.291450    0.153898
    128          1           0        6.540436    2.008435   -1.256455
    129          1           0        9.124452    0.612395   -0.899619
    130          1           0        8.405954    1.431836   -2.505725
    131          1           0        8.387450   -1.019799   -2.145522
    132          7           0        8.197275    2.857461    1.233412
    133          6           0        8.043799    4.065110    2.024000
    134          6           0        7.181743    5.093673    1.319148
    135          8           0        7.594751    6.225996    1.032322
    136          6           0        9.464304    4.582298    2.241219
    137          1           0        8.160349    1.987755    1.750662
    138          1           0        7.585973    3.892472    2.992293
    139          1           0        9.528817    5.309779    3.049680
    140          1           0       10.087792    3.755171    2.606352
    141          1           0        9.953046    4.959175    1.347298
    142          7           0        5.965988    4.658889    0.997586
    143          6           0        5.072426    5.338827    0.084005
    144          6           0        3.607716    5.207412    0.452725
    145          8           0        3.315196    4.193603    1.088746
    146          6           0        5.280158    4.873047   -1.355959
    147          1           0        5.637990    3.736740    1.283693
    148          1           0        5.298158    6.409164    0.147444
    149          1           0        4.499367    5.274187   -2.003919
    150          1           0        6.264895    5.179108   -1.719715
    151          1           0        5.179615    3.782047   -1.420071
    152          7           0        2.820999    6.172024   -0.024456
    153          6           0        1.393904    6.305730    0.092678
    154          6           0        0.942845    6.312849    1.555482
    155          8           0       -0.062580    5.739805    1.959141
    156          6           0        0.684760    5.255495   -0.763547
    157          6           0        1.170352    5.312006   -2.213756
    158          6           0        0.313957    4.441035   -3.127264
    159          8           0       -0.758213    4.890266   -3.584475
    160          8           0        0.631575    3.294532   -3.493802
    161          1           0        3.250493    6.895614   -0.594064
    162          1           0        1.288633    7.378180   -0.114129
    163          1           0       -0.345611    5.595554   -0.791765
    164          1           0        0.744473    4.276103   -0.298545
    165          1           0        2.222614    5.070600   -2.331099
    166          1           0        1.179926    6.335102   -2.573452
    167          7           0        1.747437    6.801384    2.494665
    168          6           0        1.526676    6.859414    3.926306
    169          1           0        0.788181    7.629774    4.148223
    170          1           0        1.160899    5.894528    4.277038
    171          1           0        2.463439    7.098728    4.429088
    172          1           0        2.524980    7.351240    2.166051
    173         20           0       -0.961773    1.307289   -3.654758
    174          8           0       -2.089408   -0.307204   -5.300525
    175          1           0       -2.966386   -0.069906   -4.991979
    176          1           0       -2.203188   -0.462788   -6.235110
 ---------------------------------------------------------------------

 SCF Done:  E(RB3LYP) =  -5333.35523579     A.U. after   35 cycles

 The electronic state is 1-A.
 Alpha  occ. eigenvalues -- -145.45919 -19.17435 -19.15589 -19.14787 -19.13222
 Alpha  occ. eigenvalues --  -19.12739 -19.12453 -19.11617 -19.09870 -19.08966
 Alpha  occ. eigenvalues --  -19.08323 -19.08163 -19.08087 -19.07453 -19.07442
 Alpha  occ. eigenvalues --  -19.07046 -19.06927 -19.06867 -19.06602 -19.05493
 Alpha  occ. eigenvalues --  -19.03931 -19.02302 -18.95812 -18.95779 -15.51803
 Alpha  occ. eigenvalues --  -14.56767 -14.39573 -14.38806 -14.38600 -14.37161
 Alpha  occ. eigenvalues --  -14.35299 -14.34651 -14.34603 -14.34540 -14.34175
 Alpha  occ. eigenvalues --  -14.33491 -14.33375 -14.32938 -14.31463 -14.29833
 Alpha  occ. eigenvalues --  -12.65429 -12.65394 -12.65302 -10.34007 -10.31600
 Alpha  occ. eigenvalues --  -10.31347 -10.31226 -10.30601 -10.28800 -10.28040
 Alpha  occ. eigenvalues --  -10.27399 -10.27397 -10.26839 -10.26798 -10.26703
 Alpha  occ. eigenvalues --  -10.26678 -10.26624 -10.26275 -10.26207 -10.26132
 Alpha  occ. eigenvalues --  -10.26078 -10.25491 -10.25216 -10.24611 -10.23981
 Alpha  occ. eigenvalues --  -10.23736 -10.23558 -10.23399 -10.23282 -10.23087
 Alpha  occ. eigenvalues --  -10.22919 -10.22764 -10.22055 -10.21749 -10.21471
 Alpha  occ. eigenvalues --  -10.21072 -10.20791 -10.20692 -10.20659 -10.20634
 Alpha  occ. eigenvalues --  -10.20614 -10.20417 -10.20225 -10.19719 -10.19053
 Alpha  occ. eigenvalues --  -10.19024 -10.17397 -10.17372 -10.17157 -10.16906
 Alpha  occ. eigenvalues --  -10.16547 -10.16539 -10.15865 -10.15754 -10.15651
 Alpha  occ. eigenvalues --  -10.15376 -10.11999  -1.88320  -1.15965  -1.15678
 Alpha  occ. eigenvalues --   -1.15072  -1.12459  -1.06752  -1.06178  -1.05776
 Alpha  occ. eigenvalues --   -1.05207  -1.04967  -1.03754  -1.02915  -1.02836
 Alpha  occ. eigenvalues --   -1.01640  -1.01497  -1.01395  -1.01355  -1.01013
 Alpha  occ. eigenvalues --   -1.00590  -1.00348  -0.99662  -0.99383  -0.98793
 Alpha  occ. eigenvalues --   -0.96873  -0.96388  -0.95660  -0.95160  -0.94099
 Alpha  occ. eigenvalues --   -0.92733  -0.92533  -0.91575  -0.91206  -0.91019
 Alpha  occ. eigenvalues --   -0.90842  -0.90564  -0.89808  -0.89297  -0.89086
 Alpha  occ. eigenvalues --   -0.88539  -0.88139  -0.87673  -0.86315  -0.86285
 Alpha  occ. eigenvalues --   -0.82041  -0.81636  -0.81403  -0.80529  -0.80484
 Alpha  occ. eigenvalues --   -0.78390  -0.77707  -0.77343  -0.77133  -0.75712
 Alpha  occ. eigenvalues --   -0.75650  -0.75448  -0.74871  -0.73746  -0.73612
 Alpha  occ. eigenvalues --   -0.73446  -0.73106  -0.71876  -0.71853  -0.71023
 Alpha  occ. eigenvalues --   -0.70193  -0.69417  -0.68548  -0.68280  -0.67424
 Alpha  occ. eigenvalues --   -0.67299  -0.65461  -0.65265  -0.64693  -0.63889
 Alpha  occ. eigenvalues --   -0.63550  -0.63384  -0.63159  -0.62863  -0.62630
 Alpha  occ. eigenvalues --   -0.62058  -0.61666  -0.60475  -0.60387  -0.60358
 Alpha  occ. eigenvalues --   -0.59863  -0.59688  -0.59623  -0.58536  -0.58506
 Alpha  occ. eigenvalues --   -0.58081  -0.57997  -0.56981  -0.56390  -0.56328
 Alpha  occ. eigenvalues --   -0.56323  -0.56042  -0.55912  -0.55808  -0.55794
 Alpha  occ. eigenvalues --   -0.55557  -0.55200  -0.54470  -0.54258  -0.53995
 Alpha  occ. eigenvalues --   -0.53552  -0.53226  -0.52997  -0.51987  -0.51769
 Alpha  occ. eigenvalues --   -0.51671  -0.51576  -0.51553  -0.50827  -0.50634
 Alpha  occ. eigenvalues --   -0.49924  -0.49905  -0.49533  -0.49039  -0.48783
 Alpha  occ. eigenvalues --   -0.48708  -0.48268  -0.48106  -0.47947  -0.47745
 Alpha  occ. eigenvalues --   -0.47677  -0.47581  -0.47204  -0.46971  -0.46295
 Alpha  occ. eigenvalues --   -0.46113  -0.45778  -0.45726  -0.45673  -0.45489
 Alpha  occ. eigenvalues --   -0.45239  -0.45062  -0.44987  -0.44890  -0.44799
 Alpha  occ. eigenvalues --   -0.44562  -0.44513  -0.44329  -0.44169  -0.44138
 Alpha  occ. eigenvalues --   -0.43952  -0.43684  -0.43585  -0.43391  -0.43217
 Alpha  occ. eigenvalues --   -0.42866  -0.42824  -0.42767  -0.42705  -0.42429
 Alpha  occ. eigenvalues --   -0.42365  -0.42249  -0.42192  -0.42059  -0.42041
 Alpha  occ. eigenvalues --   -0.41625  -0.41172  -0.40983  -0.40825  -0.40740
 Alpha  occ. eigenvalues --   -0.40574  -0.40437  -0.40331  -0.39955  -0.39554
 Alpha  occ. eigenvalues --   -0.39391  -0.39312  -0.39260  -0.39109  -0.39055
 Alpha  occ. eigenvalues --   -0.38985  -0.38833  -0.38662  -0.38553  -0.38455
 Alpha  occ. eigenvalues --   -0.38330  -0.38175  -0.38112  -0.38084  -0.37963
 Alpha  occ. eigenvalues --   -0.37881  -0.37464  -0.37382  -0.37214  -0.37084
 Alpha  occ. eigenvalues --   -0.36918  -0.36772  -0.36703  -0.36628  -0.36388
 Alpha  occ. eigenvalues --   -0.36275  -0.36108  -0.35704  -0.35356  -0.35320
 Alpha  occ. eigenvalues --   -0.35205  -0.35115  -0.34962  -0.34824  -0.34615
 Alpha  occ. eigenvalues --   -0.34598  -0.34546  -0.34492  -0.33953  -0.33783
 Alpha  occ. eigenvalues --   -0.33335  -0.33219  -0.33127  -0.33069  -0.32746
 Alpha  occ. eigenvalues --   -0.32715  -0.32192  -0.31892  -0.31734  -0.31305
 Alpha  occ. eigenvalues --   -0.31186  -0.30889  -0.30711  -0.30076  -0.29831
 Alpha  occ. eigenvalues --   -0.28782  -0.28669  -0.27987  -0.27469  -0.27346
 Alpha  occ. eigenvalues --   -0.27229  -0.27170  -0.26890  -0.26802  -0.26798
 Alpha  occ. eigenvalues --   -0.26309  -0.26105  -0.25713  -0.25655  -0.25312
 Alpha  occ. eigenvalues --   -0.24434  -0.24258  -0.24197  -0.23971  -0.23959
 Alpha  occ. eigenvalues --   -0.23771  -0.23644  -0.23410  -0.23397  -0.23177
 Alpha  occ. eigenvalues --   -0.22905  -0.22647  -0.22622  -0.22545  -0.22385
 Alpha  occ. eigenvalues --   -0.22154  -0.21430  -0.20296  -0.19975  -0.17990
 Alpha  occ. eigenvalues --   -0.13549  -0.13312  -0.10541
 Alpha virt. eigenvalues --   -0.09627  -0.05963  -0.03595  -0.03482  -0.03376
 Alpha virt. eigenvalues --   -0.03001  -0.01748  -0.01103  -0.01016  -0.00900
 Alpha virt. eigenvalues --   -0.00660   0.00234   0.00324   0.01056   0.01644

 Mulliken charges:
               1
     1  C    0.067970
     2  C   -0.001309
     3  O   -0.326974
     4  H    0.012554
     5  H    0.040461
     6  H    0.014555
     7  N   -0.092195
     8  C    0.090897
     9  C    0.061561
    10  O   -0.258622
    11  C    0.133037
    12  C    0.003947
    13  O   -0.384320
    14  O   -0.345619
    15  H    0.130733
    16  H   -0.027405
    17  H   -0.027254
    18  H   -0.022603
    19  N   -0.094446
    20  C    0.125257
    21  C    0.042713
    22  O   -0.289094
    23  C    0.011413
    24  C    0.035734
    25  C   -0.072511
    26  C    0.073241
    27  N    0.121704
    28  H    0.115979
    29  H   -0.001900
    30  H    0.032295
    31  H    0.011285
    32  H    0.020090
    33  H    0.030549
    34  H    0.021575
    35  H   -0.002102
    36  H    0.067537
    37  H    0.075186
    38  H    0.143953
    39  H    0.148188
    40  H    0.138430
    41  N   -0.125569
    42  C    0.110987
    43  C    0.072158
    44  O   -0.254788
    45  C    0.105497
    46  C    0.149481
    47  O   -0.408438
    48  O   -0.460293
    49  H    0.147684
    50  H   -0.002283
    51  H    0.008201
    52  H    0.008291
    53  N   -0.112858
    54  C    0.172431
    55  C    0.119750
    56  O   -0.315975
    57  H    0.118531
    58  H    0.023512
    59  H    0.040265
    60  N   -0.140108
    61  C    0.076461
    62  C    0.080558
    63  O   -0.276616
    64  C    0.111541
    65  C    0.011539
    66  N   -0.066483
    67  O   -0.239193
    68  H    0.110734
    69  H    0.031427
    70  H    0.047922
    71  H   -0.024979
    72  H    0.114537
    73  H    0.168360
    74  N   -0.113973
    75  C    0.234369
    76  C    0.008273
    77  O   -0.277249
    78  H    0.104064
    79  H    0.012087
    80  H    0.031041
    81  N   -0.124523
    82  C    0.148984
    83  C    0.126447
    84  O   -0.339574
    85  C    0.114835
    86  C   -0.057332
    87  C   -0.017729
    88  C    0.008209
    89  C   -0.036815
    90  C   -0.030480
    91  C    0.171636
    92  O   -0.193902
    93  H    0.123414
    94  H   -0.005999
    95  H    0.024883
    96  H    0.010329
    97  H   -0.033768
    98  H   -0.022343
    99  H   -0.022324
   100  H   -0.049904
   101  H    0.176880
   102  N   -0.099409
   103  C    0.156475
   104  C    0.070143
   105  O   -0.284301
   106  C   -0.061701
   107  C    0.007361
   108  C    0.066848
   109  C    0.039925
   110  H    0.144829
   111  H    0.025531
   112  H   -0.004045
   113  H   -0.002668
   114  H   -0.022009
   115  H   -0.001305
   116  H    0.003107
   117  H   -0.004023
   118  H    0.006118
   119  H   -0.000570
   120  H    0.008773
   121  N   -0.104085
   122  C    0.044671
   123  C    0.047591
   124  O   -0.272196
   125  C    0.242550
   126  O   -0.321403
   127  H    0.124301
   128  H    0.031279
   129  H   -0.002491
   130  H    0.033569
   131  H    0.171179
   132  N   -0.113218
   133  C    0.074089
   134  C    0.051822
   135  O   -0.279108
   136  C    0.104516
   137  H    0.127362
   138  H    0.024002
   139  H   -0.006361
   140  H   -0.029036
   141  H    0.032586
   142  N   -0.139030
   143  C    0.073952
   144  C    0.067158
   145  O   -0.260518
   146  C    0.064821
   147  H    0.147886
   148  H   -0.012189
   149  H   -0.014158
   150  H    0.048965
   151  H    0.005927
   152  N   -0.152211
   153  C    0.094893
   154  C    0.029622
   155  O   -0.268998
   156  C    0.086251
   157  C    0.102354
   158  C    0.076026
   159  O   -0.363320
   160  O   -0.498339
   161  H    0.127904
   162  H   -0.006073
   163  H    0.015031
   164  H    0.028350
   165  H   -0.023546
   166  H   -0.030645
   167  N   -0.133227
   168  C    0.139457
   169  H    0.013076
   170  H    0.043459
   171  H    0.014326
   172  H    0.095852
   173  Ca   1.428184
   174  O   -0.364668
   175  H    0.157865
   176  H    0.178553
 Sum of Mulliken charges =  -0.00000

 Dipole moment (field-independent basis, Debye):
    X=             -1.3720    Y=             14.2146    Z=            -11.9936  Tot=             18.6489
 Quadrupole moment (field-independent basis, Debye-Ang):
   XX=           -486.6989   YY=           -471.8736   ZZ=           -560.0760
   XY=           -384.9050   XZ=             56.4647   YZ=             68.2361

 ESP charges:
               1
     1  C   -0.425786
     2  C    0.765547
     3  O   -0.637598
     4  H    0.107943
     5  H    0.129841
     6  H    0.090809
     7  N   -0.670597
     8  C    0.417941
     9  C    0.393317
    10  O   -0.485882
    11  C   -0.265737
    12  C    0.697750
    13  O   -0.686023
    14  O   -0.662644
    15  H    0.344694
    16  H    0.012893
    17  H    0.042908
    18  H    0.044716
    19  N   -0.612390
    20  C    0.472283
    21  C    0.391158
    22  O   -0.559335
    23  C   -0.293170
    24  C   -0.108246
    25  C    0.209001
    26  C   -0.013219
    27  N   -0.220840
    28  H    0.248589
    29  H    0.003487
    30  H    0.108432
    31  H    0.091582
    32  H    0.047059
    33  H    0.027662
    34  H   -0.004625
    35  H   -0.047110
    36  H    0.073820
    37  H    0.078174
    38  H    0.251423
    39  H    0.251680
    40  H    0.260067
    41  N   -0.217083
    42  C   -0.004176
    43  C    0.548694
    44  O   -0.415610
    45  C   -0.128506
    46  C    0.730450
    47  O   -0.698162
    48  O   -0.781122
    49  H    0.191800
    50  H    0.053472
    51  H    0.052867
    52  H    0.055226
    53  N   -0.553357
    54  C    0.042739
    55  C    0.580428
    56  O   -0.445508
    57  H    0.347599
    58  H    0.049925
    59  H    0.096109
    60  N   -0.709452
    61  C    0.327881
    62  C    0.373924
    63  O   -0.488435
    64  C   -0.286996
    65  C    0.721854
    66  N   -0.862199
    67  O   -0.530980
    68  H    0.300752
    69  H    0.041294
    70  H    0.094810
    71  H    0.054770
    72  H    0.383852
    73  H    0.415697
    74  N   -0.274178
    75  C   -0.435354
    76  C    0.851162
    77  O   -0.573520
    78  H    0.303904
    79  H    0.161654
    80  H    0.163589
    81  N   -0.752408
    82  C    0.235385
    83  C    0.393232
    84  O   -0.530588
    85  C   -0.310885
    86  C    0.119423
    87  C   -0.194922
    88  C   -0.098868
    89  C   -0.274041
    90  C   -0.352761
    91  C    0.424663
    92  O   -0.565734
    93  H    0.343720
    94  H    0.074212
    95  H    0.145091
    96  H    0.110209
    97  H    0.132101
    98  H    0.123919
    99  H    0.172591
   100  H    0.144718
   101  H    0.417627
   102  N   -0.424351
   103  C   -0.055544
   104  C    0.605921
   105  O   -0.569103
   106  C    0.193960
   107  C    0.173088
   108  C   -0.533870
   109  C   -0.324849
   110  H    0.317990
   111  H    0.096140
   112  H    0.034735
   113  H    0.000909
   114  H   -0.016977
   115  H    0.133099
   116  H    0.142134
   117  H    0.119919
   118  H    0.082945
   119  H    0.066697
   120  H    0.072730
   121  N   -0.515353
   122  C    0.301941
   123  C    0.254474
   124  O   -0.474663
   125  C   -0.040286
   126  O   -0.558106
   127  H    0.319028
   128  H    0.069967
   129  H    0.065353
   130  H    0.097527
   131  H    0.390896
   132  N   -0.246303
   133  C    0.185414
   134  C    0.593123
   135  O   -0.534478
   136  C   -0.395064
   137  H    0.211664
   138  H    0.062934
   139  H    0.084043
   140  H    0.071676
   141  H    0.140995
   142  N   -0.790781
   143  C    0.649920
   144  C    0.338610
   145  O   -0.455477
   146  C   -0.376853
   147  H    0.342471
   148  H   -0.079768
   149  H    0.042360
   150  H    0.119704
   151  H    0.097793
   152  N   -0.541525
   153  C    0.361737
   154  C    0.280151
   155  O   -0.482281
   156  C   -0.217998
   157  C   -0.042017
   158  C    0.776514
   159  O   -0.702139
   160  O   -0.850373
   161  H    0.290508
   162  H   -0.007810
   163  H    0.040253
   164  H    0.103437
   165  H    0.027471
   166  H    0.006932
   167  N   -0.104756
   168  C   -0.271862
   169  H    0.092096
   170  H    0.139418
   171  H    0.111525
   172  H    0.172881
   173  Ca   1.627405
   174  O   -0.895976
   175  H    0.386713
   176  H    0.445287
 Sum of ESP charges =   0.00000

 Normal termination of Gaussian 16 at Tue Sep 17 23:50:58 2019.
