 Gaussian 16, Revision A.03,
 Gaussian 16:  ES64L-G16RevA.03 25-Dec-2016

 ----------------------------------------------------------------------
 #b3lyp/svp scf=(tight,noincore) Test #IOP(5/87=12) Density=Current Pop
 =(MK,readradii) iop(6/33=2) iop(6/42=6)
 ----------------------------------------------------------------------

 -----------------
 Ng-293_loop3_68.0
 -----------------
 Symbolic Z-matrix:
 Charge =  0 Multiplicity = 1

                         Standard orientation:
 ---------------------------------------------------------------------
 Center     Atomic      Atomic             Coordinates (Angstroms)
 Number     Number       Type             X           Y           Z
 ---------------------------------------------------------------------
      1          6           0       -9.263338   -2.068952    7.269291
      2          6           0       -9.689936   -1.795411    5.839155
      3          8           0      -10.849942   -1.517640    5.528303
      4          1           0       -8.324511   -2.622580    7.267696
      5          1           0       -9.126439   -1.124515    7.795019
      6          1           0      -10.030766   -2.657384    7.772015
      7          7           0       -8.899969   -2.094168    4.799589
      8          6           0       -9.270494   -2.275296    3.407288
      9          6           0       -8.165528   -1.841469    2.468701
     10          8           0       -7.002301   -1.953676    2.850816
     11          6           0       -9.647312   -3.748055    3.264847
     12          6           0       -9.911478   -4.145800    1.820923
     13          8           0      -10.341690   -3.304397    1.001131
     14          8           0       -9.746239   -5.349626    1.527324
     15          1           0       -7.928993   -2.225127    5.019261
     16          1           0      -10.112683   -1.630776    3.142124
     17          1           0      -10.527217   -3.998360    3.852481
     18          1           0       -8.754073   -4.324871    3.533186
     19          7           0       -8.430671   -1.403149    1.227986
     20          6           0       -7.447529   -1.156499    0.192324
     21          6           0       -6.529614   -2.330957   -0.105301
     22          8           0       -6.886169   -3.498260    0.030980
     23          6           0       -6.781693    0.181863    0.506247
     24          6           0       -7.708394    1.384467    0.534000
     25          6           0       -8.325937    1.797571   -0.801996
     26          6           0       -9.175823    3.069333   -0.712467
     27          7           0      -10.328854    2.915718    0.189099
     28          1           0       -9.362269   -1.503874    0.843173
     29          1           0       -8.026351   -0.975787   -0.716362
     30          1           0       -5.953463    0.407058   -0.163844
     31          1           0       -6.291006    0.012229    1.461940
     32          1           0       -7.027077    2.136977    0.934168
     33          1           0       -8.442537    1.169224    1.305819
     34          1           0       -9.006103    1.014471   -1.135358
     35          1           0       -7.553417    1.850665   -1.567890
     36          1           0       -9.579816    3.214079   -1.712486
     37          1           0       -8.556253    3.924993   -0.448121
     38          1           0      -10.895310    2.098980    0.004527
     39          1           0       -9.836298    2.751516    1.061925
     40          1           0      -10.921402    3.732505    0.236510
     41          7           0       -5.315780   -2.042434   -0.577911
     42          6           0       -4.374835   -2.937693   -1.215120
     43          6           0       -2.940136   -2.644641   -0.800319
     44          8           0       -2.434475   -1.587920   -1.164939
     45          6           0       -4.384513   -2.826572   -2.735797
     46          6           0       -4.511675   -1.429668   -3.328917
     47          8           0       -4.785340   -0.413565   -2.643394
     48          8           0       -4.206613   -1.378327   -4.541106
     49          1           0       -5.014257   -1.071258   -0.560550
     50          1           0       -4.528149   -3.987762   -0.925381
     51          1           0       -5.253225   -3.377696   -3.094409
     52          1           0       -3.435246   -3.218567   -3.088828
     53          7           0       -2.245722   -3.635019   -0.232922
     54          6           0       -0.798187   -3.646441   -0.334968
     55          6           0       -0.262741   -3.572891   -1.756512
     56          8           0       -0.848925   -4.100005   -2.697277
     57          1           0       -2.615700   -4.545165   -0.010097
     58          1           0       -0.511923   -4.611018    0.071657
     59          1           0       -0.314148   -2.898409    0.309046
     60          7           0        0.844604   -2.848269   -1.942282
     61          6           0        1.574653   -2.740349   -3.194273
     62          6           0        3.076221   -2.694294   -2.934136
     63          8           0        3.557051   -1.870144   -2.160910
     64          6           0        1.224868   -1.449485   -3.930901
     65          6           0        0.173789   -1.530331   -5.023053
     66          7           0       -0.914701   -2.278151   -4.834758
     67          8           0        0.272190   -0.779410   -5.987695
     68          1           0        1.193630   -2.287587   -1.179645
     69          1           0        1.356408   -3.584599   -3.855493
     70          1           0        2.109048   -1.084587   -4.448177
     71          1           0        1.024507   -0.724142   -3.137281
     72          1           0       -0.937391   -2.852529   -4.001646
     73          1           0       -1.558875   -2.432822   -5.603989
     74          7           0        3.777517   -3.727011   -3.401128
     75          6           0        5.228654   -3.733021   -3.361549
     76          6           0        5.824382   -3.704314   -1.962090
     77          8           0        5.212724   -4.148046   -0.996131
     78          1           0        3.337382   -4.532805   -3.834343
     79          1           0        5.473882   -2.831305   -3.918389
     80          1           0        5.586047   -4.580334   -3.953268
     81          7           0        7.079546   -3.273324   -1.790888
     82          6           0        7.701090   -3.016410   -0.507424
     83          6           0        7.101806   -1.776943    0.146778
     84          8           0        7.840079   -1.087473    0.849405
     85          6           0        7.714889   -4.299962    0.310196
     86          6           0        8.753013   -4.268432    1.402444
     87          6           0        8.490141   -3.835921    2.705223
     88          6           0       10.010870   -4.782001    1.073747
     89          6           0        9.469149   -3.941137    3.695461
     90          6           0       11.054030   -4.673020    2.008274
     91          6           0       10.802674   -4.205002    3.313639
     92          8           0       11.770413   -4.078208    4.262114
     93          1           0        7.539689   -2.978128   -2.633638
     94          1           0        8.722393   -2.774291   -0.800373
     95          1           0        7.867032   -5.142183   -0.365464
     96          1           0        6.706740   -4.377021    0.714420
     97          1           0        7.481760   -3.505693    2.932197
     98          1           0       10.248323   -5.211235    0.109706
     99          1           0        9.251460   -3.683251    4.719915
    100          1           0       12.067642   -4.960009    1.783045
    101          1           0       12.609194   -4.196023    3.807507
    102          7           0        5.793265   -1.524726   -0.002569
    103          6           0        4.979607   -0.448195    0.517857
    104          6           0        5.331315    0.948838    0.033294
    105          8           0        4.611801    1.747029   -0.567781
    106          6           0        4.748390   -0.536610    2.026141
    107          6           0        4.179586   -1.860318    2.548023
    108          6           0        3.704530    0.524981    2.346109
    109          6           0        2.712218   -2.162731    2.291162
    110          1           0        5.274783   -2.058982   -0.682824
    111          1           0        3.979161   -0.569419    0.102392
    112          1           0        5.628947   -0.336885    2.632300
    113          1           0        4.365286   -1.902968    3.621008
    114          1           0        4.746985   -2.737900    2.248677
    115          1           0        4.217250    1.495347    2.323531
    116          1           0        2.907408    0.507877    1.606580
    117          1           0        3.247849    0.362953    3.317134
    118          1           0        2.329047   -2.015369    1.278510
    119          1           0        2.509197   -3.212098    2.483286
    120          1           0        2.110373   -1.579472    2.995215
    121          7           0        6.573718    1.296298    0.364058
    122          6           0        7.306457    2.430964   -0.148416
    123          6           0        6.877927    3.785572    0.407372
    124          8           0        7.034586    4.764975   -0.318939
    125          6           0        8.715948    2.061577    0.309283
    126          8           0        8.818225    2.077989    1.716113
    127          1           0        7.052580    0.638372    0.961658
    128          1           0        7.197475    2.522390   -1.227334
    129          1           0        9.333197    2.869942   -0.081167
    130          1           0        9.089896    1.119037   -0.092811
    131          1           0        9.666132    1.711828    2.000858
    132          7           0        6.072406    3.751877    1.479100
    133          6           0        5.384502    4.842279    2.138427
    134          6           0        4.290031    5.462702    1.278307
    135          8           0        4.121808    6.676754    1.212898
    136          6           0        6.390641    5.781640    2.780210
    137          1           0        6.052814    2.839317    1.914817
    138          1           0        4.846486    4.378939    2.968400
    139          1           0        5.826027    6.533252    3.327193
    140          1           0        7.038100    5.189024    3.431750
    141          1           0        7.017657    6.233893    2.015476
    142          7           0        3.500418    4.586151    0.666040
    143          6           0        2.414195    5.074700   -0.160302
    144          6           0        0.974488    4.979373    0.328323
    145          8           0        0.751001    4.098828    1.154939
    146          6           0        2.532454    4.426580   -1.532365
    147          1           0        3.680357    3.598326    0.821359
    148          1           0        2.543191    6.153872   -0.238708
    149          1           0        2.625983    3.358086   -1.354114
    150          1           0        1.706075    4.664674   -2.203937
    151          1           0        3.411547    4.770439   -2.086130
    152          7           0        0.098288    5.904268   -0.077315
    153          6           0       -1.311001    5.973024    0.265874
    154          6           0       -1.685329    6.151245    1.728070
    155          8           0       -2.813665    5.941584    2.167955
    156          6           0       -1.978234    4.830855   -0.492578
    157          6           0       -2.107611    5.119473   -1.983806
    158          6           0       -2.827330    4.045746   -2.790846
    159          8           0       -3.618255    3.242758   -2.242258
    160          8           0       -2.612186    3.881433   -4.005924
    161          1           0        0.440810    6.664840   -0.637591
    162          1           0       -1.613098    6.935642   -0.159337
    163          1           0       -2.975638    4.659739   -0.082209
    164          1           0       -1.431697    3.890609   -0.380174
    165          1           0       -1.075905    5.129592   -2.347237
    166          1           0       -2.545334    6.104036   -2.145154
    167          7           0       -0.734475    6.402029    2.634814
    168          6           0       -0.894972    6.414522    4.066835
    169          1           0       -1.159116    5.414760    4.410709
    170          1           0        0.039469    6.724529    4.535300
    171          1           0       -1.686779    7.113152    4.338409
    172          1           0        0.147835    6.686517    2.224453
    173         20           0       -3.937026    1.467409   -4.172315
    174          8           0       -5.282057    3.353274   -5.436635
    175          1           0       -6.209028    3.596809   -5.425894
    176          1           0       -4.821640    4.191164   -5.572857
 ---------------------------------------------------------------------

 SCF Done:  E(RB3LYP) =  -5333.40360306     A.U. after   24 cycles

 The electronic state is 1-A.
 Alpha  occ. eigenvalues -- -145.45934 -19.22434 -19.17303 -19.14179 -19.14141
 Alpha  occ. eigenvalues --  -19.12694 -19.12491 -19.11897 -19.10210 -19.10115
 Alpha  occ. eigenvalues --  -19.09337 -19.08893 -19.08614 -19.08580 -19.08313
 Alpha  occ. eigenvalues --  -19.08206 -19.08195 -19.08038 -19.08015 -19.05788
 Alpha  occ. eigenvalues --  -19.05055 -19.03259 -18.95671 -18.94354 -15.51859
 Alpha  occ. eigenvalues --  -14.56284 -14.40182 -14.38696 -14.38641 -14.36869
 Alpha  occ. eigenvalues --  -14.36597 -14.36351 -14.34688 -14.34243 -14.34095
 Alpha  occ. eigenvalues --  -14.33969 -14.33286 -14.31949 -14.31042 -14.29595
 Alpha  occ. eigenvalues --  -12.65489 -12.65440 -12.65348 -10.33814 -10.32320
 Alpha  occ. eigenvalues --  -10.31810 -10.31454 -10.30470 -10.28296 -10.28256
 Alpha  occ. eigenvalues --  -10.27831 -10.27666 -10.27642 -10.27597 -10.27376
 Alpha  occ. eigenvalues --  -10.27319 -10.27166 -10.26800 -10.26510 -10.26451
 Alpha  occ. eigenvalues --  -10.25867 -10.25682 -10.25252 -10.24722 -10.24167
 Alpha  occ. eigenvalues --  -10.24041 -10.23916 -10.23748 -10.23287 -10.23116
 Alpha  occ. eigenvalues --  -10.22784 -10.22655 -10.21775 -10.21769 -10.21665
 Alpha  occ. eigenvalues --  -10.21475 -10.20594 -10.20143 -10.20087 -10.20072
 Alpha  occ. eigenvalues --  -10.19810 -10.19789 -10.19608 -10.19269 -10.18914
 Alpha  occ. eigenvalues --  -10.18806 -10.18549 -10.18508 -10.18242 -10.17606
 Alpha  occ. eigenvalues --  -10.17488 -10.17380 -10.17066 -10.16756 -10.16358
 Alpha  occ. eigenvalues --  -10.14731 -10.10143  -1.88481  -1.16241  -1.15816
 Alpha  occ. eigenvalues --   -1.15255  -1.11786  -1.08060  -1.07595  -1.06387
 Alpha  occ. eigenvalues --   -1.06136  -1.05929  -1.04725  -1.03563  -1.03481
 Alpha  occ. eigenvalues --   -1.03206  -1.02944  -1.02484  -1.02029  -1.01559
 Alpha  occ. eigenvalues --   -1.01380  -1.01179  -1.00704  -0.99352  -0.98081
 Alpha  occ. eigenvalues --   -0.96909  -0.96402  -0.95624  -0.95243  -0.93686
 Alpha  occ. eigenvalues --   -0.93430  -0.93228  -0.93171  -0.92545  -0.92094
 Alpha  occ. eigenvalues --   -0.91481  -0.90181  -0.89851  -0.89704  -0.88785
 Alpha  occ. eigenvalues --   -0.88697  -0.88668  -0.86969  -0.85803  -0.85624
 Alpha  occ. eigenvalues --   -0.82928  -0.81955  -0.80684  -0.80285  -0.79604
 Alpha  occ. eigenvalues --   -0.79597  -0.78231  -0.77541  -0.76978  -0.76538
 Alpha  occ. eigenvalues --   -0.75107  -0.74973  -0.74604  -0.74308  -0.73752
 Alpha  occ. eigenvalues --   -0.73626  -0.72999  -0.72303  -0.71333  -0.70819
 Alpha  occ. eigenvalues --   -0.70678  -0.69345  -0.69234  -0.68502  -0.67667
 Alpha  occ. eigenvalues --   -0.67308  -0.65949  -0.65468  -0.65240  -0.64575
 Alpha  occ. eigenvalues --   -0.64239  -0.63544  -0.63145  -0.62363  -0.62175
 Alpha  occ. eigenvalues --   -0.61695  -0.61659  -0.61431  -0.61110  -0.60876
 Alpha  occ. eigenvalues --   -0.60071  -0.59765  -0.59395  -0.59243  -0.59105
 Alpha  occ. eigenvalues --   -0.58502  -0.58405  -0.58188  -0.57434  -0.56799
 Alpha  occ. eigenvalues --   -0.56331  -0.56131  -0.55994  -0.55505  -0.55431
 Alpha  occ. eigenvalues --   -0.55052  -0.55016  -0.54415  -0.54374  -0.53397
 Alpha  occ. eigenvalues --   -0.53289  -0.53062  -0.52378  -0.52293  -0.51900
 Alpha  occ. eigenvalues --   -0.51635  -0.51456  -0.51345  -0.51090  -0.50778
 Alpha  occ. eigenvalues --   -0.50545  -0.50452  -0.50312  -0.49877  -0.49467
 Alpha  occ. eigenvalues --   -0.49393  -0.49198  -0.49182  -0.48480  -0.48331
 Alpha  occ. eigenvalues --   -0.48166  -0.48125  -0.47615  -0.47166  -0.47083
 Alpha  occ. eigenvalues --   -0.46573  -0.46360  -0.45951  -0.45867  -0.45655
 Alpha  occ. eigenvalues --   -0.45588  -0.45491  -0.45335  -0.45071  -0.44933
 Alpha  occ. eigenvalues --   -0.44729  -0.44627  -0.44569  -0.44445  -0.44054
 Alpha  occ. eigenvalues --   -0.43968  -0.43833  -0.43571  -0.43519  -0.43418
 Alpha  occ. eigenvalues --   -0.43304  -0.42952  -0.42854  -0.42840  -0.42817
 Alpha  occ. eigenvalues --   -0.42565  -0.42524  -0.42083  -0.42030  -0.42009
 Alpha  occ. eigenvalues --   -0.41772  -0.41597  -0.41469  -0.41238  -0.41173
 Alpha  occ. eigenvalues --   -0.41090  -0.40998  -0.40856  -0.40756  -0.40594
 Alpha  occ. eigenvalues --   -0.40306  -0.40271  -0.40099  -0.40005  -0.39974
 Alpha  occ. eigenvalues --   -0.39943  -0.39633  -0.39475  -0.39359  -0.39301
 Alpha  occ. eigenvalues --   -0.39182  -0.39021  -0.38953  -0.38708  -0.38638
 Alpha  occ. eigenvalues --   -0.38555  -0.38312  -0.38278  -0.37999  -0.37842
 Alpha  occ. eigenvalues --   -0.37555  -0.37457  -0.37246  -0.37031  -0.36767
 Alpha  occ. eigenvalues --   -0.36684  -0.36657  -0.36231  -0.36153  -0.36071
 Alpha  occ. eigenvalues --   -0.35648  -0.35602  -0.35515  -0.35375  -0.35060
 Alpha  occ. eigenvalues --   -0.34713  -0.34649  -0.34364  -0.34313  -0.34221
 Alpha  occ. eigenvalues --   -0.34127  -0.33988  -0.33952  -0.33658  -0.33227
 Alpha  occ. eigenvalues --   -0.32984  -0.32822  -0.32498  -0.32293  -0.31180
 Alpha  occ. eigenvalues --   -0.30919  -0.30827  -0.30674  -0.29565  -0.29362
 Alpha  occ. eigenvalues --   -0.29188  -0.28889  -0.28308  -0.28055  -0.27900
 Alpha  occ. eigenvalues --   -0.27533  -0.27396  -0.27356  -0.27087  -0.26887
 Alpha  occ. eigenvalues --   -0.26594  -0.26566  -0.26373  -0.26318  -0.25837
 Alpha  occ. eigenvalues --   -0.25745  -0.25544  -0.25494  -0.25385  -0.24893
 Alpha  occ. eigenvalues --   -0.24424  -0.24410  -0.24207  -0.23783  -0.23733
 Alpha  occ. eigenvalues --   -0.23332  -0.23113  -0.22908  -0.22755  -0.22721
 Alpha  occ. eigenvalues --   -0.21859  -0.21524  -0.20799  -0.20102  -0.19400
 Alpha  occ. eigenvalues --   -0.12662  -0.12473  -0.10158
 Alpha virt. eigenvalues --   -0.08436  -0.06806  -0.03224  -0.02865  -0.02629
 Alpha virt. eigenvalues --   -0.02416  -0.02348  -0.01460  -0.00987  -0.00601
 Alpha virt. eigenvalues --   -0.00191  -0.00178   0.00746   0.00777   0.01209

 Mulliken charges:
               1
     1  C    0.075641
     2  C   -0.002724
     3  O   -0.321251
     4  H   -0.000316
     5  H    0.019794
     6  H    0.040242
     7  N   -0.126009
     8  C    0.162122
     9  C    0.064755
    10  O   -0.306442
    11  C    0.078835
    12  C    0.058899
    13  O   -0.419073
    14  O   -0.359336
    15  H    0.098508
    16  H   -0.033841
    17  H    0.016861
    18  H   -0.014682
    19  N   -0.104891
    20  C    0.088150
    21  C    0.087924
    22  O   -0.228382
    23  C    0.000381
    24  C   -0.008013
    25  C   -0.027092
    26  C    0.044789
    27  N    0.091747
    28  H    0.097409
    29  H   -0.003092
    30  H    0.011543
    31  H    0.033981
    32  H    0.025380
    33  H   -0.013899
    34  H    0.023934
    35  H    0.046573
    36  H    0.045806
    37  H    0.080095
    38  H    0.171639
    39  H    0.177571
    40  H    0.165918
    41  N   -0.135410
    42  C    0.139328
    43  C    0.073916
    44  O   -0.289644
    45  C    0.082848
    46  C    0.123225
    47  O   -0.461689
    48  O   -0.410268
    49  H    0.146458
    50  H   -0.003116
    51  H    0.036324
    52  H    0.026099
    53  N   -0.119990
    54  C    0.196178
    55  C    0.063509
    56  O   -0.305766
    57  H    0.138077
    58  H    0.026569
    59  H    0.025523
    60  N   -0.112548
    61  C    0.043525
    62  C    0.097911
    63  O   -0.281456
    64  C    0.103711
    65  C   -0.040427
    66  N   -0.037604
    67  O   -0.272095
    68  H    0.143659
    69  H    0.010377
    70  H    0.021703
    71  H    0.046136
    72  H    0.128826
    73  H    0.132399
    74  N   -0.127166
    75  C    0.196799
    76  C    0.033918
    77  O   -0.286524
    78  H    0.139322
    79  H    0.022561
    80  H    0.042463
    81  N   -0.139798
    82  C    0.124689
    83  C    0.084691
    84  O   -0.296999
    85  C    0.161800
    86  C   -0.022112
    87  C    0.031051
    88  C   -0.009343
    89  C   -0.008149
    90  C   -0.039763
    91  C    0.138059
    92  O   -0.184622
    93  H    0.110211
    94  H   -0.005575
    95  H   -0.005099
    96  H    0.025147
    97  H   -0.029265
    98  H   -0.037045
    99  H   -0.021878
   100  H   -0.049515
   101  H    0.171126
   102  N   -0.109256
   103  C    0.154074
   104  C    0.022273
   105  O   -0.262654
   106  C   -0.109809
   107  C    0.027414
   108  C    0.074818
   109  C    0.009315
   110  H    0.151179
   111  H    0.002483
   112  H    0.000950
   113  H   -0.006189
   114  H   -0.004991
   115  H   -0.008314
   116  H    0.023278
   117  H    0.009606
   118  H   -0.003446
   119  H    0.003188
   120  H    0.016468
   121  N   -0.153829
   122  C    0.092423
   123  C    0.090630
   124  O   -0.273089
   125  C    0.218729
   126  O   -0.326776
   127  H    0.147070
   128  H    0.027984
   129  H   -0.005096
   130  H    0.009964
   131  H    0.179278
   132  N   -0.141177
   133  C    0.036281
   134  C    0.080988
   135  O   -0.274548
   136  C    0.087276
   137  H    0.126242
   138  H    0.013367
   139  H    0.015119
   140  H   -0.001933
   141  H    0.037812
   142  N   -0.117601
   143  C    0.103491
   144  C    0.060376
   145  O   -0.274325
   146  C    0.049942
   147  H    0.137238
   148  H   -0.006977
   149  H    0.033279
   150  H   -0.007483
   151  H    0.025285
   152  N   -0.158742
   153  C    0.103609
   154  C    0.058492
   155  O   -0.285776
   156  C    0.068358
   157  C    0.036618
   158  C    0.101968
   159  O   -0.441887
   160  O   -0.427722
   161  H    0.123126
   162  H   -0.001179
   163  H    0.012614
   164  H    0.026405
   165  H    0.001855
   166  H   -0.004773
   167  N   -0.136489
   168  C    0.147633
   169  H    0.033680
   170  H    0.014086
   171  H    0.020679
   172  H    0.114170
   173  Ca   1.349436
   174  O   -0.320619
   175  H    0.184190
   176  H    0.205218
 Sum of Mulliken charges =  -0.00000

 Dipole moment (field-independent basis, Debye):
    X=              9.2874    Y=             16.7531    Z=            -13.9500  Tot=             23.6965
 Quadrupole moment (field-independent basis, Debye-Ang):
   XX=           -515.0850   YY=           -596.3389   ZZ=           -538.1726
   XY=           -366.3049   XZ=             98.6008   YZ=             16.5627

 ESP charges:
               1
     1  C   -0.410397
     2  C    0.720890
     3  O   -0.606461
     4  H    0.105850
     5  H    0.094779
     6  H    0.132986
     7  N   -0.782907
     8  C    0.625527
     9  C    0.501010
    10  O   -0.547365
    11  C   -0.384468
    12  C    0.733646
    13  O   -0.732879
    14  O   -0.665257
    15  H    0.310805
    16  H   -0.097390
    17  H    0.125323
    18  H    0.071030
    19  N   -0.596939
    20  C    0.180219
    21  C    0.553245
    22  O   -0.457477
    23  C   -0.251576
    24  C    0.204615
    25  C   -0.128368
    26  C   -0.021413
    27  N   -0.263232
    28  H    0.303943
    29  H    0.035625
    30  H    0.098290
    31  H    0.094690
    32  H   -0.002168
    33  H   -0.058743
    34  H    0.069761
    35  H    0.066767
    36  H    0.071336
    37  H    0.093278
    38  H    0.304985
    39  H    0.265697
    40  H    0.292655
    41  N   -0.509142
    42  C    0.064559
    43  C    0.529849
    44  O   -0.488449
    45  C   -0.037999
    46  C    0.763187
    47  O   -0.836269
    48  O   -0.753442
    49  H    0.288608
    50  H    0.030377
    51  H    0.064090
    52  H   -0.010105
    53  N   -0.421636
    54  C   -0.241818
    55  C    0.752528
    56  O   -0.580041
    57  H    0.342919
    58  H    0.128416
    59  H    0.127268
    60  N   -0.693394
    61  C    0.054730
    62  C    0.687326
    63  O   -0.531258
    64  C   -0.343058
    65  C    0.705384
    66  N   -0.863591
    67  O   -0.586386
    68  H    0.369458
    69  H    0.038720
    70  H    0.092937
    71  H    0.154618
    72  H    0.482333
    73  H    0.388488
    74  N   -0.498462
    75  C   -0.152400
    76  C    0.684699
    77  O   -0.552033
    78  H    0.352412
    79  H    0.090464
    80  H    0.123055
    81  N   -0.730521
    82  C    0.452595
    83  C    0.323078
    84  O   -0.523670
    85  C   -0.241171
    86  C   -0.067337
    87  C   -0.066079
    88  C   -0.049521
    89  C   -0.229407
    90  C   -0.368609
    91  C    0.373102
    92  O   -0.525639
    93  H    0.328296
    94  H    0.020352
    95  H    0.105284
    96  H    0.133270
    97  H    0.094533
    98  H    0.113409
    99  H    0.153673
   100  H    0.149359
   101  H    0.396285
   102  N   -0.390738
   103  C    0.040023
   104  C    0.446193
   105  O   -0.545857
   106  C    0.153421
   107  C    0.321334
   108  C   -0.396345
   109  C   -0.305865
   110  H    0.268403
   111  H    0.041517
   112  H   -0.015390
   113  H   -0.058631
   114  H   -0.058400
   115  H    0.079094
   116  H    0.118136
   117  H    0.094407
   118  H    0.051229
   119  H    0.058345
   120  H    0.069828
   121  N   -0.042448
   122  C   -0.346079
   123  C    0.717373
   124  O   -0.560181
   125  C    0.167648
   126  O   -0.647869
   127  H    0.192330
   128  H    0.159607
   129  H    0.027273
   130  H    0.033343
   131  H    0.438789
   132  N   -0.325902
   133  C    0.155422
   134  C    0.591093
   135  O   -0.540783
   136  C   -0.343983
   137  H    0.184241
   138  H    0.046413
   139  H    0.088571
   140  H    0.085909
   141  H    0.106142
   142  N   -0.666025
   143  C    0.502543
   144  C    0.475806
   145  O   -0.528492
   146  C   -0.320519
   147  H    0.275893
   148  H   -0.056585
   149  H    0.092892
   150  H    0.042852
   151  H    0.100881
   152  N   -0.487327
   153  C   -0.156639
   154  C    0.364767
   155  O   -0.494392
   156  C    0.323632
   157  C   -0.181801
   158  C    0.724147
   159  O   -0.783575
   160  O   -0.745218
   161  H    0.295792
   162  H    0.118065
   163  H   -0.049093
   164  H    0.007092
   165  H    0.023911
   166  H    0.030452
   167  N   -0.083835
   168  C   -0.304827
   169  H    0.140423
   170  H    0.121426
   171  H    0.103621
   172  H    0.183412
   173  Ca   1.656064
   174  O   -0.871618
   175  H    0.435372
   176  H    0.445153
 Sum of ESP charges =  -0.00000

 Normal termination of Gaussian 16 at Tue Sep 17 18:20:54 2019.
