 Gaussian 16, Revision A.03,
 Gaussian 16:  ES64L-G16RevA.03 25-Dec-2016

 ----------------------------------------------------------------------
 #b3lyp/svp scf=(tight,noincore) Test #IOP(5/87=12) Density=Current Pop
 =(MK,readradii) iop(6/33=2) iop(6/42=6)
 ----------------------------------------------------------------------

 -----------------
 Ng-295_loop3_26.0
 -----------------
 Symbolic Z-matrix:
 Charge =  0 Multiplicity = 1

                         Standard orientation:
 ---------------------------------------------------------------------
 Center     Atomic      Atomic             Coordinates (Angstroms)
 Number     Number       Type             X           Y           Z
 ---------------------------------------------------------------------
      1          6           0       -7.724309    6.414792    3.437973
      2          6           0       -6.768866    5.743420    2.461557
      3          8           0       -6.132683    6.443863    1.666792
      4          1           0       -7.967828    5.720390    4.242183
      5          1           0       -7.251500    7.303283    3.856712
      6          1           0       -8.637515    6.700274    2.915992
      7          7           0       -6.642401    4.415987    2.549461
      8          6           0       -5.804884    3.637580    1.662136
      9          6           0       -6.334352    3.652084    0.231174
     10          8           0       -7.529358    3.464139   -0.003849
     11          6           0       -5.718873    2.252356    2.290432
     12          6           0       -4.695244    1.396281    1.546041
     13          8           0       -3.665080    0.940787    2.089629
     14          8           0       -4.863472    1.066065    0.350819
     15          1           0       -7.183287    4.033242    3.320013
     16          1           0       -4.793722    4.036422    1.553613
     17          1           0       -6.695495    1.780975    2.202627
     18          1           0       -5.588566    2.388515    3.367317
     19          7           0       -5.454942    3.838077   -0.751956
     20          6           0       -5.833697    4.089279   -2.126708
     21          6           0       -6.558767    2.960843   -2.849414
     22          8           0       -7.411582    3.210420   -3.695238
     23          6           0       -4.586724    4.504109   -2.893895
     24          6           0       -3.565067    3.384155   -3.085779
     25          6           0       -2.300443    3.777189   -3.842317
     26          6           0       -1.129988    2.865124   -3.479727
     27          7           0       -1.336131    1.449812   -3.846741
     28          1           0       -4.476379    3.980664   -0.551497
     29          1           0       -6.502567    4.953821   -2.084509
     30          1           0       -4.109552    5.353044   -2.407463
     31          1           0       -4.853059    4.967765   -3.851124
     32          1           0       -4.013504    2.513522   -3.570345
     33          1           0       -3.230225    3.116328   -2.085454
     34          1           0       -2.098973    4.813508   -3.576511
     35          1           0       -2.550620    3.677560   -4.899287
     36          1           0       -0.932358    2.873179   -2.410392
     37          1           0       -0.290869    3.328077   -3.998240
     38          1           0       -2.087398    1.034843   -3.319296
     39          1           0       -1.639268    1.334080   -4.811320
     40          1           0       -0.527022    0.886526   -3.617502
     41          7           0       -6.212017    1.734505   -2.459593
     42          6           0       -6.633002    0.500048   -3.095743
     43          6           0       -7.475783   -0.411952   -2.222486
     44          8           0       -8.178022   -1.321958   -2.686220
     45          6           0       -5.404742   -0.326861   -3.490455
     46          6           0       -4.356577   -0.388511   -2.395992
     47          8           0       -3.446810    0.474312   -2.354047
     48          8           0       -4.430513   -1.283132   -1.531419
     49          1           0       -5.531305    1.625188   -1.726940
     50          1           0       -7.288411    0.767679   -3.931335
     51          1           0       -5.025491    0.153839   -4.384210
     52          1           0       -5.701705   -1.324555   -3.819421
     53          7           0       -7.406496   -0.211306   -0.903077
     54          6           0       -8.200066   -0.915016    0.080152
     55          6           0       -7.341413   -1.802769    0.971786
     56          8           0       -7.599974   -1.848501    2.170725
     57          1           0       -6.624156    0.340902   -0.581345
     58          1           0       -9.003029   -1.476276   -0.404345
     59          1           0       -8.646047   -0.163677    0.732601
     60          7           0       -6.252261   -2.449358    0.528763
     61          6           0       -5.401403   -3.422276    1.193271
     62          6           0       -4.278556   -2.804823    2.013798
     63          8           0       -3.531590   -2.027253    1.428027
     64          6           0       -4.848984   -4.324677    0.092769
     65          6           0       -4.343372   -5.643432    0.659287
     66          7           0       -4.873302   -6.783304    0.228283
     67          8           0       -3.397979   -5.623672    1.442768
     68          1           0       -5.990165   -2.276476   -0.425186
     69          1           0       -6.062774   -4.018374    1.820771
     70          1           0       -3.997090   -3.780199   -0.317622
     71          1           0       -5.604875   -4.488980   -0.680880
     72          1           0       -5.588089   -6.730818   -0.479690
     73          1           0       -4.664277   -7.676482    0.664334
     74          7           0       -4.110035   -3.205445    3.280961
     75          6           0       -3.079708   -2.622260    4.109588
     76          6           0       -1.646490   -2.957979    3.751289
     77          8           0       -0.724896   -2.495805    4.418566
     78          1           0       -4.629412   -4.013709    3.595694
     79          1           0       -3.313894   -3.162346    5.026356
     80          1           0       -3.261856   -1.544519    4.119423
     81          7           0       -1.397081   -3.715335    2.679885
     82          6           0       -0.097115   -3.871736    2.064313
     83          6           0        0.495402   -2.582992    1.494259
     84          8           0       -0.195718   -1.803592    0.835633
     85          6           0        0.010146   -4.981408    1.014540
     86          6           0        1.114615   -5.208541    0.014810
     87          6           0        0.839464   -4.819233   -1.295965
     88          6           0        2.344395   -5.747823    0.422262
     89          6           0        1.880098   -4.863205   -2.237583
     90          6           0        3.347313   -5.867977   -0.556419
     91          6           0        3.106595   -5.443409   -1.880276
     92          8           0        4.132245   -5.467066   -2.783649
     93          1           0       -2.170740   -4.120502    2.165791
     94          1           0        0.637217   -4.243163    2.782017
     95          1           0       -0.839238   -4.808102    0.354380
     96          1           0       -0.159429   -5.927689    1.518718
     97          1           0       -0.092028   -4.564862   -1.785576
     98          1           0        2.516467   -5.880568    1.480549
     99          1           0        1.730298   -4.526842   -3.254107
    100          1           0        4.331612   -6.174278   -0.251238
    101          1           0        4.838260   -6.018256   -2.433889
    102          7           0        1.769637   -2.362775    1.795474
    103          6           0        2.628211   -1.266311    1.376885
    104          6           0        2.793183   -1.316122   -0.134803
    105          8           0        1.879862   -1.370555   -0.957897
    106          6           0        2.219954    0.035408    2.060299
    107          6           0        3.121432    1.114810    1.479328
    108          6           0        2.335772   -0.109863    3.571221
    109          6           0        2.594191    2.514936    1.763169
    110          1           0        2.154463   -3.038054    2.433053
    111          1           0        3.646943   -1.537353    1.668984
    112          1           0        1.206456    0.285297    1.763184
    113          1           0        3.200132    1.124752    0.383195
    114          1           0        4.142424    1.102987    1.856868
    115          1           0        1.792429   -0.995692    3.889003
    116          1           0        3.368105   -0.057612    3.929630
    117          1           0        1.811179    0.651608    4.158727
    118          1           0        3.166788    3.299538    1.264839
    119          1           0        1.548618    2.510529    1.468286
    120          1           0        2.597855    2.695383    2.840120
    121          7           0        4.076570   -1.204224   -0.483652
    122          6           0        4.593967   -1.072917   -1.833192
    123          6           0        6.070594   -1.356985   -2.045041
    124          8           0        6.491560   -1.506250   -3.189203
    125          6           0        4.400398    0.352253   -2.323520
    126          8           0        5.132031    1.273569   -1.537904
    127          1           0        4.788025   -1.058506    0.222321
    128          1           0        3.924474   -1.740123   -2.389533
    129          1           0        3.364156    0.653886   -2.204696
    130          1           0        4.743521    0.427297   -3.358477
    131          1           0        4.537667    2.030516   -1.482574
    132          7           0        6.847973   -1.343969   -0.949910
    133          6           0        8.261677   -1.636862   -0.831360
    134          6           0        9.159212   -1.024098   -1.900730
    135          8           0        9.797625   -1.775995   -2.629139
    136          6           0        8.381823   -3.145145   -0.605421
    137          1           0        6.407206   -1.250958   -0.047705
    138          1           0        8.551478   -1.202510    0.131321
    139          1           0        7.691552   -3.681957   -1.254851
    140          1           0        9.398100   -3.526563   -0.647853
    141          1           0        8.030078   -3.339641    0.405938
    142          7           0        9.279625    0.282434   -2.121354
    143          6           0        8.746001    1.392632   -1.359182
    144          6           0        9.717823    1.970790   -0.331176
    145          8           0       10.890473    2.181393   -0.613732
    146          6           0        8.292536    2.337481   -2.467527
    147          1           0        9.869360    0.502332   -2.911771
    148          1           0        7.834944    1.017600   -0.907712
    149          1           0        9.087369    2.953624   -2.880817
    150          1           0        7.794138    1.889037   -3.329268
    151          1           0        7.636224    3.106436   -2.068950
    152          7           0        9.196492    2.447229    0.803821
    153          6           0        7.808222    2.640515    1.171719
    154          6           0        7.670749    2.294853    2.645394
    155          8           0        6.656858    1.684673    2.964462
    156          6           0        7.290339    4.050196    0.886770
    157          6           0        5.801243    4.285066    1.093719
    158          6           0        5.256475    5.636175    0.648937
    159          8           0        5.414260    6.623621    1.394226
    160          8           0        4.807461    5.790009   -0.508138
    161          1           0        9.829745    2.735089    1.526543
    162          1           0        7.108860    1.928392    0.713818
    163          1           0        7.552029    4.380038   -0.111490
    164          1           0        7.804295    4.737605    1.554466
    165          1           0        5.649777    4.121277    2.164621
    166          1           0        5.361845    3.539903    0.428390
    167          7           0        8.597519    2.708284    3.523616
    168          6           0        8.717802    2.431424    4.936230
    169          1           0        8.381437    1.413738    5.136881
    170          1           0        9.759349    2.535393    5.239664
    171          1           0        8.103152    3.134112    5.498237
    172          1           0        9.216549    3.417746    3.151372
    173         20           0       -2.448298   -0.260961    0.016124
    174          8           0       -1.209339   -2.012712   -1.650654
    175          1           0       -1.009078   -1.854131   -2.568940
    176          1           0       -0.407979   -2.381592   -1.292395
 ---------------------------------------------------------------------

 SCF Done:  E(RB3LYP) =  -5333.46283938     A.U. after   28 cycles

 The electronic state is 1-A.
 Alpha  occ. eigenvalues -- -145.44733 -19.20638 -19.19172 -19.15806 -19.15691
 Alpha  occ. eigenvalues --  -19.15228 -19.15169 -19.14660 -19.14262 -19.12978
 Alpha  occ. eigenvalues --  -19.12004 -19.11632 -19.09957 -19.09846 -19.09763
 Alpha  occ. eigenvalues --  -19.09684 -19.09582 -19.09337 -19.09218 -19.08683
 Alpha  occ. eigenvalues --  -19.08490 -19.07557 -18.96647 -18.96199 -15.50487
 Alpha  occ. eigenvalues --  -14.53719 -14.40603 -14.40422 -14.40221 -14.39860
 Alpha  occ. eigenvalues --  -14.38564 -14.37884 -14.36601 -14.36344 -14.36218
 Alpha  occ. eigenvalues --  -14.36136 -14.35824 -14.34920 -14.34766 -14.33826
 Alpha  occ. eigenvalues --  -12.64107 -12.64060 -12.64038 -10.33622 -10.33432
 Alpha  occ. eigenvalues --  -10.33259 -10.33018 -10.32820 -10.32628 -10.31145
 Alpha  occ. eigenvalues --  -10.31099 -10.29060 -10.28950 -10.28751 -10.28564
 Alpha  occ. eigenvalues --  -10.28504 -10.28099 -10.27991 -10.27856 -10.27621
 Alpha  occ. eigenvalues --  -10.27475 -10.27408 -10.27340 -10.27233 -10.26520
 Alpha  occ. eigenvalues --  -10.26228 -10.26138 -10.25925 -10.25265 -10.24865
 Alpha  occ. eigenvalues --  -10.24752 -10.24358 -10.23982 -10.23370 -10.23236
 Alpha  occ. eigenvalues --  -10.23183 -10.23177 -10.23134 -10.23067 -10.22970
 Alpha  occ. eigenvalues --  -10.22699 -10.22623 -10.22398 -10.22375 -10.22362
 Alpha  occ. eigenvalues --  -10.21818 -10.21784 -10.20596 -10.19360 -10.19169
 Alpha  occ. eigenvalues --  -10.19078 -10.18689 -10.17340 -10.17030 -10.16355
 Alpha  occ. eigenvalues --  -10.15732 -10.12428  -1.87194  -1.14806  -1.14512
 Alpha  occ. eigenvalues --   -1.14256  -1.09806  -1.08746  -1.08459  -1.08070
 Alpha  occ. eigenvalues --   -1.07888  -1.07502  -1.06833  -1.06645  -1.05076
 Alpha  occ. eigenvalues --   -1.05046  -1.04934  -1.03784  -1.03492  -1.03256
 Alpha  occ. eigenvalues --   -1.02797  -1.02525  -1.01877  -1.01716  -1.01234
 Alpha  occ. eigenvalues --   -1.01164  -0.98542  -0.97466  -0.97240  -0.96873
 Alpha  occ. eigenvalues --   -0.95398  -0.94784  -0.94488  -0.94139  -0.93475
 Alpha  occ. eigenvalues --   -0.93393  -0.93115  -0.93008  -0.92533  -0.91334
 Alpha  occ. eigenvalues --   -0.91179  -0.91071  -0.90874  -0.88828  -0.87424
 Alpha  occ. eigenvalues --   -0.84917  -0.82475  -0.82084  -0.81869  -0.80876
 Alpha  occ. eigenvalues --   -0.80769  -0.80080  -0.79640  -0.78457  -0.78191
 Alpha  occ. eigenvalues --   -0.77800  -0.77198  -0.76601  -0.75774  -0.75483
 Alpha  occ. eigenvalues --   -0.74806  -0.74229  -0.72788  -0.72647  -0.72434
 Alpha  occ. eigenvalues --   -0.70999  -0.70567  -0.69071  -0.68708  -0.68343
 Alpha  occ. eigenvalues --   -0.68234  -0.67736  -0.67533  -0.66693  -0.66398
 Alpha  occ. eigenvalues --   -0.66061  -0.65808  -0.65304  -0.64783  -0.64410
 Alpha  occ. eigenvalues --   -0.63705  -0.63406  -0.62923  -0.62415  -0.62265
 Alpha  occ. eigenvalues --   -0.62192  -0.61719  -0.61273  -0.60646  -0.60192
 Alpha  occ. eigenvalues --   -0.59950  -0.59843  -0.59566  -0.59180  -0.59111
 Alpha  occ. eigenvalues --   -0.59019  -0.58419  -0.58186  -0.57938  -0.57814
 Alpha  occ. eigenvalues --   -0.57684  -0.57254  -0.56516  -0.56230  -0.55683
 Alpha  occ. eigenvalues --   -0.55157  -0.54687  -0.54562  -0.53856  -0.53676
 Alpha  occ. eigenvalues --   -0.53569  -0.53131  -0.53000  -0.52735  -0.52484
 Alpha  occ. eigenvalues --   -0.52116  -0.52080  -0.51860  -0.51710  -0.51594
 Alpha  occ. eigenvalues --   -0.51150  -0.50752  -0.50615  -0.50416  -0.50199
 Alpha  occ. eigenvalues --   -0.50013  -0.49439  -0.49311  -0.49218  -0.48882
 Alpha  occ. eigenvalues --   -0.48601  -0.48532  -0.48409  -0.48140  -0.48001
 Alpha  occ. eigenvalues --   -0.47733  -0.47683  -0.47495  -0.47217  -0.47075
 Alpha  occ. eigenvalues --   -0.46926  -0.46855  -0.46713  -0.46565  -0.46437
 Alpha  occ. eigenvalues --   -0.46278  -0.46235  -0.45853  -0.45745  -0.45324
 Alpha  occ. eigenvalues --   -0.45158  -0.44908  -0.44803  -0.44688  -0.44565
 Alpha  occ. eigenvalues --   -0.44541  -0.44278  -0.44205  -0.44172  -0.44052
 Alpha  occ. eigenvalues --   -0.44031  -0.43853  -0.43474  -0.43422  -0.43325
 Alpha  occ. eigenvalues --   -0.43249  -0.43152  -0.42965  -0.42565  -0.42216
 Alpha  occ. eigenvalues --   -0.42036  -0.41878  -0.41639  -0.41519  -0.41333
 Alpha  occ. eigenvalues --   -0.41063  -0.40924  -0.40844  -0.40815  -0.40654
 Alpha  occ. eigenvalues --   -0.40539  -0.40212  -0.40142  -0.40138  -0.39902
 Alpha  occ. eigenvalues --   -0.39873  -0.39755  -0.39662  -0.39478  -0.39445
 Alpha  occ. eigenvalues --   -0.39422  -0.38989  -0.38943  -0.38585  -0.38472
 Alpha  occ. eigenvalues --   -0.38412  -0.38259  -0.38227  -0.38150  -0.38128
 Alpha  occ. eigenvalues --   -0.37911  -0.37735  -0.37690  -0.37517  -0.37309
 Alpha  occ. eigenvalues --   -0.36991  -0.36902  -0.36639  -0.36295  -0.36024
 Alpha  occ. eigenvalues --   -0.35968  -0.35874  -0.35489  -0.35107  -0.34989
 Alpha  occ. eigenvalues --   -0.34729  -0.34618  -0.33756  -0.33281  -0.33113
 Alpha  occ. eigenvalues --   -0.32574  -0.32335  -0.32253  -0.32057  -0.31926
 Alpha  occ. eigenvalues --   -0.31667  -0.31398  -0.31325  -0.31097  -0.30545
 Alpha  occ. eigenvalues --   -0.29980  -0.29632  -0.29555  -0.28994  -0.28862
 Alpha  occ. eigenvalues --   -0.28266  -0.28231  -0.28071  -0.28025  -0.27874
 Alpha  occ. eigenvalues --   -0.27507  -0.27370  -0.27318  -0.26956  -0.26953
 Alpha  occ. eigenvalues --   -0.26790  -0.26485  -0.26410  -0.26082  -0.25715
 Alpha  occ. eigenvalues --   -0.25638  -0.25264  -0.24960  -0.24662  -0.24506
 Alpha  occ. eigenvalues --   -0.24362  -0.24042  -0.23920  -0.23280  -0.23013
 Alpha  occ. eigenvalues --   -0.14466  -0.13791  -0.11078
 Alpha virt. eigenvalues --   -0.09837  -0.06284  -0.06008  -0.04116  -0.03923
 Alpha virt. eigenvalues --   -0.03690  -0.02930  -0.02386  -0.02359  -0.01991
 Alpha virt. eigenvalues --   -0.01640  -0.01178  -0.00792  -0.00497  -0.00009

 Mulliken charges:
               1
     1  C    0.061279
     2  C    0.014360
     3  O   -0.301679
     4  H   -0.012940
     5  H    0.042029
     6  H    0.052788
     7  N   -0.109099
     8  C    0.094490
     9  C    0.090421
    10  O   -0.275018
    11  C    0.133107
    12  C    0.107325
    13  O   -0.410612
    14  O   -0.427049
    15  H    0.126552
    16  H   -0.011214
    17  H    0.023170
    18  H    0.007353
    19  N   -0.116040
    20  C    0.134516
    21  C    0.072009
    22  O   -0.253004
    23  C    0.023358
    24  C   -0.044858
    25  C   -0.000293
    26  C    0.060852
    27  N    0.084951
    28  H    0.112663
    29  H    0.027544
    30  H    0.011921
    31  H    0.017714
    32  H    0.023971
    33  H   -0.025480
    34  H    0.046736
    35  H    0.024804
    36  H    0.045367
    37  H    0.072862
    38  H    0.121440
    39  H    0.169854
    40  H    0.145825
    41  N   -0.169955
    42  C    0.064036
    43  C    0.063155
    44  O   -0.298271
    45  C    0.175059
    46  C    0.108696
    47  O   -0.477026
    48  O   -0.360608
    49  H    0.174140
    50  H    0.037998
    51  H   -0.028758
    52  H    0.024933
    53  N   -0.174309
    54  C    0.259031
    55  C   -0.011369
    56  O   -0.289063
    57  H    0.131856
    58  H    0.048967
    59  H    0.031400
    60  N   -0.122715
    61  C    0.100022
    62  C    0.164118
    63  O   -0.374784
    64  C    0.076454
    65  C    0.003700
    66  N   -0.023581
    67  O   -0.289866
    68  H    0.143719
    69  H   -0.012173
    70  H    0.053507
    71  H    0.008157
    72  H    0.130779
    73  H    0.142164
    74  N   -0.157478
    75  C    0.235222
    76  C    0.021389
    77  O   -0.281275
    78  H    0.139741
    79  H    0.027729
    80  H    0.083541
    81  N   -0.103231
    82  C    0.151854
    83  C    0.125706
    84  O   -0.371672
    85  C    0.088398
    86  C   -0.041698
    87  C   -0.014888
    88  C    0.010889
    89  C   -0.036213
    90  C   -0.045330
    91  C    0.173665
    92  O   -0.190526
    93  H    0.147374
    94  H   -0.021297
    95  H   -0.004131
    96  H    0.024487
    97  H   -0.021149
    98  H   -0.024700
    99  H   -0.024311
   100  H   -0.029872
   101  H    0.180411
   102  N   -0.102966
   103  C    0.113118
   104  C    0.099580
   105  O   -0.300880
   106  C    0.002503
   107  C   -0.049289
   108  C    0.051176
   109  C    0.038789
   110  H    0.132064
   111  H   -0.028556
   112  H   -0.027776
   113  H   -0.030948
   114  H    0.029111
   115  H    0.011271
   116  H    0.024161
   117  H    0.022258
   118  H    0.059745
   119  H   -0.041607
   120  H    0.010807
   121  N   -0.145662
   122  C    0.071985
   123  C    0.114864
   124  O   -0.249341
   125  C    0.230697
   126  O   -0.314940
   127  H    0.128767
   128  H    0.031432
   129  H   -0.024356
   130  H    0.026374
   131  H    0.201617
   132  N   -0.151726
   133  C    0.014806
   134  C    0.071292
   135  O   -0.259534
   136  C    0.099000
   137  H    0.107046
   138  H    0.016304
   139  H    0.014168
   140  H    0.035609
   141  H   -0.028405
   142  N   -0.093831
   143  C    0.042280
   144  C    0.094013
   145  O   -0.256583
   146  C    0.040199
   147  H    0.131867
   148  H    0.000332
   149  H    0.011627
   150  H    0.025476
   151  H    0.020233
   152  N   -0.095934
   153  C    0.060731
   154  C    0.047127
   155  O   -0.272558
   156  C    0.070327
   157  C    0.060839
   158  C    0.019883
   159  O   -0.362416
   160  O   -0.385083
   161  H    0.095967
   162  H    0.013228
   163  H    0.001472
   164  H   -0.030246
   165  H   -0.011219
   166  H   -0.059523
   167  N   -0.166236
   168  C    0.133590
   169  H    0.032901
   170  H    0.023799
   171  H    0.040045
   172  H    0.125603
   173  Ca   1.268201
   174  O   -0.292305
   175  H    0.153118
   176  H    0.196500
 Sum of Mulliken charges =  -0.00000

 Dipole moment (field-independent basis, Debye):
    X=             -9.6980    Y=            -25.4937    Z=             -1.1855  Tot=             27.3018
 Quadrupole moment (field-independent basis, Debye-Ang):
   XX=           -769.8244   YY=           -621.1726   ZZ=           -519.2911
   XY=            -32.9601   XZ=             33.0314   YZ=            -31.8228

 ESP charges:
               1
     1  C   -0.472817
     2  C    0.752027
     3  O   -0.583963
     4  H    0.088652
     5  H    0.141427
     6  H    0.147146
     7  N   -0.620398
     8  C    0.093071
     9  C    0.593340
    10  O   -0.525810
    11  C   -0.169201
    12  C    0.725500
    13  O   -0.787230
    14  O   -0.577147
    15  H    0.340456
    16  H    0.043795
    17  H    0.084457
    18  H    0.080680
    19  N   -0.357889
    20  C   -0.039704
    21  C    0.510068
    22  O   -0.531927
    23  C   -0.243270
    24  C    0.177549
    25  C   -0.198497
    26  C    0.100214
    27  N   -0.358188
    28  H    0.227267
    29  H    0.140343
    30  H    0.100857
    31  H    0.082019
    32  H    0.057318
    33  H    0.036160
    34  H    0.091098
    35  H    0.057093
    36  H    0.045666
    37  H    0.071980
    38  H    0.223155
    39  H    0.330785
    40  H    0.265717
    41  N   -0.089483
    42  C    0.137668
    43  C    0.477048
    44  O   -0.562778
    45  C   -0.325572
    46  C    0.671645
    47  O   -0.640832
    48  O   -0.590291
    49  H   -0.361995
    50  H    0.080410
    51  H    0.077187
    52  H    0.112565
    53  N   -0.209441
    54  C   -0.235091
    55  C    0.580807
    56  O   -0.576500
    57  H    0.254854
    58  H    0.147693
    59  H    0.122275
    60  N   -0.315537
    61  C   -0.133245
    62  C    0.587641
    63  O   -0.461760
    64  C   -0.145234
    65  C    0.693889
    66  N   -0.815620
    67  O   -0.603535
    68  H    0.226764
    69  H    0.082629
    70  H    0.038506
    71  H    0.082530
    72  H    0.370100
    73  H    0.404512
    74  N   -0.297107
    75  C   -0.459774
    76  C    0.697137
    77  O   -0.572827
    78  H    0.292705
    79  H    0.198767
    80  H    0.221445
    81  N   -0.471430
    82  C    0.048397
    83  C    0.726369
    84  O   -0.672802
    85  C   -0.103525
    86  C   -0.012084
    87  C   -0.146443
    88  C   -0.081902
    89  C   -0.224082
    90  C   -0.356198
    91  C    0.400332
    92  O   -0.554464
    93  H    0.297788
    94  H    0.037958
    95  H    0.067696
    96  H    0.078255
    97  H    0.126495
    98  H    0.127466
    99  H    0.147048
   100  H    0.158910
   101  H    0.419933
   102  N   -0.445411
   103  C   -0.372423
   104  C    0.744588
   105  O   -0.590671
   106  C    0.092146
   107  C   -0.048646
   108  C   -0.123594
   109  C   -0.202969
   110  H    0.295109
   111  H    0.182992
   112  H    0.078501
   113  H    0.078941
   114  H    0.079773
   115  H    0.046222
   116  H    0.042653
   117  H    0.061729
   118  H    0.081753
   119  H   -0.003718
   120  H    0.065576
   121  N   -0.330343
   122  C   -0.451752
   123  C    0.723288
   124  O   -0.504192
   125  C    0.065026
   126  O   -0.528250
   127  H    0.139475
   128  H    0.225065
   129  H    0.051290
   130  H    0.085815
   131  H    0.388203
   132  N   -0.428667
   133  C    0.153420
   134  C    0.616058
   135  O   -0.548232
   136  C   -0.328821
   137  H    0.324186
   138  H    0.035963
   139  H    0.086599
   140  H    0.115110
   141  H    0.065422
   142  N   -0.712304
   143  C    0.270057
   144  C    0.498755
   145  O   -0.517354
   146  C   -0.196467
   147  H    0.362557
   148  H    0.156770
   149  H    0.066635
   150  H    0.091687
   151  H    0.035998
   152  N   -0.499210
   153  C   -0.374529
   154  C    0.702216
   155  O   -0.552154
   156  C    0.500130
   157  C   -0.414430
   158  C    0.713625
   159  O   -0.662366
   160  O   -0.682351
   161  H    0.269078
   162  H    0.029313
   163  H   -0.013099
   164  H   -0.108653
   165  H    0.088733
   166  H    0.018975
   167  N   -0.386360
   168  C   -0.226305
   169  H    0.117876
   170  H    0.109144
   171  H    0.115678
   172  H    0.326859
   173  Ca   1.541149
   174  O   -0.826461
   175  H    0.399255
   176  H    0.422663
 Sum of ESP charges =  -0.00000

 Normal termination of Gaussian 16 at Wed Sep 18 11:11:54 2019.
