 Gaussian 16, Revision A.03,
 Gaussian 16:  ES64L-G16RevA.03 25-Dec-2016

 ----------------------------------------------------------------------
 #b3lyp/svp scf=(tight,noincore) Test #IOP(5/87=12) Density=Current Pop
 =(MK,readradii) iop(6/33=2) iop(6/42=6)
 ----------------------------------------------------------------------

 ----------------
 Ng-293_loop3_0.0
 ----------------
 Symbolic Z-matrix:
 Charge =  0 Multiplicity = 1

                         Standard orientation:
 ---------------------------------------------------------------------
 Center     Atomic      Atomic             Coordinates (Angstroms)
 Number     Number       Type             X           Y           Z
 ---------------------------------------------------------------------
      1          6           0        8.943521    2.701585    5.332023
      2          6           0        9.046505    3.137049    3.878797
      3          8           0       10.102842    3.576738    3.412080
      4          1           0        8.117456    3.228108    5.810456
      5          1           0        8.764155    1.627419    5.378133
      6          1           0        9.873481    2.938029    5.849110
      7          7           0        7.952277    2.891848    3.158907
      8          6           0        7.883547    2.999581    1.720063
      9          6           0        8.332245    1.742267    1.003033
     10          8           0        7.839996    0.640335    1.255888
     11          6           0        6.572185    3.469066    1.093316
     12          6           0        5.309600    2.882985    1.720443
     13          8           0        4.275640    3.246062    1.125715
     14          8           0        5.257158    2.196661    2.760977
     15          1           0        7.139865    2.442964    3.568039
     16          1           0        8.644893    3.715042    1.414993
     17          1           0        6.564185    3.156822    0.049986
     18          1           0        6.464391    4.552032    1.128887
     19          7           0        9.053176    1.930461   -0.104506
     20          6           0        9.409354    0.946150   -1.114639
     21          6           0        8.271565    0.255986   -1.849016
     22          8           0        8.527942   -0.596749   -2.700317
     23          6           0       10.514260   -0.000675   -0.654092
     24          6           0       11.577587    0.495240    0.320333
     25          6           0       12.391577   -0.681146    0.858139
     26          6           0       13.373623   -0.220836    1.928092
     27          7           0       14.355115   -1.263584    2.261487
     28          1           0        9.539201    2.806842   -0.141055
     29          1           0        9.931232    1.495182   -1.896948
     30          1           0       10.959487   -0.514537   -1.506277
     31          1           0        9.994935   -0.759400   -0.072337
     32          1           0       11.146327    0.881091    1.238230
     33          1           0       12.275302    1.201530   -0.126042
     34          1           0       12.995469   -1.131287    0.070492
     35          1           0       11.842563   -1.474297    1.357835
     36          1           0       12.598674   -0.003349    2.665624
     37          1           0       13.768351    0.754136    1.629732
     38          1           0       14.913003   -1.113181    3.081145
     39          1           0       13.914464   -2.167235    2.329620
     40          1           0       15.073210   -1.253378    1.548932
     41          7           0        7.021828    0.616810   -1.553106
     42          6           0        5.843336    0.022865   -2.152261
     43          6           0        4.707577    1.021998   -2.387171
     44          8           0        4.859679    2.193645   -2.087993
     45          6           0        5.407259   -0.981974   -1.095219
     46          6           0        4.768632   -2.225877   -1.695019
     47          8           0        4.431663   -2.319491   -2.893847
     48          8           0        4.644140   -3.254192   -0.991903
     49          1           0        6.872345    1.369905   -0.903412
     50          1           0        6.117160   -0.404016   -3.110537
     51          1           0        4.853682   -0.496675   -0.289343
     52          1           0        6.326044   -1.412072   -0.684184
     53          7           0        3.603713    0.532016   -2.959450
     54          6           0        2.464863    1.362358   -3.288166
     55          6           0        1.140854    0.735309   -2.867797
     56          8           0        0.793746   -0.324390   -3.382244
     57          1           0        3.480977   -0.455642   -3.151457
     58          1           0        2.316117    1.539571   -4.349425
     59          1           0        2.580319    2.350327   -2.835301
     60          7           0        0.457955    1.369210   -1.909299
     61          6           0       -0.813794    0.949146   -1.363129
     62          6           0       -1.939356    1.868209   -1.833804
     63          8           0       -3.107461    1.467101   -1.857106
     64          6           0       -0.704128    1.047807    0.157114
     65          6           0        0.321705    0.033580    0.647736
     66          7           0        1.473342    0.487613    1.152004
     67          8           0        0.209058   -1.173279    0.483106
     68          1           0        0.806555    2.247975   -1.543719
     69          1           0       -1.040053   -0.057402   -1.726677
     70          1           0       -1.678791    0.942423    0.636829
     71          1           0       -0.268161    2.021571    0.400047
     72          1           0        1.730753    1.462362    1.183711
     73          1           0        2.197461   -0.205535    1.219806
     74          7           0       -1.668276    3.119650   -2.203413
     75          6           0       -2.652225    4.117016   -2.585125
     76          6           0       -3.518730    4.408608   -1.370281
     77          8           0       -2.946051    4.435790   -0.282485
     78          1           0       -0.698023    3.343989   -2.368279
     79          1           0       -3.259808    3.660662   -3.363253
     80          1           0       -2.231388    5.055734   -2.945965
     81          7           0       -4.846680    4.539424   -1.429729
     82          6           0       -5.767736    4.630100   -0.313157
     83          6           0       -5.980334    3.385984    0.539180
     84          8           0       -6.999739    3.289544    1.223879
     85          6           0       -5.559985    5.914558    0.481579
     86          6           0       -5.222092    7.175262   -0.276810
     87          6           0       -4.124690    7.898456    0.192655
     88          6           0       -6.112595    7.596652   -1.264755
     89          6           0       -3.973910    9.194433   -0.320287
     90          6           0       -5.877617    8.848473   -1.848132
     91          6           0       -4.787935    9.613421   -1.388515
     92          8           0       -4.563547   10.788351   -2.035732
     93          1           0       -5.314195    4.627086   -2.316152
     94          1           0       -6.729372    4.709006   -0.839208
     95          1           0       -4.799543    5.804443    1.266565
     96          1           0       -6.503479    6.085206    0.990204
     97          1           0       -3.652981    7.555318    1.099434
     98          1           0       -6.950238    6.937718   -1.472504
     99          1           0       -3.089120    9.749371   -0.042095
    100          1           0       -6.607218    9.187081   -2.571960
    101          1           0       -5.105899   10.974370   -2.812038
    102          7           0       -5.007822    2.477007    0.573536
    103          6           0       -4.962802    1.188580    1.239139
    104          6           0       -5.992003    0.209951    0.679110
    105          8           0       -5.590087   -0.813434    0.117287
    106          6           0       -5.129178    1.243659    2.760548
    107          6           0       -4.322316    2.403165    3.327574
    108          6           0       -4.752730   -0.076281    3.438889
    109          6           0       -4.352127    2.618465    4.832286
    110          1           0       -4.196567    2.676460    0.001361
    111          1           0       -3.964138    0.806319    1.079622
    112          1           0       -6.181929    1.355227    2.982515
    113          1           0       -4.566627    3.410977    2.968791
    114          1           0       -3.277507    2.283204    3.055944
    115          1           0       -4.929977   -0.060564    4.517655
    116          1           0       -5.349784   -0.935016    3.149921
    117          1           0       -3.689419   -0.137988    3.206807
    118          1           0       -3.688172    3.425815    5.145416
    119          1           0       -5.407657    2.834216    5.031050
    120          1           0       -4.037765    1.782121    5.456949
    121          7           0       -7.293152    0.481984    0.750581
    122          6           0       -8.305951   -0.267466    0.032413
    123          6           0       -8.452894   -1.751750    0.332927
    124          8           0       -8.829714   -2.534064   -0.535744
    125          6           0       -9.687522    0.339621    0.277582
    126          8           0       -9.739552    1.621837   -0.307323
    127          1           0       -7.581080    1.295929    1.259100
    128          1           0       -8.143053   -0.201406   -1.043784
    129          1           0       -9.953196    0.430838    1.339606
    130          1           0      -10.497009   -0.241714   -0.141083
    131          1           0      -10.656345    1.883619   -0.448608
    132          7           0       -7.981753   -2.108875    1.526069
    133          6           0       -7.670004   -3.464590    1.930851
    134          6           0       -6.976228   -4.395295    0.944259
    135          8           0       -7.449199   -5.485568    0.622229
    136          6           0       -8.983697   -4.063591    2.411277
    137          1           0       -7.767338   -1.315311    2.102683
    138          1           0       -7.071193   -3.501997    2.846179
    139          1           0       -8.844323   -5.080737    2.792445
    140          1           0       -9.383954   -3.311424    3.091159
    141          1           0       -9.614190   -4.175768    1.526295
    142          7           0       -5.923518   -3.827881    0.361900
    143          6           0       -5.062695   -4.444440   -0.621938
    144          6           0       -3.835125   -4.993608    0.088053
    145          8           0       -3.294926   -4.332393    0.975229
    146          6           0       -4.557288   -3.472635   -1.680455
    147          1           0       -5.652899   -2.876510    0.588745
    148          1           0       -5.588592   -5.272501   -1.100631
    149          1           0       -3.856317   -4.037847   -2.311150
    150          1           0       -5.440465   -3.000171   -2.112399
    151          1           0       -3.935296   -2.760524   -1.139140
    152          7           0       -3.414522   -6.132724   -0.461228
    153          6           0       -2.283555   -6.917398   -0.034265
    154          6           0       -2.346868   -7.393291    1.409383
    155          8           0       -1.540192   -7.160016    2.304121
    156          6           0       -1.014598   -6.112352   -0.316843
    157          6           0       -0.683883   -6.117581   -1.806507
    158          6           0        0.687243   -5.621558   -2.230389
    159          8           0        1.285042   -4.728394   -1.592976
    160          8           0        1.284088   -6.160304   -3.195235
    161          1           0       -3.953044   -6.473852   -1.251750
    162          1           0       -2.320349   -7.769493   -0.713957
    163          1           0       -0.186372   -6.606530    0.187963
    164          1           0       -1.181323   -5.084316    0.009262
    165          1           0       -1.409952   -5.509887   -2.356899
    166          1           0       -0.793116   -7.163473   -2.093522
    167          7           0       -3.394625   -8.179078    1.691593
    168          6           0       -3.683093   -8.594043    3.052215
    169          1           0       -4.525584   -8.018773    3.436440
    170          1           0       -3.933211   -9.655338    3.064171
    171          1           0       -2.808714   -8.418613    3.679110
    172          1           0       -4.019934   -8.348752    0.914162
    173         20           0        3.561064   -4.813887   -2.663309
    174          8           0        3.617232   -6.525695   -0.603029
    175          1           0        3.228555   -7.381932   -0.780763
    176          1           0        3.567160   -6.430987    0.345403
 ---------------------------------------------------------------------

 SCF Done:  E(RB3LYP) =  -5333.39399575     A.U. after   27 cycles

 The electronic state is 1-A.
 Alpha  occ. eigenvalues -- -145.41781 -19.17263 -19.15144 -19.11750 -19.09056
 Alpha  occ. eigenvalues --  -19.08608 -19.08436 -19.08004 -19.07428 -19.07420
 Alpha  occ. eigenvalues --  -19.07305 -19.07159 -19.06964 -19.06404 -19.06380
 Alpha  occ. eigenvalues --  -19.06289 -19.06148 -19.05778 -19.05397 -19.05011
 Alpha  occ. eigenvalues --  -19.04045 -19.03959 -18.97530 -18.96285 -15.47773
 Alpha  occ. eigenvalues --  -14.59100 -14.35674 -14.35283 -14.34792 -14.34612
 Alpha  occ. eigenvalues --  -14.34011 -14.33747 -14.33580 -14.33416 -14.32534
 Alpha  occ. eigenvalues --  -14.32461 -14.32119 -14.30646 -14.30391 -14.29646
 Alpha  occ. eigenvalues --  -12.61371 -12.61345 -12.61263 -10.34302 -10.28260
 Alpha  occ. eigenvalues --  -10.27382 -10.27367 -10.27109 -10.26687 -10.26642
 Alpha  occ. eigenvalues --  -10.26332 -10.25855 -10.25616 -10.25260 -10.25076
 Alpha  occ. eigenvalues --  -10.25059 -10.24904 -10.24809 -10.24516 -10.24481
 Alpha  occ. eigenvalues --  -10.24034 -10.23814 -10.23709 -10.23685 -10.23605
 Alpha  occ. eigenvalues --  -10.23246 -10.22845 -10.21886 -10.21572 -10.21517
 Alpha  occ. eigenvalues --  -10.20983 -10.20633 -10.20473 -10.20167 -10.19832
 Alpha  occ. eigenvalues --  -10.19493 -10.18993 -10.18936 -10.18749 -10.18707
 Alpha  occ. eigenvalues --  -10.18247 -10.18203 -10.17849 -10.17749 -10.17625
 Alpha  occ. eigenvalues --  -10.17320 -10.16831 -10.16494 -10.15951 -10.15875
 Alpha  occ. eigenvalues --  -10.15758 -10.15345 -10.14994 -10.14720 -10.14446
 Alpha  occ. eigenvalues --  -10.14179 -10.12945  -1.84614  -1.14264  -1.12133
 Alpha  occ. eigenvalues --   -1.11916  -1.11542  -1.03847  -1.03261  -1.03240
 Alpha  occ. eigenvalues --   -1.01906  -1.01690  -1.01422  -1.01214  -1.01016
 Alpha  occ. eigenvalues --   -1.00452  -1.00099  -1.00069  -0.99951  -0.99812
 Alpha  occ. eigenvalues --   -0.99624  -0.99412  -0.98973  -0.98334  -0.97921
 Alpha  occ. eigenvalues --   -0.97440  -0.92475  -0.91959  -0.91838  -0.91497
 Alpha  occ. eigenvalues --   -0.91214  -0.90793  -0.90662  -0.90415  -0.90291
 Alpha  occ. eigenvalues --   -0.89801  -0.89675  -0.89369  -0.88658  -0.88532
 Alpha  occ. eigenvalues --   -0.88201  -0.87781  -0.87674  -0.84427  -0.84366
 Alpha  occ. eigenvalues --   -0.81623  -0.81461  -0.80017  -0.78092  -0.77270
 Alpha  occ. eigenvalues --   -0.77242  -0.76891  -0.76445  -0.75097  -0.74499
 Alpha  occ. eigenvalues --   -0.74186  -0.74100  -0.73890  -0.73463  -0.72723
 Alpha  occ. eigenvalues --   -0.72267  -0.71983  -0.71294  -0.70604  -0.70250
 Alpha  occ. eigenvalues --   -0.69427  -0.68523  -0.68424  -0.66642  -0.65669
 Alpha  occ. eigenvalues --   -0.64802  -0.64430  -0.63760  -0.63465  -0.62697
 Alpha  occ. eigenvalues --   -0.62515  -0.61975  -0.61506  -0.60878  -0.60517
 Alpha  occ. eigenvalues --   -0.60394  -0.59747  -0.59249  -0.58492  -0.58275
 Alpha  occ. eigenvalues --   -0.58009  -0.57540  -0.57084  -0.56899  -0.56797
 Alpha  occ. eigenvalues --   -0.56521  -0.56434  -0.56334  -0.55570  -0.55316
 Alpha  occ. eigenvalues --   -0.54941  -0.54561  -0.54549  -0.54268  -0.54093
 Alpha  occ. eigenvalues --   -0.53612  -0.53348  -0.53166  -0.52638  -0.52041
 Alpha  occ. eigenvalues --   -0.51816  -0.51242  -0.50840  -0.50533  -0.50127
 Alpha  occ. eigenvalues --   -0.49957  -0.49159  -0.48920  -0.48845  -0.48670
 Alpha  occ. eigenvalues --   -0.48383  -0.48235  -0.47820  -0.47177  -0.46620
 Alpha  occ. eigenvalues --   -0.46455  -0.46397  -0.46162  -0.45875  -0.45586
 Alpha  occ. eigenvalues --   -0.45419  -0.45307  -0.45282  -0.45200  -0.44591
 Alpha  occ. eigenvalues --   -0.44518  -0.44471  -0.44414  -0.44258  -0.44065
 Alpha  occ. eigenvalues --   -0.43983  -0.43853  -0.43689  -0.43499  -0.43308
 Alpha  occ. eigenvalues --   -0.43226  -0.43023  -0.42867  -0.42507  -0.42464
 Alpha  occ. eigenvalues --   -0.42369  -0.42156  -0.41759  -0.41475  -0.41450
 Alpha  occ. eigenvalues --   -0.41236  -0.41031  -0.40741  -0.40694  -0.40633
 Alpha  occ. eigenvalues --   -0.40530  -0.40334  -0.40164  -0.40026  -0.39849
 Alpha  occ. eigenvalues --   -0.39818  -0.39623  -0.39566  -0.39430  -0.39286
 Alpha  occ. eigenvalues --   -0.39155  -0.39123  -0.38873  -0.38598  -0.38510
 Alpha  occ. eigenvalues --   -0.38257  -0.38199  -0.38091  -0.38070  -0.37898
 Alpha  occ. eigenvalues --   -0.37665  -0.37528  -0.37272  -0.37185  -0.37131
 Alpha  occ. eigenvalues --   -0.36988  -0.36909  -0.36770  -0.36630  -0.36320
 Alpha  occ. eigenvalues --   -0.36117  -0.36079  -0.35867  -0.35668  -0.35621
 Alpha  occ. eigenvalues --   -0.35498  -0.35331  -0.35136  -0.34964  -0.34910
 Alpha  occ. eigenvalues --   -0.34612  -0.34531  -0.34514  -0.34417  -0.34008
 Alpha  occ. eigenvalues --   -0.33935  -0.33890  -0.33782  -0.33553  -0.33214
 Alpha  occ. eigenvalues --   -0.33190  -0.32998  -0.32889  -0.32740  -0.32641
 Alpha  occ. eigenvalues --   -0.32552  -0.32503  -0.32302  -0.32104  -0.32068
 Alpha  occ. eigenvalues --   -0.31843  -0.31392  -0.31305  -0.30877  -0.30580
 Alpha  occ. eigenvalues --   -0.29917  -0.28651  -0.27532  -0.27301  -0.26875
 Alpha  occ. eigenvalues --   -0.26703  -0.26344  -0.26093  -0.25955  -0.25757
 Alpha  occ. eigenvalues --   -0.25615  -0.25385  -0.24937  -0.24807  -0.24326
 Alpha  occ. eigenvalues --   -0.24200  -0.24118  -0.23991  -0.23899  -0.23827
 Alpha  occ. eigenvalues --   -0.23472  -0.23034  -0.22671  -0.22632  -0.22572
 Alpha  occ. eigenvalues --   -0.22411  -0.22236  -0.22123  -0.22040  -0.22004
 Alpha  occ. eigenvalues --   -0.21809  -0.21622  -0.21581  -0.21455  -0.21264
 Alpha  occ. eigenvalues --   -0.21200  -0.20810  -0.20585  -0.20045  -0.19864
 Alpha  occ. eigenvalues --   -0.14898  -0.14306  -0.12041
 Alpha virt. eigenvalues --   -0.11063  -0.05899  -0.05053  -0.04505  -0.01526
 Alpha virt. eigenvalues --   -0.01518   0.00523   0.01201   0.01997   0.02149
 Alpha virt. eigenvalues --    0.02224   0.02536   0.02736   0.03116   0.03167

 Mulliken charges:
               1
     1  C    0.044006
     2  C    0.015086
     3  O   -0.332096
     4  H    0.037080
     5  H    0.026508
     6  H   -0.000714
     7  N   -0.101859
     8  C    0.171861
     9  C   -0.007724
    10  O   -0.273280
    11  C    0.046969
    12  C    0.060533
    13  O   -0.384004
    14  O   -0.368652
    15  H    0.116843
    16  H   -0.052262
    17  H   -0.010921
    18  H    0.010445
    19  N   -0.139689
    20  C    0.169027
    21  C    0.058839
    22  O   -0.305953
    23  C    0.024559
    24  C    0.044475
    25  C   -0.084621
    26  C    0.008405
    27  N    0.125869
    28  H    0.121463
    29  H    0.001498
    30  H    0.012797
    31  H    0.005784
    32  H    0.030287
    33  H    0.002392
    34  H   -0.000524
    35  H    0.027618
    36  H    0.094223
    37  H    0.080033
    38  H    0.163113
    39  H    0.173571
    40  H    0.164612
    41  N   -0.101642
    42  C    0.071212
    43  C    0.067567
    44  O   -0.243885
    45  C    0.092454
    46  C    0.143030
    47  O   -0.456716
    48  O   -0.448755
    49  H    0.157163
    50  H    0.025095
    51  H    0.059120
    52  H    0.033029
    53  N   -0.156951
    54  C    0.250727
    55  C    0.019577
    56  O   -0.270978
    57  H    0.131369
    58  H    0.009632
    59  H    0.001566
    60  N   -0.162370
    61  C    0.105813
    62  C    0.072954
    63  O   -0.294588
    64  C    0.087043
    65  C    0.003525
    66  N   -0.046034
    67  O   -0.246018
    68  H    0.130149
    69  H    0.062713
    70  H    0.035491
    71  H   -0.007839
    72  H    0.121451
    73  H    0.138053
    74  N   -0.117048
    75  C    0.249604
    76  C    0.025417
    77  O   -0.307371
    78  H    0.099783
    79  H    0.004975
    80  H    0.041999
    81  N   -0.117147
    82  C    0.083559
    83  C    0.092982
    84  O   -0.307390
    85  C    0.149916
    86  C   -0.053226
    87  C    0.010269
    88  C   -0.019434
    89  C   -0.025553
    90  C   -0.048597
    91  C    0.192876
    92  O   -0.211617
    93  H    0.117990
    94  H    0.010895
    95  H    0.003225
    96  H    0.013670
    97  H   -0.004919
    98  H   -0.034940
    99  H   -0.012284
   100  H   -0.038358
   101  H    0.176949
   102  N   -0.111578
   103  C    0.214121
   104  C    0.057605
   105  O   -0.270869
   106  C   -0.114570
   107  C    0.026690
   108  C    0.064796
   109  C    0.014528
   110  H    0.148713
   111  H   -0.007836
   112  H   -0.028150
   113  H    0.010783
   114  H   -0.014160
   115  H    0.005943
   116  H    0.002998
   117  H    0.024795
   118  H    0.007342
   119  H    0.003338
   120  H    0.005891
   121  N   -0.121923
   122  C    0.128254
   123  C    0.028201
   124  O   -0.262182
   125  C    0.205536
   126  O   -0.310189
   127  H    0.146014
   128  H    0.022474
   129  H   -0.021427
   130  H    0.006287
   131  H    0.162890
   132  N   -0.106784
   133  C    0.032843
   134  C    0.082921
   135  O   -0.280599
   136  C    0.083548
   137  H    0.109610
   138  H    0.023114
   139  H    0.008968
   140  H   -0.020004
   141  H    0.025099
   142  N   -0.111409
   143  C    0.040260
   144  C    0.059800
   145  O   -0.261105
   146  C    0.103802
   147  H    0.141647
   148  H   -0.018884
   149  H   -0.007409
   150  H    0.040909
   151  H    0.036400
   152  N   -0.135852
   153  C    0.045754
   154  C    0.096381
   155  O   -0.259024
   156  C    0.082805
   157  C    0.063185
   158  C    0.096014
   159  O   -0.418207
   160  O   -0.450473
   161  H    0.120227
   162  H   -0.017926
   163  H   -0.015658
   164  H    0.067954
   165  H    0.012413
   166  H   -0.032767
   167  N   -0.156119
   168  C    0.131376
   169  H    0.026686
   170  H    0.005982
   171  H    0.049909
   172  H    0.100366
   173  Ca   1.363917
   174  O   -0.298752
   175  H    0.180004
   176  H    0.199981
 Sum of Mulliken charges =  -0.00000

 Dipole moment (field-independent basis, Debye):
    X=             38.3112    Y=             -7.3511    Z=             -2.2073  Tot=             39.0725
 Quadrupole moment (field-independent basis, Debye-Ang):
   XX=             98.5251   YY=           -509.0465   ZZ=           -539.0567
   XY=           -201.5284   XZ=             77.9785   YZ=            -43.9120

 ESP charges:
               1
     1  C   -0.462003
     2  C    0.812998
     3  O   -0.665601
     4  H    0.126544
     5  H    0.117439
     6  H    0.095521
     7  N   -0.621325
     8  C    0.119165
     9  C    0.596635
    10  O   -0.537101
    11  C   -0.103558
    12  C    0.747246
    13  O   -0.700768
    14  O   -0.690862
    15  H    0.313353
    16  H    0.028209
    17  H   -0.029408
    18  H    0.054111
    19  N   -0.734165
    20  C    0.380922
    21  C    0.432847
    22  O   -0.548935
    23  C   -0.158738
    24  C    0.108398
    25  C    0.116202
    26  C    0.062069
    27  N   -0.359549
    28  H    0.320180
    29  H    0.014189
    30  H    0.019712
    31  H    0.038291
    32  H    0.005671
    33  H   -0.000995
    34  H   -0.057644
    35  H    0.010423
    36  H    0.072317
    37  H    0.044597
    38  H    0.309398
    39  H    0.309144
    40  H    0.313457
    41  N   -0.582702
    42  C    0.454906
    43  C    0.325990
    44  O   -0.468090
    45  C   -0.337039
    46  C    0.750355
    47  O   -0.795578
    48  O   -0.743783
    49  H    0.351185
    50  H    0.006297
    51  H    0.134280
    52  H    0.131950
    53  N   -0.308415
    54  C   -0.015480
    55  C    0.527908
    56  O   -0.505781
    57  H    0.250793
    58  H    0.035504
    59  H    0.057977
    60  N   -0.477815
    61  C    0.066478
    62  C    0.430979
    63  O   -0.500236
    64  C   -0.371357
    65  C    0.746378
    66  N   -0.817251
    67  O   -0.555998
    68  H    0.312229
    69  H    0.142437
    70  H    0.140892
    71  H    0.094650
    72  H    0.370291
    73  H    0.380953
    74  N   -0.233678
    75  C   -0.202163
    76  C    0.735951
    77  O   -0.581676
    78  H    0.212275
    79  H    0.082613
    80  H    0.129928
    81  N   -0.758706
    82  C    0.201989
    83  C    0.559900
    84  O   -0.595836
    85  C   -0.323228
    86  C    0.082134
    87  C   -0.087256
    88  C   -0.075870
    89  C   -0.331512
    90  C   -0.418160
    91  C    0.482503
    92  O   -0.591974
    93  H    0.363705
    94  H    0.073670
    95  H    0.129007
    96  H    0.100500
    97  H    0.141084
    98  H    0.129465
    99  H    0.174434
   100  H    0.166164
   101  H    0.421317
   102  N   -0.443961
   103  C   -0.486530
   104  C    0.804234
   105  O   -0.549460
   106  C    0.521887
   107  C    0.197708
   108  C   -0.388439
   109  C   -0.340020
   110  H    0.365493
   111  H    0.149260
   112  H   -0.128937
   113  H   -0.012363
   114  H   -0.031098
   115  H    0.085805
   116  H    0.095270
   117  H    0.066161
   118  H    0.090741
   119  H    0.045622
   120  H    0.067165
   121  N   -0.351396
   122  C   -0.141131
   123  C    0.386166
   124  O   -0.473198
   125  C    0.226589
   126  O   -0.635381
   127  H    0.345280
   128  H    0.150543
   129  H    0.004931
   130  H    0.031902
   131  H    0.409638
   132  N   -0.389013
   133  C    0.621349
   134  C    0.232945
   135  O   -0.496454
   136  C   -0.380374
   137  H    0.177458
   138  H   -0.061921
   139  H    0.081414
   140  H    0.044562
   141  H    0.099211
   142  N   -0.271006
   143  C    0.470487
   144  C    0.454718
   145  O   -0.475076
   146  C   -0.449048
   147  H    0.061837
   148  H   -0.058724
   149  H    0.089783
   150  H    0.130046
   151  H    0.151021
   152  N   -0.543618
   153  C    0.034121
   154  C    0.464469
   155  O   -0.480754
   156  C   -0.016900
   157  C    0.126448
   158  C    0.692820
   159  O   -0.728104
   160  O   -0.815521
   161  H    0.299452
   162  H    0.054733
   163  H   -0.028489
   164  H    0.074055
   165  H   -0.017121
   166  H   -0.047126
   167  N   -0.369165
   168  C    0.032330
   169  H    0.050279
   170  H    0.016247
   171  H    0.066877
   172  H    0.247026
   173  Ca   1.651570
   174  O   -0.858835
   175  H    0.421812
   176  H    0.459825
 Sum of ESP charges =  -0.00000

 Normal termination of Gaussian 16 at Mon Sep 16 23:36:26 2019.
