 Gaussian 16, Revision A.03,
 Gaussian 16:  ES64L-G16RevA.03 25-Dec-2016

 ----------------------------------------------------------------------
 #b3lyp/svp scf=(tight,noincore) Test #IOP(5/87=12) Density=Current Pop
 =(MK,readradii) iop(6/33=2) iop(6/42=6)
 ----------------------------------------------------------------------

 -----------------
 Ng-293_loop3_27.0
 -----------------
 Symbolic Z-matrix:
 Charge =  0 Multiplicity = 1

                         Standard orientation:
 ---------------------------------------------------------------------
 Center     Atomic      Atomic             Coordinates (Angstroms)
 Number     Number       Type             X           Y           Z
 ---------------------------------------------------------------------
      1          6           0       -8.202587   -1.882928    6.935582
      2          6           0       -8.769541   -1.821537    5.519463
      3          8           0       -9.946968   -1.490848    5.360682
      4          1           0       -7.314260   -2.514520    6.943262
      5          1           0       -7.936842   -0.878947    7.265533
      6          1           0       -8.950805   -2.301355    7.609231
      7          7           0       -8.004571   -2.097990    4.475148
      8          6           0       -8.472041   -2.026194    3.106931
      9          6           0       -7.373735   -1.438971    2.220255
     10          8           0       -6.226750   -1.366843    2.647013
     11          6           0       -8.936367   -3.416812    2.692828
     12          6           0       -9.508947   -3.511518    1.286811
     13          8           0      -10.197982   -2.553669    0.875161
     14          8           0       -9.370673   -4.579467    0.640850
     15          1           0       -7.039992   -2.293191    4.708352
     16          1           0       -9.296451   -1.308387    3.107898
     17          1           0       -9.660538   -3.845310    3.379681
     18          1           0       -8.058620   -4.068625    2.692010
     19          7           0       -7.763519   -1.027274    1.019766
     20          6           0       -6.878564   -0.494597   -0.006932
     21          6           0       -5.966784   -1.484474   -0.708502
     22          8           0       -6.027652   -2.660463   -0.343339
     23          6           0       -6.207911    0.771489    0.498390
     24          6           0       -7.162578    1.811477    1.069386
     25          6           0       -8.184507    2.321490    0.056051
     26          6           0       -8.639331    3.727638    0.465543
     27          7           0       -9.580810    3.625312    1.587125
     28          1           0       -8.733985   -1.139483    0.794588
     29          1           0       -7.545688   -0.302012   -0.857318
     30          1           0       -5.691586    1.189568   -0.366202
     31          1           0       -5.414298    0.483107    1.186224
     32          1           0       -6.516942    2.671119    1.289091
     33          1           0       -7.711391    1.568069    1.971859
     34          1           0       -8.997821    1.636794   -0.176995
     35          1           0       -7.670091    2.365543   -0.907035
     36          1           0       -9.231681    4.077981   -0.380259
     37          1           0       -7.753036    4.332248    0.650011
     38          1           0       -9.178441    3.404155    2.482104
     39          1           0       -9.978646    4.549670    1.701099
     40          1           0      -10.338119    2.964810    1.462143
     41          7           0       -5.143790   -1.017097   -1.640349
     42          6           0       -4.147079   -1.763376   -2.381250
     43          6           0       -2.895857   -1.824973   -1.517740
     44          8           0       -1.804149   -1.306724   -1.711885
     45          6           0       -4.002384   -1.319393   -3.834502
     46          6           0       -3.878219    0.186972   -4.058437
     47          8           0       -3.534837    0.992385   -3.172097
     48          8           0       -3.967708    0.674056   -5.203793
     49          1           0       -5.246185   -0.057821   -1.940857
     50          1           0       -4.380773   -2.835154   -2.412535
     51          1           0       -4.877504   -1.708024   -4.347952
     52          1           0       -3.189767   -1.814298   -4.377111
     53          7           0       -3.068969   -2.524044   -0.398887
     54          6           0       -2.038287   -2.946989    0.529344
     55          6           0       -1.132883   -4.095999    0.107303
     56          8           0       -0.780789   -4.967257    0.897202
     57          1           0       -4.006889   -2.827300   -0.142877
     58          1           0       -2.524034   -3.132382    1.482381
     59          1           0       -1.329407   -2.135247    0.667773
     60          7           0       -0.840525   -4.177805   -1.191864
     61          6           0        0.083788   -5.153908   -1.742924
     62          6           0        1.288041   -4.534571   -2.430744
     63          8           0        1.241963   -3.408243   -2.919989
     64          6           0       -0.611669   -6.111008   -2.704330
     65          6           0       -1.536711   -7.143773   -2.072354
     66          7           0       -2.746744   -7.346544   -2.602828
     67          8           0       -1.212911   -7.771417   -1.067856
     68          1           0       -1.220687   -3.547747   -1.883604
     69          1           0        0.467432   -5.678096   -0.868485
     70          1           0        0.151983   -6.708878   -3.202211
     71          1           0       -1.120932   -5.561237   -3.500888
     72          1           0       -3.086504   -6.854921   -3.421467
     73          1           0       -3.335529   -7.953860   -2.049746
     74          7           0        2.379888   -5.314024   -2.403824
     75          6           0        3.730858   -4.859747   -2.640280
     76          6           0        4.384824   -4.199999   -1.436261
     77          8           0        3.678306   -4.052499   -0.441487
     78          1           0        2.284244   -6.195481   -1.921864
     79          1           0        3.630979   -4.134703   -3.450424
     80          1           0        4.448921   -5.615102   -2.973783
     81          7           0        5.695982   -3.941407   -1.422273
     82          6           0        6.683495   -3.426325   -0.505862
     83          6           0        6.354803   -2.089367    0.161899
     84          8           0        7.223105   -1.510616    0.788077
     85          6           0        7.083273   -4.476068    0.522299
     86          6           0        8.439065   -4.230718    1.158326
     87          6           0        8.495243   -3.885212    2.509315
     88          6           0        9.648787   -4.388600    0.471415
     89          6           0        9.754519   -3.686011    3.101127
     90          6           0       10.890128   -4.062699    1.031201
     91          6           0       10.965925   -3.766437    2.404330
     92          8           0       12.113115   -3.325111    2.992620
     93          1           0        6.123198   -4.093718   -2.320264
     94          1           0        7.576481   -3.301105   -1.122544
     95          1           0        7.310417   -5.407000   -0.006068
     96          1           0        6.275223   -4.567121    1.239073
     97          1           0        7.588403   -3.765749    3.068216
     98          1           0        9.649568   -4.708119   -0.565121
     99          1           0        9.578044   -3.412379    4.132574
    100          1           0       11.828988   -4.095962    0.495630
    101          1           0       12.813762   -3.256489    2.334680
    102          7           0        5.105934   -1.616268    0.085066
    103          6           0        4.545289   -0.339695    0.462739
    104          6           0        5.225883    0.860385   -0.194756
    105          8           0        4.620341    1.612158   -0.962582
    106          6           0        4.328531   -0.186100    1.962981
    107          6           0        3.449789   -1.283530    2.581738
    108          6           0        3.746150    1.177874    2.283306
    109          6           0        2.178715   -1.815492    1.919705
    110          1           0        4.445198   -2.263285   -0.312297
    111          1           0        3.552122   -0.317876    0.009260
    112          1           0        5.284994   -0.214783    2.487914
    113          1           0        3.244383   -1.019871    3.621157
    114          1           0        4.084243   -2.154209    2.716220
    115          1           0        4.370273    2.034756    2.032660
    116          1           0        2.765974    1.186236    1.797421
    117          1           0        3.650294    1.119538    3.367653
    118          1           0        2.484043   -2.208568    0.955565
    119          1           0        1.603352   -2.551877    2.485474
    120          1           0        1.475983   -1.016689    1.685866
    121          7           0        6.538725    1.011211   -0.033513
    122          6           0        7.223387    2.192472   -0.524187
    123          6           0        6.727499    3.580308   -0.123553
    124          8           0        6.839268    4.540292   -0.887778
    125          6           0        8.700232    2.031594   -0.207886
    126          8           0        8.797247    1.913622    1.200720
    127          1           0        7.047593    0.431797    0.611647
    128          1           0        7.065801    2.107114   -1.604178
    129          1           0        9.330742    2.813970   -0.616354
    130          1           0        9.084988    1.072896   -0.562796
    131          1           0        9.595620    1.440612    1.424021
    132          7           0        6.138094    3.629668    1.073095
    133          6           0        5.657999    4.840579    1.698558
    134          6           0        4.552901    5.465887    0.866303
    135          8           0        4.461870    6.688316    0.748062
    136          6           0        6.824920    5.763493    2.057756
    137          1           0        6.071222    2.791469    1.625771
    138          1           0        5.132625    4.514597    2.595340
    139          1           0        6.268689    6.463187    2.670567
    140          1           0        7.547591    5.235604    2.677740
    141          1           0        7.212970    6.200536    1.127697
    142          7           0        3.587224    4.677561    0.402288
    143          6           0        2.461857    4.961726   -0.466158
    144          6           0        1.173212    5.295391    0.279673
    145          8           0        0.538158    4.446471    0.914528
    146          6           0        2.169748    3.672137   -1.232730
    147          1           0        3.640383    3.697647    0.623740
    148          1           0        2.819325    5.762243   -1.102703
    149          1           0        1.980925    2.835268   -0.569031
    150          1           0        1.243067    3.713207   -1.797155
    151          1           0        2.971911    3.455779   -1.941478
    152          7           0        0.596749    6.458998   -0.017998
    153          6           0       -0.809073    6.746168    0.181750
    154          6           0       -1.111060    6.835330    1.668408
    155          8           0       -2.295144    6.742981    1.997372
    156          6           0       -1.621536    5.862378   -0.761340
    157          6           0       -1.188604    5.897673   -2.231757
    158          6           0       -2.010385    4.978877   -3.127016
    159          8           0       -2.736951    5.443880   -4.027945
    160          8           0       -1.910476    3.746055   -2.926841
    161          1           0        1.107341    7.132540   -0.571293
    162          1           0       -0.923474    7.784866   -0.125691
    163          1           0       -2.668172    6.141380   -0.685766
    164          1           0       -1.598604    4.848888   -0.352914
    165          1           0       -0.121376    5.683813   -2.289095
    166          1           0       -1.292811    6.876953   -2.689416
    167          7           0       -0.089890    6.926363    2.515182
    168          6           0       -0.148955    6.737469    3.958556
    169          1           0        0.072529    5.697541    4.197728
    170          1           0        0.584079    7.384655    4.440376
    171          1           0       -1.147313    6.987112    4.318094
    172          1           0        0.828321    7.045844    2.120831
    173         20           0       -3.778598    3.120239   -4.668699
    174          8           0       -1.421174    2.771839   -5.631076
    175          1           0       -1.248543    2.628375   -6.563822
    176          1           0       -0.644253    3.222086   -5.309095
 ---------------------------------------------------------------------

 SCF Done:  E(RB3LYP) =  -5333.39119509     A.U. after   27 cycles

 The electronic state is 1-A.
 Alpha  occ. eigenvalues -- -145.44942 -19.18668 -19.16791 -19.13951 -19.11727
 Alpha  occ. eigenvalues --  -19.10835 -19.09610 -19.09410 -19.09192 -19.08946
 Alpha  occ. eigenvalues --  -19.08855 -19.08784 -19.08428 -19.08089 -19.07802
 Alpha  occ. eigenvalues --  -19.07678 -19.07325 -19.07277 -19.07252 -19.06770
 Alpha  occ. eigenvalues --  -19.06492 -19.04023 -18.96771 -18.95570 -15.50948
 Alpha  occ. eigenvalues --  -14.57723 -14.38414 -14.36324 -14.35888 -14.35572
 Alpha  occ. eigenvalues --  -14.35347 -14.34743 -14.34453 -14.34275 -14.34000
 Alpha  occ. eigenvalues --  -14.33532 -14.32747 -14.32300 -14.32064 -14.30668
 Alpha  occ. eigenvalues --  -12.64548 -12.64518 -12.64426 -10.34877 -10.30825
 Alpha  occ. eigenvalues --  -10.29624 -10.28077 -10.27918 -10.27834 -10.27805
 Alpha  occ. eigenvalues --  -10.27632 -10.27379 -10.27037 -10.26992 -10.26990
 Alpha  occ. eigenvalues --  -10.26757 -10.26669 -10.26104 -10.25823 -10.25611
 Alpha  occ. eigenvalues --  -10.25483 -10.25329 -10.24910 -10.24304 -10.23779
 Alpha  occ. eigenvalues --  -10.23656 -10.23475 -10.23267 -10.23103 -10.22905
 Alpha  occ. eigenvalues --  -10.22826 -10.22578 -10.22525 -10.22010 -10.21595
 Alpha  occ. eigenvalues --  -10.20732 -10.20580 -10.20055 -10.19900 -10.19808
 Alpha  occ. eigenvalues --  -10.19742 -10.19706 -10.19448 -10.19024 -10.18858
 Alpha  occ. eigenvalues --  -10.18610 -10.17918 -10.17896 -10.17843 -10.17716
 Alpha  occ. eigenvalues --  -10.17159 -10.16908 -10.16422 -10.16208 -10.15882
 Alpha  occ. eigenvalues --  -10.15808 -10.10716  -1.87877  -1.15499  -1.15102
 Alpha  occ. eigenvalues --   -1.14745  -1.13164  -1.05587  -1.05394  -1.04721
 Alpha  occ. eigenvalues --   -1.04432  -1.04280  -1.03137  -1.03102  -1.02451
 Alpha  occ. eigenvalues --   -1.02317  -1.02228  -1.02028  -1.01506  -1.00734
 Alpha  occ. eigenvalues --   -1.00543  -1.00482  -1.00285  -0.99774  -0.99431
 Alpha  occ. eigenvalues --   -0.97479  -0.95587  -0.92956  -0.92889  -0.92672
 Alpha  occ. eigenvalues --   -0.92671  -0.92417  -0.92338  -0.92093  -0.91213
 Alpha  occ. eigenvalues --   -0.90848  -0.90372  -0.90197  -0.90112  -0.89772
 Alpha  occ. eigenvalues --   -0.88721  -0.88446  -0.88245  -0.87139  -0.85511
 Alpha  occ. eigenvalues --   -0.81861  -0.81566  -0.80651  -0.80633  -0.78807
 Alpha  occ. eigenvalues --   -0.78678  -0.78182  -0.77726  -0.75973  -0.75724
 Alpha  occ. eigenvalues --   -0.75576  -0.74641  -0.74510  -0.73399  -0.73070
 Alpha  occ. eigenvalues --   -0.72722  -0.72527  -0.72206  -0.71914  -0.70997
 Alpha  occ. eigenvalues --   -0.70871  -0.69193  -0.68987  -0.68252  -0.67693
 Alpha  occ. eigenvalues --   -0.66777  -0.66058  -0.65388  -0.64512  -0.63678
 Alpha  occ. eigenvalues --   -0.63504  -0.63073  -0.62756  -0.62299  -0.61992
 Alpha  occ. eigenvalues --   -0.61464  -0.61074  -0.60348  -0.59937  -0.59577
 Alpha  occ. eigenvalues --   -0.59522  -0.59241  -0.58476  -0.58352  -0.57922
 Alpha  occ. eigenvalues --   -0.57845  -0.57364  -0.57041  -0.56803  -0.56717
 Alpha  occ. eigenvalues --   -0.56476  -0.55947  -0.55670  -0.55403  -0.54954
 Alpha  occ. eigenvalues --   -0.54724  -0.54056  -0.53849  -0.53767  -0.53599
 Alpha  occ. eigenvalues --   -0.53384  -0.52927  -0.52888  -0.52475  -0.52021
 Alpha  occ. eigenvalues --   -0.51407  -0.51154  -0.50994  -0.50842  -0.50467
 Alpha  occ. eigenvalues --   -0.50339  -0.49373  -0.48829  -0.48795  -0.48086
 Alpha  occ. eigenvalues --   -0.48000  -0.47906  -0.47707  -0.47413  -0.47107
 Alpha  occ. eigenvalues --   -0.47061  -0.46714  -0.46593  -0.46371  -0.46266
 Alpha  occ. eigenvalues --   -0.46020  -0.45781  -0.45680  -0.45370  -0.45353
 Alpha  occ. eigenvalues --   -0.44800  -0.44726  -0.44572  -0.44557  -0.44425
 Alpha  occ. eigenvalues --   -0.44341  -0.44078  -0.44056  -0.43678  -0.43498
 Alpha  occ. eigenvalues --   -0.43373  -0.43184  -0.42934  -0.42718  -0.42691
 Alpha  occ. eigenvalues --   -0.42506  -0.42426  -0.42296  -0.42237  -0.42156
 Alpha  occ. eigenvalues --   -0.42012  -0.41884  -0.41581  -0.41487  -0.41385
 Alpha  occ. eigenvalues --   -0.41268  -0.40900  -0.40775  -0.40684  -0.40637
 Alpha  occ. eigenvalues --   -0.40483  -0.40285  -0.40236  -0.39952  -0.39871
 Alpha  occ. eigenvalues --   -0.39757  -0.39636  -0.39539  -0.39314  -0.39125
 Alpha  occ. eigenvalues --   -0.39057  -0.39030  -0.38968  -0.38802  -0.38489
 Alpha  occ. eigenvalues --   -0.38446  -0.38315  -0.38098  -0.38058  -0.37835
 Alpha  occ. eigenvalues --   -0.37755  -0.37558  -0.37457  -0.37324  -0.37159
 Alpha  occ. eigenvalues --   -0.37081  -0.36953  -0.36637  -0.36594  -0.36563
 Alpha  occ. eigenvalues --   -0.36245  -0.36071  -0.35993  -0.35894  -0.35751
 Alpha  occ. eigenvalues --   -0.35578  -0.35344  -0.35198  -0.35022  -0.34976
 Alpha  occ. eigenvalues --   -0.34870  -0.34623  -0.34605  -0.34196  -0.34130
 Alpha  occ. eigenvalues --   -0.33858  -0.33842  -0.33672  -0.33547  -0.33287
 Alpha  occ. eigenvalues --   -0.33124  -0.33005  -0.32493  -0.31612  -0.30708
 Alpha  occ. eigenvalues --   -0.30491  -0.29407  -0.28825  -0.28565  -0.28060
 Alpha  occ. eigenvalues --   -0.27625  -0.27509  -0.27100  -0.26980  -0.26937
 Alpha  occ. eigenvalues --   -0.26812  -0.26614  -0.26443  -0.26367  -0.26203
 Alpha  occ. eigenvalues --   -0.25984  -0.25883  -0.25797  -0.25747  -0.25691
 Alpha  occ. eigenvalues --   -0.25430  -0.25046  -0.24571  -0.24562  -0.24193
 Alpha  occ. eigenvalues --   -0.23809  -0.23746  -0.23711  -0.23531  -0.23443
 Alpha  occ. eigenvalues --   -0.23406  -0.23174  -0.23122  -0.22730  -0.22391
 Alpha  occ. eigenvalues --   -0.22350  -0.22080  -0.21283  -0.21165  -0.20108
 Alpha  occ. eigenvalues --   -0.13899  -0.13665  -0.11313
 Alpha virt. eigenvalues --   -0.10161  -0.09517  -0.03804  -0.03437  -0.02072
 Alpha virt. eigenvalues --   -0.01644  -0.01108  -0.01094  -0.00018   0.00186
 Alpha virt. eigenvalues --    0.01033   0.01201   0.01468   0.01732   0.01787

 Mulliken charges:
               1
     1  C    0.075369
     2  C   -0.018629
     3  O   -0.324913
     4  H   -0.003900
     5  H    0.021376
     6  H    0.030420
     7  N   -0.109297
     8  C    0.110544
     9  C    0.058081
    10  O   -0.297327
    11  C    0.114139
    12  C    0.042076
    13  O   -0.421930
    14  O   -0.355128
    15  H    0.109527
    16  H   -0.021461
    17  H    0.012381
    18  H   -0.025149
    19  N   -0.107376
    20  C    0.092634
    21  C    0.079777
    22  O   -0.247367
    23  C    0.076089
    24  C    0.041791
    25  C   -0.076902
    26  C    0.046882
    27  N    0.090023
    28  H    0.101856
    29  H   -0.011006
    30  H   -0.021220
    31  H    0.050038
    32  H    0.005942
    33  H    0.003968
    34  H    0.049233
    35  H    0.015123
    36  H    0.055144
    37  H    0.093092
    38  H    0.182493
    39  H    0.173870
    40  H    0.188449
    41  N   -0.127498
    42  C    0.109032
    43  C    0.031040
    44  O   -0.245621
    45  C    0.114510
    46  C    0.096174
    47  O   -0.392513
    48  O   -0.470865
    49  H    0.113463
    50  H    0.014435
    51  H    0.011045
    52  H    0.033654
    53  N   -0.172616
    54  C    0.240349
    55  C    0.033064
    56  O   -0.264549
    57  H    0.137058
    58  H    0.028519
    59  H    0.027875
    60  N   -0.137197
    61  C    0.076237
    62  C    0.078861
    63  O   -0.252575
    64  C    0.098607
    65  C    0.011663
    66  N   -0.050807
    67  O   -0.251225
    68  H    0.125038
    69  H    0.035791
    70  H    0.006009
    71  H   -0.021582
    72  H    0.114057
    73  H    0.138424
    74  N   -0.133944
    75  C    0.211349
    76  C    0.029030
    77  O   -0.285542
    78  H    0.126820
    79  H    0.038456
    80  H    0.018713
    81  N   -0.110857
    82  C    0.087217
    83  C    0.073704
    84  O   -0.285253
    85  C    0.167547
    86  C   -0.016101
    87  C   -0.005223
    88  C   -0.005985
    89  C   -0.031158
    90  C   -0.046636
    91  C    0.191024
    92  O   -0.195646
    93  H    0.113217
    94  H    0.012115
    95  H   -0.001655
    96  H    0.018223
    97  H   -0.033241
    98  H   -0.043820
    99  H   -0.025296
   100  H   -0.044481
   101  H    0.172886
   102  N   -0.106242
   103  C    0.187938
   104  C    0.005997
   105  O   -0.270581
   106  C   -0.096123
   107  C    0.011797
   108  C    0.065459
   109  C    0.010524
   110  H    0.135714
   111  H    0.009000
   112  H   -0.010457
   113  H   -0.013923
   114  H   -0.011330
   115  H   -0.025224
   116  H    0.036660
   117  H    0.003191
   118  H    0.017238
   119  H    0.031215
   120  H    0.009255
   121  N   -0.127919
   122  C    0.106566
   123  C    0.095068
   124  O   -0.268970
   125  C    0.221063
   126  O   -0.324546
   127  H    0.129596
   128  H    0.018494
   129  H    0.015558
   130  H   -0.003446
   131  H    0.168873
   132  N   -0.142521
   133  C    0.012383
   134  C    0.052676
   135  O   -0.286013
   136  C    0.111438
   137  H    0.126079
   138  H    0.012407
   139  H    0.007053
   140  H    0.004126
   141  H    0.053556
   142  N   -0.109648
   143  C    0.090360
   144  C    0.085172
   145  O   -0.275235
   146  C    0.046362
   147  H    0.125636
   148  H   -0.008939
   149  H    0.032501
   150  H    0.015134
   151  H    0.037731
   152  N   -0.175937
   153  C    0.123671
   154  C    0.055121
   155  O   -0.297049
   156  C    0.045616
   157  C    0.123285
   158  C    0.052509
   159  O   -0.437499
   160  O   -0.398149
   161  H    0.123502
   162  H   -0.000978
   163  H   -0.016607
   164  H    0.044939
   165  H   -0.013742
   166  H   -0.030467
   167  N   -0.128235
   168  C    0.129568
   169  H    0.033226
   170  H    0.015766
   171  H    0.032910
   172  H    0.120705
   173  Ca   1.345350
   174  O   -0.289025
   175  H    0.173356
   176  H    0.195429
 Sum of Mulliken charges =  -0.00000

 Dipole moment (field-independent basis, Debye):
    X=              2.9126    Y=             22.1469    Z=            -13.7919  Tot=             26.2523
 Quadrupole moment (field-independent basis, Debye-Ang):
   XX=           -486.2846   YY=           -585.9763   ZZ=           -482.0878
   XY=           -322.9702   XZ=             42.6858   YZ=             46.0001

 ESP charges:
               1
     1  C   -0.446584
     2  C    0.751225
     3  O   -0.613033
     4  H    0.100297
     5  H    0.108443
     6  H    0.129395
     7  N   -0.775124
     8  C    0.593737
     9  C    0.525149
    10  O   -0.561893
    11  C   -0.382519
    12  C    0.764959
    13  O   -0.736373
    14  O   -0.673428
    15  H    0.336053
    16  H   -0.083485
    17  H    0.119051
    18  H    0.053678
    19  N   -0.717986
    20  C    0.582695
    21  C    0.417616
    22  O   -0.480784
    23  C   -0.267015
    24  C    0.026731
    25  C    0.030101
    26  C   -0.059473
    27  N   -0.304809
    28  H    0.281554
    29  H   -0.031416
    30  H    0.046911
    31  H    0.103361
    32  H    0.040012
    33  H   -0.008572
    34  H    0.037635
    35  H    0.007321
    36  H    0.083455
    37  H    0.114313
    38  H    0.315913
    39  H    0.296677
    40  H    0.327043
    41  N   -0.511109
    42  C    0.411593
    43  C    0.384324
    44  O   -0.473474
    45  C   -0.314363
    46  C    0.714285
    47  O   -0.655942
    48  O   -0.771517
    49  H    0.165115
    50  H   -0.037742
    51  H    0.073492
    52  H    0.135840
    53  N   -0.287409
    54  C   -0.222249
    55  C    0.568981
    56  O   -0.518344
    57  H    0.273624
    58  H    0.134973
    59  H    0.117167
    60  N   -0.401507
    61  C    0.241123
    62  C    0.508476
    63  O   -0.492991
    64  C   -0.266868
    65  C    0.720870
    66  N   -0.860487
    67  O   -0.552617
    68  H    0.181805
    69  H    0.009239
    70  H    0.028996
    71  H    0.083374
    72  H    0.375932
    73  H    0.396505
    74  N   -0.451643
    75  C   -0.058441
    76  C    0.765184
    77  O   -0.547889
    78  H    0.307752
    79  H    0.072002
    80  H    0.067335
    81  N   -0.932089
    82  C    0.707497
    83  C    0.104066
    84  O   -0.436720
    85  C   -0.174139
    86  C    0.036377
    87  C   -0.187196
    88  C   -0.167941
    89  C   -0.195373
    90  C   -0.288013
    91  C    0.353454
    92  O   -0.541961
    93  H    0.351937
    94  H   -0.043893
    95  H    0.057608
    96  H    0.087933
    97  H    0.154314
    98  H    0.132883
    99  H    0.138755
   100  H    0.133560
   101  H    0.407734
   102  N   -0.337157
   103  C    0.106201
   104  C    0.318010
   105  O   -0.495415
   106  C    0.467174
   107  C   -0.103366
   108  C   -0.551395
   109  C   -0.072707
   110  H    0.269506
   111  H    0.043161
   112  H   -0.085022
   113  H    0.013457
   114  H    0.010442
   115  H    0.180646
   116  H    0.124422
   117  H    0.098666
   118  H    0.018904
   119  H    0.048191
   120  H    0.019858
   121  N    0.008894
   122  C   -0.515476
   123  C    0.778216
   124  O   -0.566414
   125  C    0.244206
   126  O   -0.642133
   127  H    0.182473
   128  H    0.170205
   129  H    0.045326
   130  H    0.014065
   131  H    0.427524
   132  N   -0.397802
   133  C    0.374014
   134  C    0.515579
   135  O   -0.575087
   136  C   -0.400014
   137  H    0.187984
   138  H   -0.021513
   139  H    0.078624
   140  H    0.101402
   141  H    0.125602
   142  N   -0.431559
   143  C    0.263642
   144  C    0.439213
   145  O   -0.446682
   146  C   -0.462725
   147  H    0.128579
   148  H    0.062197
   149  H    0.143694
   150  H    0.154848
   151  H    0.135455
   152  N   -0.597987
   153  C    0.089978
   154  C    0.473629
   155  O   -0.526640
   156  C   -0.120685
   157  C    0.243267
   158  C    0.574434
   159  O   -0.776504
   160  O   -0.688338
   161  H    0.314795
   162  H    0.049983
   163  H    0.008015
   164  H    0.097165
   165  H   -0.079391
   166  H   -0.036103
   167  N   -0.358137
   168  C   -0.005472
   169  H    0.064887
   170  H    0.039977
   171  H    0.059136
   172  H    0.284186
   173  Ca   1.580320
   174  O   -0.732892
   175  H    0.380950
   176  H    0.402498
 Sum of ESP charges =  -0.00000

 Normal termination of Gaussian 16 at Tue Sep 17 00:38:05 2019.
