 Gaussian 16, Revision A.03,
 Gaussian 16:  ES64L-G16RevA.03 25-Dec-2016

 ----------------------------------------------------------------------
 #b3lyp/svp scf=(tight,noincore) Test #IOP(5/87=12) Density=Current Pop
 =(MK,readradii) iop(6/33=2) iop(6/42=6)
 ----------------------------------------------------------------------

 -----------------
 Ng-293_loop3_52.0
 -----------------
 Symbolic Z-matrix:
 Charge =  0 Multiplicity = 1

                         Standard orientation:
 ---------------------------------------------------------------------
 Center     Atomic      Atomic             Coordinates (Angstroms)
 Number     Number       Type             X           Y           Z
 ---------------------------------------------------------------------
      1          6           0       -8.851670   -0.540632   -5.223683
      2          6           0       -8.445866    0.278846   -4.001071
      3          8           0       -7.520311   -0.132173   -3.301563
      4          1           0       -8.957452   -1.588117   -4.940497
      5          1           0       -9.802191   -0.171912   -5.609768
      6          1           0       -8.085261   -0.449010   -5.993889
      7          7           0       -8.973682    1.472148   -3.751191
      8          6           0       -8.803156    2.394039   -2.645009
      9          6           0       -9.319755    1.948322   -1.281132
     10          8           0       -9.843000    2.805388   -0.563252
     11          6           0       -7.355740    2.884554   -2.536008
     12          6           0       -7.231789    4.212961   -1.809530
     13          8           0       -6.951538    4.197732   -0.588167
     14          8           0       -7.291202    5.312270   -2.402481
     15          1           0       -9.674205    1.838069   -4.379101
     16          1           0       -9.434387    3.236484   -2.918202
     17          1           0       -6.903791    2.977513   -3.526412
     18          1           0       -6.709061    2.153769   -2.056676
     19          7           0       -9.520088    0.666147   -0.967452
     20          6           0       -9.922225    0.102122    0.301548
     21          6           0       -8.769730   -0.296034    1.217696
     22          8           0       -8.960200   -0.390428    2.423105
     23          6           0      -10.920402   -1.031322    0.075390
     24          6           0      -12.219835   -0.550490   -0.569881
     25          6           0      -13.240843   -1.651338   -0.829449
     26          6           0      -14.626308   -1.043324   -1.040412
     27          7           0      -15.426069   -0.726173    0.147821
     28          1           0       -9.153712    0.059461   -1.684042
     29          1           0      -10.539006    0.768219    0.897028
     30          1           0      -11.085755   -1.689285    0.929289
     31          1           0      -10.553777   -1.810632   -0.594284
     32          1           0      -11.975324   -0.154985   -1.554356
     33          1           0      -12.653722    0.161387    0.124866
     34          1           0      -13.399508   -2.370724   -0.031070
     35          1           0      -12.987600   -2.262225   -1.697311
     36          1           0      -15.092472   -1.812706   -1.652085
     37          1           0      -14.565297   -0.238058   -1.778059
     38          1           0      -15.578366   -1.575639    0.689220
     39          1           0      -15.082847    0.012954    0.751137
     40          1           0      -16.379944   -0.472224   -0.021096
     41          7           0       -7.578085   -0.529073    0.660852
     42          6           0       -6.424190   -0.808459    1.485394
     43          6           0       -5.274095   -0.052102    0.817782
     44          8           0       -5.196457   -0.024682   -0.411779
     45          6           0       -6.180033   -2.309590    1.604944
     46          6           0       -5.109110   -2.549883    2.659023
     47          8           0       -5.383688   -3.379583    3.563681
     48          8           0       -4.009120   -1.953754    2.578707
     49          1           0       -7.463889   -0.391295   -0.333370
     50          1           0       -6.505975   -0.430006    2.503178
     51          1           0       -5.778828   -2.732893    0.693270
     52          1           0       -7.108089   -2.851219    1.782565
     53          7           0       -4.494421    0.739293    1.559943
     54          6           0       -3.483031    1.680790    1.113880
     55          6           0       -2.103869    1.048425    1.098862
     56          8           0       -1.946782   -0.005335    1.705421
     57          1           0       -4.669390    0.755134    2.557006
     58          1           0       -3.406744    2.536276    1.788658
     59          1           0       -3.540055    2.031386    0.085128
     60          7           0       -1.083186    1.684905    0.519465
     61          6           0        0.281449    1.210159    0.470610
     62          6           0        1.316901    2.283836    0.783592
     63          8           0        2.499064    2.051669    0.997338
     64          6           0        0.543653    0.704772   -0.946970
     65          6           0       -0.338734   -0.450769   -1.408510
     66          7           0       -0.280814   -1.604114   -0.741547
     67          8           0       -1.010251   -0.402492   -2.437992
     68          1           0       -1.304705    2.561029    0.044032
     69          1           0        0.444351    0.372991    1.140842
     70          1           0        1.604970    0.478288   -0.950396
     71          1           0        0.326014    1.542384   -1.615281
     72          1           0        0.363321   -1.697018    0.038619
     73          1           0       -0.931772   -2.300246   -1.065669
     74          7           0        0.960439    3.569890    0.845232
     75          6           0        1.867101    4.637020    1.185965
     76          6           0        3.186168    4.596346    0.415441
     77          8           0        3.144077    4.834977   -0.786634
     78          1           0        0.042493    3.862598    0.545904
     79          1           0        2.044422    4.516137    2.257853
     80          1           0        1.378315    5.606407    1.038052
     81          7           0        4.306905    4.318600    1.075673
     82          6           0        5.592543    4.213314    0.408627
     83          6           0        5.818341    3.056067   -0.542527
     84          8           0        6.770251    3.002206   -1.308469
     85          6           0        6.013928    5.595368   -0.084384
     86          6           0        5.961744    6.731685    0.925250
     87          6           0        4.986923    7.708371    0.721517
     88          6           0        6.988299    6.893096    1.871787
     89          6           0        4.902555    8.788015    1.608056
     90          6           0        7.013207    8.035606    2.682126
     91          6           0        5.978672    8.977150    2.502874
     92          8           0        6.084395   10.087786    3.280763
     93          1           0        4.263528    4.033641    2.039528
     94          1           0        6.269744    3.964783    1.229865
     95          1           0        5.376274    5.843609   -0.923952
     96          1           0        7.032258    5.539209   -0.466943
     97          1           0        4.373013    7.690138   -0.160800
     98          1           0        7.701703    6.093411    1.977889
     99          1           0        4.181571    9.576988    1.496682
    100          1           0        7.803583    8.161580    3.414271
    101          1           0        6.761224    9.879469    3.925982
    102          7           0        4.927501    2.060383   -0.501101
    103          6           0        4.972197    0.741174   -1.109370
    104          6           0        6.187024   -0.129717   -0.858682
    105          8           0        6.025552   -1.263634   -0.408951
    106          6           0        4.749370    0.926806   -2.607798
    107          6           0        3.784907    2.020317   -3.063810
    108          6           0        4.564149   -0.447624   -3.247512
    109          6           0        3.465433    1.993218   -4.560072
    110          1           0        4.070249    2.180743    0.031565
    111          1           0        4.099260    0.224603   -0.720481
    112          1           0        5.677936    1.296349   -3.043462
    113          1           0        4.205585    2.985877   -2.804338
    114          1           0        2.840300    1.841650   -2.556666
    115          1           0        4.491200   -0.276901   -4.324142
    116          1           0        5.364484   -1.125365   -2.983067
    117          1           0        3.573807   -0.802379   -2.961732
    118          1           0        2.984860    2.933640   -4.831652
    119          1           0        4.320000    1.809457   -5.206638
    120          1           0        2.774306    1.184046   -4.805400
    121          7           0        7.433474    0.315524   -1.051612
    122          6           0        8.659518   -0.233553   -0.503587
    123          6           0        9.045554   -1.615052   -1.001822
    124          8           0        9.936458   -2.297189   -0.498257
    125          6           0        9.852268    0.655551   -0.819405
    126          8           0        9.367775    1.916516   -1.224540
    127          1           0        7.597974    1.275485   -1.322934
    128          1           0        8.693761   -0.441701    0.571961
    129          1           0       10.434863    0.158277   -1.594970
    130          1           0       10.538478    0.733647    0.027009
    131          1           0        9.717187    1.995036   -2.114061
    132          7           0        8.283020   -2.197058   -1.928543
    133          6           0        8.334549   -3.532572   -2.494533
    134          6           0        8.034412   -4.544658   -1.391175
    135          8           0        8.704247   -5.569381   -1.277308
    136          6           0        9.618405   -3.782130   -3.283162
    137          1           0        7.467682   -1.648631   -2.174210
    138          1           0        7.487819   -3.625828   -3.174203
    139          1           0       10.494656   -3.782893   -2.625603
    140          1           0        9.715317   -4.769914   -3.729469
    141          1           0        9.713832   -3.123571   -4.151548
    142          7           0        7.009122   -4.274606   -0.579663
    143          6           0        6.456059   -5.114135    0.460823
    144          6           0        4.940072   -5.091977    0.413986
    145          8           0        4.253269   -4.541371   -0.438208
    146          6           0        7.090671   -4.705415    1.790791
    147          1           0        6.622189   -3.360955   -0.779724
    148          1           0        6.742894   -6.136198    0.228418
    149          1           0        8.176333   -4.779029    1.821103
    150          1           0        6.880969   -3.633022    1.866936
    151          1           0        6.667487   -5.203848    2.653276
    152          7           0        4.382551   -5.854743    1.361803
    153          6           0        2.987661   -6.229613    1.473408
    154          6           0        2.463902   -6.978045    0.257051
    155          8           0        1.347819   -7.493151    0.328642
    156          6           0        2.156837   -5.003828    1.827363
    157          6           0        0.666108   -5.170125    2.127147
    158          6           0       -0.050702   -3.933717    2.655996
    159          8           0       -1.243130   -3.775663    2.323077
    160          8           0        0.502902   -2.995756    3.273614
    161          1           0        4.982194   -6.223241    2.083077
    162          1           0        2.941850   -6.969318    2.264634
    163          1           0        2.122602   -4.292523    1.000276
    164          1           0        2.509369   -4.545736    2.760729
    165          1           0        0.610177   -5.938825    2.896999
    166          1           0        0.204735   -5.448286    1.174330
    167          7           0        3.271428   -7.195230   -0.785078
    168          6           0        2.850723   -7.598153   -2.111902
    169          1           0        2.644197   -8.668569   -2.117176
    170          1           0        1.948756   -7.053278   -2.388932
    171          1           0        3.642381   -7.377646   -2.827491
    172          1           0        4.062491   -6.565469   -0.774111
    173         20           0       -1.686607   -1.644121    3.978479
    174          8           0       -3.581987   -1.213250    5.676208
    175          1           0       -3.667109   -0.337615    6.067894
    176          1           0       -4.339695   -1.689682    6.007554
 ---------------------------------------------------------------------

 SCF Done:  E(RB3LYP) =  -5333.29532559     A.U. after   43 cycles

 The electronic state is 1-A.
 Alpha  occ. eigenvalues -- -145.45627 -19.21581 -19.16331 -19.14553 -19.14083
 Alpha  occ. eigenvalues --  -19.12971 -19.11118 -19.09801 -19.09795 -19.09697
 Alpha  occ. eigenvalues --  -19.07704 -19.07615 -19.06993 -19.06730 -19.06727
 Alpha  occ. eigenvalues --  -19.06560 -19.06520 -19.06430 -19.05530 -19.04220
 Alpha  occ. eigenvalues --  -19.02549 -18.99972 -18.96436 -18.96310 -15.51471
 Alpha  occ. eigenvalues --  -14.56091 -14.39924 -14.39587 -14.37309 -14.35040
 Alpha  occ. eigenvalues --  -14.34428 -14.34265 -14.34023 -14.34005 -14.33700
 Alpha  occ. eigenvalues --  -14.33490 -14.33311 -14.32543 -14.32352 -14.32325
 Alpha  occ. eigenvalues --  -12.65093 -12.65048 -12.64986 -10.33236 -10.32832
 Alpha  occ. eigenvalues --  -10.31274 -10.30157 -10.28658 -10.28637 -10.28108
 Alpha  occ. eigenvalues --  -10.27452 -10.27237 -10.26770 -10.26696 -10.26511
 Alpha  occ. eigenvalues --  -10.26186 -10.25603 -10.25529 -10.25506 -10.25498
 Alpha  occ. eigenvalues --  -10.25472 -10.25096 -10.24484 -10.24225 -10.24181
 Alpha  occ. eigenvalues --  -10.24140 -10.23092 -10.22988 -10.22925 -10.22655
 Alpha  occ. eigenvalues --  -10.22633 -10.22401 -10.22316 -10.21099 -10.20784
 Alpha  occ. eigenvalues --  -10.20567 -10.20378 -10.20181 -10.20034 -10.19839
 Alpha  occ. eigenvalues --  -10.19745 -10.19363 -10.19203 -10.19114 -10.18831
 Alpha  occ. eigenvalues --  -10.18361 -10.17839 -10.17636 -10.16820 -10.16702
 Alpha  occ. eigenvalues --  -10.16383 -10.16120 -10.16086 -10.15879 -10.14940
 Alpha  occ. eigenvalues --  -10.13362 -10.11351  -1.88045  -1.15572  -1.15115
 Alpha  occ. eigenvalues --   -1.14876  -1.11492  -1.08236  -1.07349  -1.06184
 Alpha  occ. eigenvalues --   -1.05760  -1.04452  -1.04020  -1.03222  -1.03101
 Alpha  occ. eigenvalues --   -1.02679  -1.01263  -1.00846  -1.00676  -1.00606
 Alpha  occ. eigenvalues --   -1.00446  -0.99722  -0.99447  -0.99396  -0.98935
 Alpha  occ. eigenvalues --   -0.96908  -0.95399  -0.95189  -0.94333  -0.92241
 Alpha  occ. eigenvalues --   -0.91742  -0.91433  -0.90929  -0.90551  -0.90506
 Alpha  occ. eigenvalues --   -0.90165  -0.89892  -0.89301  -0.89262  -0.89005
 Alpha  occ. eigenvalues --   -0.88632  -0.87999  -0.87896  -0.85412  -0.85198
 Alpha  occ. eigenvalues --   -0.82181  -0.80982  -0.80926  -0.80227  -0.79197
 Alpha  occ. eigenvalues --   -0.78634  -0.77565  -0.76131  -0.76037  -0.75612
 Alpha  occ. eigenvalues --   -0.75148  -0.75096  -0.74264  -0.74151  -0.73806
 Alpha  occ. eigenvalues --   -0.72676  -0.72474  -0.71114  -0.70693  -0.70562
 Alpha  occ. eigenvalues --   -0.69373  -0.69257  -0.68954  -0.68111  -0.68027
 Alpha  occ. eigenvalues --   -0.66010  -0.65862  -0.64840  -0.64165  -0.63538
 Alpha  occ. eigenvalues --   -0.63412  -0.63118  -0.62861  -0.62635  -0.62473
 Alpha  occ. eigenvalues --   -0.61942  -0.61306  -0.60957  -0.60713  -0.60434
 Alpha  occ. eigenvalues --   -0.60137  -0.60088  -0.59005  -0.58234  -0.57978
 Alpha  occ. eigenvalues --   -0.57942  -0.57222  -0.57082  -0.56943  -0.56418
 Alpha  occ. eigenvalues --   -0.55795  -0.55582  -0.55358  -0.54877  -0.54817
 Alpha  occ. eigenvalues --   -0.54629  -0.54113  -0.54077  -0.54049  -0.53847
 Alpha  occ. eigenvalues --   -0.53577  -0.52733  -0.52511  -0.52280  -0.51705
 Alpha  occ. eigenvalues --   -0.51589  -0.51366  -0.51173  -0.50779  -0.50025
 Alpha  occ. eigenvalues --   -0.49693  -0.49662  -0.48956  -0.48848  -0.48721
 Alpha  occ. eigenvalues --   -0.48459  -0.48213  -0.47839  -0.47584  -0.47415
 Alpha  occ. eigenvalues --   -0.47241  -0.47028  -0.46824  -0.46498  -0.46249
 Alpha  occ. eigenvalues --   -0.46132  -0.46048  -0.45933  -0.45788  -0.45526
 Alpha  occ. eigenvalues --   -0.45456  -0.44920  -0.44650  -0.44637  -0.44436
 Alpha  occ. eigenvalues --   -0.44389  -0.44305  -0.44280  -0.43905  -0.43850
 Alpha  occ. eigenvalues --   -0.43646  -0.43545  -0.43263  -0.43151  -0.43115
 Alpha  occ. eigenvalues --   -0.42589  -0.42421  -0.42266  -0.41904  -0.41883
 Alpha  occ. eigenvalues --   -0.41849  -0.41589  -0.41565  -0.41476  -0.41298
 Alpha  occ. eigenvalues --   -0.40959  -0.40920  -0.40886  -0.40587  -0.40463
 Alpha  occ. eigenvalues --   -0.40139  -0.39953  -0.39779  -0.39676  -0.39484
 Alpha  occ. eigenvalues --   -0.39391  -0.39156  -0.39047  -0.38993  -0.38963
 Alpha  occ. eigenvalues --   -0.38944  -0.38812  -0.38710  -0.38381  -0.38369
 Alpha  occ. eigenvalues --   -0.38132  -0.38042  -0.37975  -0.37755  -0.37705
 Alpha  occ. eigenvalues --   -0.37619  -0.37582  -0.37442  -0.37253  -0.37133
 Alpha  occ. eigenvalues --   -0.36737  -0.36685  -0.36463  -0.36395  -0.35829
 Alpha  occ. eigenvalues --   -0.35819  -0.35778  -0.35433  -0.35416  -0.35131
 Alpha  occ. eigenvalues --   -0.34899  -0.34791  -0.34679  -0.34482  -0.34287
 Alpha  occ. eigenvalues --   -0.34165  -0.34137  -0.33698  -0.33482  -0.33302
 Alpha  occ. eigenvalues --   -0.33194  -0.33182  -0.32919  -0.32110  -0.32095
 Alpha  occ. eigenvalues --   -0.32079  -0.31786  -0.31647  -0.31498  -0.31144
 Alpha  occ. eigenvalues --   -0.30368  -0.30328  -0.30103  -0.29287  -0.29204
 Alpha  occ. eigenvalues --   -0.28481  -0.28373  -0.27469  -0.27268  -0.27143
 Alpha  occ. eigenvalues --   -0.27091  -0.26816  -0.26533  -0.26326  -0.25642
 Alpha  occ. eigenvalues --   -0.25625  -0.25397  -0.25231  -0.25054  -0.24907
 Alpha  occ. eigenvalues --   -0.24630  -0.24181  -0.23879  -0.23643  -0.23576
 Alpha  occ. eigenvalues --   -0.23329  -0.23282  -0.22973  -0.22881  -0.22815
 Alpha  occ. eigenvalues --   -0.22409  -0.22142  -0.22001  -0.21692  -0.21510
 Alpha  occ. eigenvalues --   -0.20676  -0.20138  -0.19303  -0.18677  -0.15795
 Alpha  occ. eigenvalues --   -0.14091  -0.13328  -0.10299
 Alpha virt. eigenvalues --   -0.09278  -0.09184  -0.03366  -0.02950  -0.02869
 Alpha virt. eigenvalues --   -0.02520  -0.01194  -0.00869  -0.00378  -0.00201
 Alpha virt. eigenvalues --   -0.00150   0.00218   0.00964   0.01609   0.01751

 Mulliken charges:
               1
     1  C    0.085433
     2  C   -0.014478
     3  O   -0.290721
     4  H    0.027877
     5  H   -0.022063
     6  H    0.055630
     7  N   -0.102976
     8  C    0.052267
     9  C    0.074964
    10  O   -0.275614
    11  C    0.119385
    12  C    0.028359
    13  O   -0.358476
    14  O   -0.351207
    15  H    0.103869
    16  H    0.012911
    17  H   -0.027744
    18  H    0.011885
    19  N   -0.144690
    20  C    0.188884
    21  C    0.077665
    22  O   -0.290450
    23  C    0.009308
    24  C    0.047596
    25  C   -0.001056
    26  C    0.028917
    27  N    0.165394
    28  H    0.121663
    29  H    0.004831
    30  H    0.003857
    31  H   -0.019499
    32  H    0.020773
    33  H   -0.020061
    34  H   -0.002691
    35  H    0.040373
    36  H    0.043592
    37  H    0.063545
    38  H    0.109937
    39  H    0.133678
    40  H    0.098391
    41  N   -0.128490
    42  C    0.071645
    43  C    0.121552
    44  O   -0.278259
    45  C    0.186167
    46  C    0.058887
    47  O   -0.384320
    48  O   -0.448437
    49  H    0.133814
    50  H   -0.010989
    51  H    0.001872
    52  H   -0.021244
    53  N   -0.087110
    54  C    0.202168
    55  C    0.055292
    56  O   -0.328524
    57  H    0.096081
    58  H    0.028712
    59  H    0.060114
    60  N   -0.135872
    61  C    0.090553
    62  C    0.101767
    63  O   -0.303736
    64  C    0.047458
    65  C    0.007751
    66  N   -0.035231
    67  O   -0.236598
    68  H    0.134749
    69  H    0.019769
    70  H    0.055484
    71  H    0.015150
    72  H    0.129206
    73  H    0.154494
    74  N   -0.125077
    75  C    0.228105
    76  C    0.028377
    77  O   -0.268094
    78  H    0.110558
    79  H   -0.007378
    80  H    0.042493
    81  N   -0.110464
    82  C    0.093783
    83  C    0.104021
    84  O   -0.286572
    85  C    0.137612
    86  C   -0.036999
    87  C   -0.022334
    88  C   -0.004856
    89  C   -0.003646
    90  C   -0.035666
    91  C    0.136936
    92  O   -0.184824
    93  H    0.122998
    94  H    0.005564
    95  H    0.012709
    96  H    0.012888
    97  H   -0.007878
    98  H   -0.030136
    99  H   -0.021513
   100  H   -0.034337
   101  H    0.165346
   102  N   -0.132712
   103  C    0.229773
   104  C    0.034907
   105  O   -0.276935
   106  C   -0.192978
   107  C    0.065824
   108  C    0.087334
   109  C    0.008446
   110  H    0.140422
   111  H   -0.012216
   112  H   -0.008874
   113  H    0.025629
   114  H   -0.033504
   115  H    0.001233
   116  H    0.006136
   117  H    0.004407
   118  H    0.013511
   119  H    0.003598
   120  H    0.013164
   121  N   -0.137899
   122  C    0.095483
   123  C    0.000898
   124  O   -0.280456
   125  C    0.227695
   126  O   -0.286050
   127  H    0.149680
   128  H    0.022761
   129  H    0.011206
   130  H    0.016822
   131  H    0.175857
   132  N   -0.135337
   133  C    0.086983
   134  C    0.039387
   135  O   -0.277027
   136  C    0.078475
   137  H    0.120628
   138  H    0.018278
   139  H    0.037954
   140  H    0.004197
   141  H   -0.009213
   142  N   -0.134101
   143  C    0.111534
   144  C    0.064026
   145  O   -0.270750
   146  C    0.055188
   147  H    0.125331
   148  H    0.017020
   149  H    0.042959
   150  H    0.017280
   151  H   -0.013069
   152  N   -0.141048
   153  C    0.135925
   154  C    0.030224
   155  O   -0.282752
   156  C    0.006376
   157  C    0.090560
   158  C    0.063946
   159  O   -0.375093
   160  O   -0.463171
   161  H    0.116381
   162  H    0.005411
   163  H    0.013008
   164  H   -0.004237
   165  H   -0.003640
   166  H    0.036821
   167  N   -0.123438
   168  C    0.137592
   169  H    0.026736
   170  H    0.027693
   171  H    0.017821
   172  H    0.110098
   173  Ca   1.344513
   174  O   -0.315968
   175  H    0.180364
   176  H    0.208223
 Sum of Mulliken charges =  -0.00000

 Dipole moment (field-independent basis, Debye):
    X=            -24.7681    Y=             -0.7282    Z=             12.8206  Tot=             27.8991
 Quadrupole moment (field-independent basis, Debye-Ang):
   XX=            -25.8678   YY=           -699.8458   ZZ=           -464.1530
   XY=            172.3498   XZ=             25.7944   YZ=             56.2933

 ESP charges:
               1
     1  C   -0.472522
     2  C    0.773345
     3  O   -0.570608
     4  H    0.126638
     5  H    0.074184
     6  H    0.158024
     7  N   -0.634347
     8  C    0.150825
     9  C    0.313123
    10  O   -0.483535
    11  C   -0.180161
    12  C    0.642119
    13  O   -0.615138
    14  O   -0.646629
    15  H    0.316186
    16  H    0.080432
    17  H    0.063370
    18  H    0.071004
    19  N   -0.098255
    20  C   -0.246755
    21  C    0.772035
    22  O   -0.605449
    23  C   -0.010035
    24  C   -0.045215
    25  C    0.058093
    26  C    0.118428
    27  N   -0.376297
    28  H    0.138828
    29  H    0.118388
    30  H    0.036945
    31  H    0.024220
    32  H    0.005048
    33  H    0.022219
    34  H   -0.013305
    35  H    0.049655
    36  H    0.032317
    37  H    0.056069
    38  H    0.263991
    39  H    0.297201
    40  H    0.254313
    41  N   -0.476531
    42  C   -0.137895
    43  C    0.570235
    44  O   -0.474037
    45  C   -0.060735
    46  C    0.724920
    47  O   -0.702248
    48  O   -0.759399
    49  H    0.286372
    50  H    0.091678
    51  H    0.052677
    52  H    0.034910
    53  N   -0.245044
    54  C   -0.317718
    55  C    0.992305
    56  O   -0.687087
    57  H    0.224270
    58  H    0.110888
    59  H    0.151421
    60  N   -1.068508
    61  C    0.452449
    62  C    0.440611
    63  O   -0.519458
    64  C   -0.131319
    65  C    0.712967
    66  N   -0.830684
    67  O   -0.563838
    68  H    0.429930
    69  H   -0.025082
    70  H   -0.012181
    71  H    0.056282
    72  H    0.405298
    73  H    0.417857
    74  N   -0.332667
    75  C   -0.164337
    76  C    0.660837
    77  O   -0.540511
    78  H    0.280901
    79  H    0.071393
    80  H    0.137340
    81  N   -0.717555
    82  C    0.104349
    83  C    0.591831
    84  O   -0.572622
    85  C   -0.248410
    86  C    0.032892
    87  C   -0.052732
    88  C   -0.017846
    89  C   -0.405463
    90  C   -0.468307
    91  C    0.500959
    92  O   -0.547314
    93  H    0.392466
    94  H    0.084604
    95  H    0.127804
    96  H    0.082876
    97  H    0.136804
    98  H    0.113917
    99  H    0.197713
   100  H    0.185271
   101  H    0.388379
   102  N   -0.462748
   103  C   -0.194871
   104  C    0.718432
   105  O   -0.568553
   106  C    0.520411
   107  C    0.118935
   108  C   -0.580852
   109  C   -0.333210
   110  H    0.310341
   111  H    0.081189
   112  H   -0.102116
   113  H    0.027984
   114  H   -0.049502
   115  H    0.122945
   116  H    0.179481
   117  H    0.106580
   118  H    0.084425
   119  H    0.065314
   120  H    0.084737
   121  N   -0.680299
   122  C    0.375549
   123  C    0.244929
   124  O   -0.502227
   125  C    0.164734
   126  O   -0.551780
   127  H    0.371429
   128  H    0.007778
   129  H    0.006446
   130  H    0.018495
   131  H    0.383466
   132  N   -0.174505
   133  C    0.131540
   134  C    0.524962
   135  O   -0.533683
   136  C   -0.299539
   137  H    0.086874
   138  H    0.050699
   139  H    0.123135
   140  H    0.077823
   141  H    0.069218
   142  N   -0.525275
   143  C    0.542821
   144  C    0.415924
   145  O   -0.500230
   146  C   -0.382327
   147  H    0.228833
   148  H   -0.061023
   149  H    0.139631
   150  H    0.113664
   151  H    0.039458
   152  N   -0.770972
   153  C   -0.082444
   154  C    0.614823
   155  O   -0.562934
   156  C    0.454052
   157  C   -0.289368
   158  C    0.742133
   159  O   -0.708602
   160  O   -0.840309
   161  H    0.411472
   162  H    0.095617
   163  H   -0.056387
   164  H   -0.047254
   165  H    0.026149
   166  H    0.093015
   167  N   -0.395575
   168  C   -0.114808
   169  H    0.082669
   170  H    0.089628
   171  H    0.080356
   172  H    0.304177
   173  Ca   1.656351
   174  O   -0.917695
   175  H    0.442066
   176  H    0.473771
 Sum of ESP charges =   0.00000

 Normal termination of Gaussian 16 at Tue Sep 17 10:23:17 2019.
