 Gaussian 16, Revision A.03,
 Gaussian 16:  ES64L-G16RevA.03 25-Dec-2016

 ----------------------------------------------------------------------
 #b3lyp/svp scf=(tight,noincore) Test #IOP(5/87=12) Density=Current Pop
 =(MK,readradii) iop(6/33=2) iop(6/42=6)
 ----------------------------------------------------------------------

 -----------------
 Ng-293_loop3_30.0
 -----------------
 Symbolic Z-matrix:
 Charge =  0 Multiplicity = 1

                         Standard orientation:
 ---------------------------------------------------------------------
 Center     Atomic      Atomic             Coordinates (Angstroms)
 Number     Number       Type             X           Y           Z
 ---------------------------------------------------------------------
      1          6           0        8.074798   -3.694762   -6.362395
      2          6           0        8.720218   -3.320580   -5.032463
      3          8           0        9.890909   -2.934466   -5.000856
      4          1           0        7.079810   -4.101488   -6.181555
      5          1           0        7.995183   -2.807684   -6.990400
      6          1           0        8.686579   -4.443691   -6.865579
      7          7           0        7.931117   -3.283092   -3.962503
      8          6           0        8.151545   -2.743206   -2.627686
      9          6           0        6.887483   -2.024558   -2.177028
     10          8           0        5.780523   -1.996851   -2.717742
     11          6           0        8.478229   -3.960977   -1.762290
     12          6           0        9.036697   -3.532813   -0.411738
     13          8           0        9.866284   -2.605815   -0.276241
     14          8           0        8.809855   -4.255206    0.590805
     15          1           0        7.006905   -3.681515   -4.057329
     16          1           0        9.016173   -2.100556   -2.531153
     17          1           0        9.245083   -4.550792   -2.265732
     18          1           0        7.543107   -4.480548   -1.542308
     19          7           0        7.196683   -1.211791   -1.167719
     20          6           0        6.227806   -0.635648   -0.253424
     21          6           0        5.268203   -1.652700    0.341276
     22          8           0        5.162703   -2.797401   -0.079709
     23          6           0        5.594464    0.633690   -0.805927
     24          6           0        6.554611    1.671129   -1.369256
     25          6           0        7.315336    2.478259   -0.313112
     26          6           0        8.263632    3.401169   -1.072765
     27          7           0        9.374435    2.791362   -1.824198
     28          1           0        8.173838   -1.131309   -0.953265
     29          1           0        6.847064   -0.396476    0.616414
     30          1           0        5.047096    1.146398   -0.004355
     31          1           0        4.908466    0.375328   -1.611131
     32          1           0        5.987475    2.399186   -1.956868
     33          1           0        7.194830    1.229897   -2.126444
     34          1           0        7.873437    1.819528    0.350738
     35          1           0        6.653282    3.116888    0.261984
     36          1           0        8.665564    4.153694   -0.392502
     37          1           0        7.630205    4.048498   -1.680083
     38          1           0       10.025972    2.223693   -1.319964
     39          1           0        9.024184    2.106157   -2.482163
     40          1           0        9.894029    3.498225   -2.337196
     41          7           0        4.610478   -1.204882    1.419634
     42          6           0        3.791588   -1.989862    2.310547
     43          6           0        2.412122   -2.307840    1.763314
     44          8           0        1.377915   -2.088756    2.391181
     45          6           0        3.749867   -1.458921    3.741791
     46          6           0        3.490591    0.030538    3.967377
     47          8           0        3.106542    0.847811    3.098659
     48          8           0        3.757288    0.466810    5.104144
     49          1           0        5.031327   -0.375449    1.832825
     50          1           0        4.283957   -2.961781    2.372572
     51          1           0        4.726777   -1.710003    4.168530
     52          1           0        2.993412   -1.984103    4.322532
     53          7           0        2.311003   -2.850559    0.546214
     54          6           0        1.201843   -2.954192   -0.377703
     55          6           0        0.394627   -4.243585   -0.255771
     56          8           0        0.089822   -4.894064   -1.249487
     57          1           0        3.235342   -2.977759    0.160186
     58          1           0        1.583667   -2.821169   -1.395207
     59          1           0        0.553647   -2.131685   -0.084913
     60          7           0        0.031174   -4.624191    0.973311
     61          6           0       -1.007263   -5.600173    1.258982
     62          6           0       -2.207911   -5.135502    2.064850
     63          8           0       -2.225361   -4.118474    2.752636
     64          6           0       -0.192547   -6.637603    2.027407
     65          6           0        0.717335   -7.473154    1.136077
     66          7           0        0.164868   -8.538127    0.537150
     67          8           0        1.921916   -7.258906    1.164027
     68          1           0        0.396415   -4.019243    1.686359
     69          1           0       -1.318855   -6.067652    0.324972
     70          1           0       -0.904630   -7.304419    2.511344
     71          1           0        0.405005   -6.103046    2.759855
     72          1           0       -0.840390   -8.571726    0.483979
     73          1           0        0.678150   -9.330057    0.182202
     74          7           0       -3.256995   -5.951664    1.959953
     75          6           0       -4.564568   -5.432770    2.289348
     76          6           0       -5.032642   -4.346332    1.336427
     77          8           0       -4.270834   -4.137440    0.384160
     78          1           0       -3.302769   -6.550866    1.148373
     79          1           0       -4.687787   -5.099078    3.321029
     80          1           0       -5.318633   -6.201383    2.164372
     81          7           0       -6.135190   -3.668313    1.638551
     82          6           0       -7.001110   -2.929059    0.736449
     83          6           0       -6.461463   -1.700819    0.024545
     84          8           0       -7.253801   -1.042649   -0.650816
     85          6           0       -7.577039   -3.874657   -0.303045
     86          6           0       -8.937287   -3.499188   -0.858158
     87          6           0       -9.055411   -3.186809   -2.222623
     88          6           0       -9.977016   -3.280115    0.047143
     89          6           0      -10.341462   -2.839909   -2.661639
     90          6           0      -11.210004   -2.815330   -0.408834
     91          6           0      -11.435433   -2.659167   -1.797428
     92          8           0      -12.658685   -2.314654   -2.280610
     93          1           0       -6.581191   -4.068628    2.454719
     94          1           0       -7.828689   -2.522620    1.337799
     95          1           0       -7.848052   -4.746661    0.293831
     96          1           0       -6.914961   -4.159385   -1.130440
     97          1           0       -8.298122   -3.559165   -2.889530
     98          1           0       -9.890623   -3.405744    1.118662
     99          1           0      -10.524426   -2.829670   -3.717062
    100          1           0      -11.967403   -2.693416    0.350695
    101          1           0      -13.244609   -2.173728   -1.536410
    102          7           0       -5.198316   -1.318079    0.251192
    103          6           0       -4.488167   -0.182129   -0.285750
    104          6           0       -4.828865    1.242601    0.149073
    105          8           0       -3.946619    2.027249    0.462231
    106          6           0       -4.065874   -0.415367   -1.735360
    107          6           0       -3.493248   -1.799954   -2.044095
    108          6           0       -3.014675    0.518337   -2.322112
    109          6           0       -2.320574   -2.306603   -1.218781
    110          1           0       -4.658889   -1.924402    0.849431
    111          1           0       -3.516028   -0.299584    0.188117
    112          1           0       -4.916610   -0.334856   -2.410465
    113          1           0       -3.338716   -1.921823   -3.115154
    114          1           0       -4.333219   -2.473013   -1.850340
    115          1           0       -3.567023    1.457383   -2.352171
    116          1           0       -2.119684    0.585835   -1.712082
    117          1           0       -2.772812    0.248820   -3.356115
    118          1           0       -2.599516   -2.276379   -0.165701
    119          1           0       -2.165697   -3.365528   -1.425882
    120          1           0       -1.418449   -1.721376   -1.439417
    121          7           0       -6.114233    1.589153    0.252183
    122          6           0       -6.639680    2.830578    0.780642
    123          6           0       -6.078573    4.157335    0.313551
    124          8           0       -6.164724    5.068157    1.144865
    125          6           0       -8.141983    2.837617    0.527984
    126          8           0       -8.431787    2.798619   -0.844237
    127          1           0       -6.774791    0.943730   -0.174423
    128          1           0       -6.477673    2.743009    1.857993
    129          1           0       -8.484619    3.803764    0.894266
    130          1           0       -8.551050    1.988726    1.083546
    131          1           0       -9.245914    2.302841   -0.976526
    132          7           0       -5.591715    4.283106   -0.921014
    133          6           0       -5.163149    5.447605   -1.662886
    134          6           0       -3.898659    6.083959   -1.119731
    135          8           0       -3.603329    7.237534   -1.434603
    136          6           0       -6.338169    6.399132   -1.897457
    137          1           0       -5.610345    3.390130   -1.401896
    138          1           0       -4.905239    5.105673   -2.672423
    139          1           0       -6.074172    7.071975   -2.715435
    140          1           0       -7.255815    5.840045   -2.092002
    141          1           0       -6.408025    7.045884   -1.028704
    142          7           0       -3.129301    5.414698   -0.245501
    143          6           0       -1.936140    5.924839    0.400038
    144          6           0       -0.667911    5.711786   -0.420696
    145          8           0       -0.489432    4.699602   -1.101672
    146          6           0       -1.747349    5.282462    1.767338
    147          1           0       -3.405812    4.475221   -0.028647
    148          1           0       -2.062339    6.990197    0.570583
    149          1           0       -1.380894    4.255728    1.761975
    150          1           0       -0.964729    5.840797    2.277110
    151          1           0       -2.761912    5.358192    2.150127
    152          7           0        0.257603    6.668730   -0.284009
    153          6           0        1.653779    6.527780   -0.627846
    154          6           0        1.980312    6.378648   -2.104950
    155          8           0        3.112800    6.047270   -2.451159
    156          6           0        2.476503    5.648358    0.308713
    157          6           0        2.206404    6.085884    1.744059
    158          6           0        3.195549    5.534693    2.770451
    159          8           0        3.721977    6.275402    3.628369
    160          8           0        3.486196    4.322916    2.692203
    161          1           0        0.006084    7.580136    0.081200
    162          1           0        2.040779    7.528278   -0.446368
    163          1           0        3.549183    5.802658    0.208960
    164          1           0        2.202501    4.597170    0.193281
    165          1           0        1.247414    5.644567    2.002858
    166          1           0        2.166235    7.170541    1.804940
    167          7           0        1.026268    6.711351   -2.983590
    168          6           0        1.033204    6.458487   -4.406865
    169          1           0        1.533966    5.510740   -4.604553
    170          1           0        0.007815    6.410286   -4.772476
    171          1           0        1.564269    7.262381   -4.916495
    172          1           0        0.116004    7.016958   -2.675492
    173         20           0        4.352174    3.041310    4.801058
    174          8           0        6.758387    2.377504    5.439335
    175          1           0        7.713639    2.404141    5.328949
    176          1           0        6.614799    1.708868    6.109043
 ---------------------------------------------------------------------

 SCF Done:  E(RB3LYP) =  -5333.32919156     A.U. after   41 cycles

 The electronic state is 1-A.
 Alpha  occ. eigenvalues -- -145.48456 -19.25249 -19.17114 -19.14290 -19.12128
 Alpha  occ. eigenvalues --  -19.11065 -19.10301 -19.09558 -19.09512 -19.08655
 Alpha  occ. eigenvalues --  -19.08225 -19.07871 -19.07689 -19.07626 -19.07421
 Alpha  occ. eigenvalues --  -19.07224 -19.07162 -19.07110 -19.06706 -19.06347
 Alpha  occ. eigenvalues --  -19.05658 -19.04265 -18.98076 -18.96550 -15.54380
 Alpha  occ. eigenvalues --  -14.57257 -14.39088 -14.36752 -14.36347 -14.35353
 Alpha  occ. eigenvalues --  -14.35140 -14.34940 -14.34788 -14.34068 -14.33744
 Alpha  occ. eigenvalues --  -14.33235 -14.32888 -14.32337 -14.31839 -14.30856
 Alpha  occ. eigenvalues --  -12.68004 -12.67938 -12.67893 -10.33826 -10.30799
 Alpha  occ. eigenvalues --  -10.29859 -10.28673 -10.28325 -10.28034 -10.27433
 Alpha  occ. eigenvalues --  -10.27111 -10.26841 -10.26709 -10.26690 -10.26683
 Alpha  occ. eigenvalues --  -10.26281 -10.26279 -10.25803 -10.25687 -10.25650
 Alpha  occ. eigenvalues --  -10.25350 -10.25230 -10.25200 -10.24268 -10.23990
 Alpha  occ. eigenvalues --  -10.23939 -10.23349 -10.23134 -10.22968 -10.22942
 Alpha  occ. eigenvalues --  -10.22874 -10.22450 -10.22238 -10.22108 -10.21097
 Alpha  occ. eigenvalues --  -10.20662 -10.20510 -10.20507 -10.19871 -10.19833
 Alpha  occ. eigenvalues --  -10.19619 -10.19537 -10.19039 -10.18733 -10.18446
 Alpha  occ. eigenvalues --  -10.18221 -10.17714 -10.17594 -10.17110 -10.16896
 Alpha  occ. eigenvalues --  -10.16871 -10.16575 -10.16110 -10.15855 -10.15565
 Alpha  occ. eigenvalues --  -10.14823 -10.12149  -1.90950  -1.18642  -1.18099
 Alpha  occ. eigenvalues --   -1.17786  -1.12360  -1.10971  -1.06000  -1.05539
 Alpha  occ. eigenvalues --   -1.04035  -1.03254  -1.02950  -1.02922  -1.02422
 Alpha  occ. eigenvalues --   -1.02184  -1.01793  -1.01118  -1.01033  -1.00492
 Alpha  occ. eigenvalues --   -1.00467  -1.00145  -1.00048  -0.99887  -0.99478
 Alpha  occ. eigenvalues --   -0.97199  -0.96162  -0.93416  -0.93200  -0.92332
 Alpha  occ. eigenvalues --   -0.92173  -0.92154  -0.92104  -0.91423  -0.90896
 Alpha  occ. eigenvalues --   -0.90748  -0.90595  -0.90132  -0.89954  -0.89691
 Alpha  occ. eigenvalues --   -0.88874  -0.88652  -0.88155  -0.87612  -0.85799
 Alpha  occ. eigenvalues --   -0.81525  -0.81381  -0.81036  -0.80119  -0.78873
 Alpha  occ. eigenvalues --   -0.78571  -0.77948  -0.77871  -0.76250  -0.75720
 Alpha  occ. eigenvalues --   -0.75532  -0.75166  -0.75010  -0.73506  -0.73453
 Alpha  occ. eigenvalues --   -0.72159  -0.72051  -0.71559  -0.71290  -0.70267
 Alpha  occ. eigenvalues --   -0.69563  -0.69040  -0.68317  -0.68280  -0.67407
 Alpha  occ. eigenvalues --   -0.66207  -0.65913  -0.65091  -0.64483  -0.64308
 Alpha  occ. eigenvalues --   -0.63445  -0.63335  -0.62981  -0.62338  -0.61885
 Alpha  occ. eigenvalues --   -0.61818  -0.61314  -0.61001  -0.60559  -0.60192
 Alpha  occ. eigenvalues --   -0.59533  -0.59318  -0.58653  -0.58501  -0.58354
 Alpha  occ. eigenvalues --   -0.57795  -0.57292  -0.56955  -0.56521  -0.56134
 Alpha  occ. eigenvalues --   -0.56011  -0.55788  -0.55443  -0.55018  -0.54708
 Alpha  occ. eigenvalues --   -0.54481  -0.54072  -0.53706  -0.53607  -0.53493
 Alpha  occ. eigenvalues --   -0.52905  -0.52579  -0.52487  -0.52318  -0.52059
 Alpha  occ. eigenvalues --   -0.51822  -0.51379  -0.51206  -0.50962  -0.50730
 Alpha  occ. eigenvalues --   -0.50364  -0.49717  -0.49090  -0.48411  -0.48298
 Alpha  occ. eigenvalues --   -0.48188  -0.47864  -0.47782  -0.47680  -0.47365
 Alpha  occ. eigenvalues --   -0.46907  -0.46768  -0.46351  -0.46304  -0.46290
 Alpha  occ. eigenvalues --   -0.45935  -0.45763  -0.45647  -0.45449  -0.45416
 Alpha  occ. eigenvalues --   -0.45308  -0.44930  -0.44700  -0.44567  -0.44454
 Alpha  occ. eigenvalues --   -0.44325  -0.43814  -0.43689  -0.43498  -0.43438
 Alpha  occ. eigenvalues --   -0.43247  -0.43101  -0.43081  -0.42881  -0.42739
 Alpha  occ. eigenvalues --   -0.42617  -0.42325  -0.42287  -0.42145  -0.41744
 Alpha  occ. eigenvalues --   -0.41661  -0.41651  -0.41594  -0.41584  -0.41297
 Alpha  occ. eigenvalues --   -0.41154  -0.40940  -0.40781  -0.40694  -0.40641
 Alpha  occ. eigenvalues --   -0.40491  -0.40271  -0.40083  -0.40024  -0.39915
 Alpha  occ. eigenvalues --   -0.39838  -0.39509  -0.39354  -0.39207  -0.38997
 Alpha  occ. eigenvalues --   -0.38907  -0.38863  -0.38730  -0.38419  -0.38292
 Alpha  occ. eigenvalues --   -0.38271  -0.38103  -0.38046  -0.37920  -0.37826
 Alpha  occ. eigenvalues --   -0.37678  -0.37593  -0.37508  -0.37461  -0.37359
 Alpha  occ. eigenvalues --   -0.37102  -0.37021  -0.36860  -0.36425  -0.36368
 Alpha  occ. eigenvalues --   -0.36332  -0.36229  -0.36034  -0.35929  -0.35683
 Alpha  occ. eigenvalues --   -0.35294  -0.35235  -0.35173  -0.34992  -0.34957
 Alpha  occ. eigenvalues --   -0.34809  -0.34720  -0.34527  -0.34115  -0.34092
 Alpha  occ. eigenvalues --   -0.33918  -0.33428  -0.33292  -0.33165  -0.32887
 Alpha  occ. eigenvalues --   -0.32167  -0.32029  -0.31820  -0.31200  -0.30919
 Alpha  occ. eigenvalues --   -0.29927  -0.28805  -0.28604  -0.28256  -0.28203
 Alpha  occ. eigenvalues --   -0.28055  -0.27964  -0.27472  -0.27010  -0.26961
 Alpha  occ. eigenvalues --   -0.26901  -0.26765  -0.26325  -0.26233  -0.26195
 Alpha  occ. eigenvalues --   -0.26071  -0.25723  -0.25621  -0.25293  -0.24940
 Alpha  occ. eigenvalues --   -0.24818  -0.24502  -0.24484  -0.24270  -0.23960
 Alpha  occ. eigenvalues --   -0.23854  -0.23632  -0.23565  -0.23318  -0.23097
 Alpha  occ. eigenvalues --   -0.23030  -0.22892  -0.22568  -0.22330  -0.22206
 Alpha  occ. eigenvalues --   -0.21490  -0.21360  -0.21249  -0.21200  -0.20444
 Alpha  occ. eigenvalues --   -0.15363  -0.14683  -0.11520
 Alpha virt. eigenvalues --   -0.10406  -0.08801  -0.03971  -0.03020  -0.02555
 Alpha virt. eigenvalues --   -0.02435  -0.01510  -0.00750  -0.00415  -0.00172
 Alpha virt. eigenvalues --    0.00604   0.00720   0.01114   0.01629   0.02047

 Mulliken charges:
               1
     1  C    0.062171
     2  C   -0.000406
     3  O   -0.317467
     4  H   -0.008070
     5  H    0.029405
     6  H    0.026902
     7  N   -0.103709
     8  C    0.021642
     9  C    0.108318
    10  O   -0.275098
    11  C    0.145662
    12  C   -0.010681
    13  O   -0.398925
    14  O   -0.345096
    15  H    0.118149
    16  H   -0.022658
    17  H    0.026284
    18  H   -0.006922
    19  N   -0.143386
    20  C    0.069140
    21  C    0.110452
    22  O   -0.245032
    23  C    0.140747
    24  C   -0.040723
    25  C    0.004155
    26  C    0.011341
    27  N    0.094334
    28  H    0.084533
    29  H   -0.008696
    30  H    0.009097
    31  H    0.031438
    32  H    0.023934
    33  H   -0.021488
    34  H    0.024184
    35  H    0.057883
    36  H    0.051669
    37  H    0.078719
    38  H    0.182100
    39  H    0.178046
    40  H    0.192634
    41  N   -0.122408
    42  C    0.119859
    43  C    0.048479
    44  O   -0.288350
    45  C    0.075215
    46  C    0.073895
    47  O   -0.351707
    48  O   -0.474302
    49  H    0.111442
    50  H    0.036978
    51  H    0.006224
    52  H    0.042002
    53  N   -0.150239
    54  C    0.231168
    55  C    0.047564
    56  O   -0.287031
    57  H    0.124831
    58  H    0.030677
    59  H    0.030628
    60  N   -0.134659
    61  C    0.052825
    62  C    0.142738
    63  O   -0.250577
    64  C    0.094905
    65  C    0.032368
    66  N   -0.055022
    67  O   -0.236530
    68  H    0.125807
    69  H    0.010824
    70  H   -0.019001
    71  H    0.017473
    72  H    0.099502
    73  H    0.128213
    74  N   -0.120004
    75  C    0.180536
    76  C    0.010913
    77  O   -0.279947
    78  H    0.117479
    79  H    0.037553
    80  H    0.010728
    81  N   -0.101113
    82  C    0.078454
    83  C    0.087367
    84  O   -0.298041
    85  C    0.134351
    86  C   -0.031364
    87  C    0.066853
    88  C   -0.023187
    89  C   -0.040147
    90  C   -0.066497
    91  C    0.179040
    92  O   -0.181223
    93  H    0.121132
    94  H    0.029273
    95  H   -0.017009
    96  H    0.022080
    97  H   -0.016645
    98  H   -0.043810
    99  H   -0.024802
   100  H   -0.046400
   101  H    0.171388
   102  N   -0.094027
   103  C    0.184606
   104  C    0.044969
   105  O   -0.266603
   106  C   -0.135657
   107  C    0.016559
   108  C    0.097728
   109  C    0.007196
   110  H    0.146210
   111  H    0.010547
   112  H   -0.016454
   113  H   -0.011841
   114  H   -0.028272
   115  H   -0.017166
   116  H    0.030837
   117  H    0.002851
   118  H    0.001087
   119  H    0.031005
   120  H    0.014517
   121  N   -0.141544
   122  C    0.101212
   123  C    0.056379
   124  O   -0.287947
   125  C    0.207419
   126  O   -0.315602
   127  H    0.126284
   128  H    0.020838
   129  H    0.013412
   130  H    0.005851
   131  H    0.178103
   132  N   -0.120639
   133  C    0.076379
   134  C    0.059042
   135  O   -0.299973
   136  C    0.067123
   137  H    0.128942
   138  H    0.024978
   139  H    0.016208
   140  H    0.019918
   141  H    0.027960
   142  N   -0.107118
   143  C    0.077984
   144  C    0.076625
   145  O   -0.265441
   146  C    0.048351
   147  H    0.134549
   148  H   -0.012392
   149  H    0.038939
   150  H    0.012331
   151  H    0.043812
   152  N   -0.158391
   153  C    0.076447
   154  C    0.080104
   155  O   -0.292043
   156  C    0.066069
   157  C    0.073501
   158  C    0.055250
   159  O   -0.362204
   160  O   -0.459723
   161  H    0.130428
   162  H    0.001134
   163  H   -0.007130
   164  H    0.032003
   165  H    0.009234
   166  H   -0.027186
   167  N   -0.141732
   168  C    0.131544
   169  H    0.030745
   170  H    0.020664
   171  H    0.015503
   172  H    0.119108
   173  Ca   1.297256
   174  O   -0.333879
   175  H    0.207218
   176  H    0.200682
 Sum of Mulliken charges =  -0.00000

 Dipole moment (field-independent basis, Debye):
    X=             -2.7552    Y=             14.0706    Z=              9.1381  Tot=             17.0023
 Quadrupole moment (field-independent basis, Debye-Ang):
   XX=           -426.8309   YY=           -578.8685   ZZ=           -495.3624
   XY=            305.4907   XZ=             21.6147   YZ=            -15.8323

 ESP charges:
               1
     1  C   -0.455605
     2  C    0.755593
     3  O   -0.606105
     4  H    0.097583
     5  H    0.124373
     6  H    0.122213
     7  N   -0.759522
     8  C    0.508032
     9  C    0.451737
    10  O   -0.518723
    11  C   -0.409670
    12  C    0.780281
    13  O   -0.715872
    14  O   -0.668598
    15  H    0.339329
    16  H   -0.050296
    17  H    0.145114
    18  H    0.076075
    19  N   -0.657199
    20  C    0.586274
    21  C    0.373501
    22  O   -0.435997
    23  C   -0.395373
    24  C    0.422263
    25  C   -0.340382
    26  C    0.137416
    27  N   -0.492829
    28  H    0.222568
    29  H   -0.038975
    30  H    0.039347
    31  H    0.122101
    32  H   -0.052393
    33  H   -0.076118
    34  H    0.082926
    35  H    0.146707
    36  H    0.061637
    37  H    0.077813
    38  H    0.374815
    39  H    0.340099
    40  H    0.354946
    41  N   -0.461290
    42  C    0.342684
    43  C    0.358008
    44  O   -0.494583
    45  C   -0.287707
    46  C    0.758707
    47  O   -0.659830
    48  O   -0.781856
    49  H    0.202106
    50  H    0.006534
    51  H    0.060506
    52  H    0.118222
    53  N   -0.348247
    54  C   -0.104211
    55  C    0.683763
    56  O   -0.570529
    57  H    0.275850
    58  H    0.100578
    59  H    0.121361
    60  N   -0.627674
    61  C    0.191076
    62  C    0.772006
    63  O   -0.542275
    64  C   -0.482038
    65  C    0.859717
    66  N   -0.853660
    67  O   -0.570337
    68  H    0.301281
    69  H    0.037990
    70  H    0.048850
    71  H    0.180701
    72  H    0.350332
    73  H    0.383320
    74  N   -0.639415
    75  C    0.074858
    76  C    0.582451
    77  O   -0.530672
    78  H    0.336315
    79  H    0.061679
    80  H    0.042246
    81  N   -0.795208
    82  C    0.460273
    83  C    0.432371
    84  O   -0.464385
    85  C   -0.139981
    86  C   -0.035315
    87  C   -0.101712
    88  C   -0.124137
    89  C   -0.246492
    90  C   -0.340504
    91  C    0.393468
    92  O   -0.540386
    93  H    0.350747
    94  H    0.010625
    95  H    0.032488
    96  H    0.102746
    97  H    0.127549
    98  H    0.132635
    99  H    0.150853
   100  H    0.144010
   101  H    0.403824
   102  N   -0.610543
   103  C   -0.205294
   104  C    0.595508
   105  O   -0.576172
   106  C    0.211588
   107  C    0.267890
   108  C   -0.406681
   109  C   -0.280702
   110  H    0.432750
   111  H    0.159434
   112  H   -0.012773
   113  H   -0.049353
   114  H   -0.068832
   115  H    0.059648
   116  H    0.119191
   117  H    0.113923
   118  H    0.036558
   119  H    0.078288
   120  H    0.030901
   121  N   -0.119783
   122  C   -0.369741
   123  C    0.816293
   124  O   -0.605561
   125  C    0.091524
   126  O   -0.600840
   127  H    0.173744
   128  H    0.141332
   129  H    0.060554
   130  H    0.065799
   131  H    0.422322
   132  N   -0.284374
   133  C    0.175958
   134  C    0.552407
   135  O   -0.562600
   136  C   -0.289203
   137  H    0.185239
   138  H    0.045576
   139  H    0.072691
   140  H    0.079786
   141  H    0.093470
   142  N   -0.669603
   143  C    0.606666
   144  C    0.495602
   145  O   -0.492656
   146  C   -0.286169
   147  H    0.205625
   148  H   -0.043476
   149  H    0.126820
   150  H    0.004550
   151  H    0.079342
   152  N   -0.752095
   153  C    0.124444
   154  C    0.397304
   155  O   -0.527845
   156  C    0.033852
   157  C    0.026792
   158  C    0.687761
   159  O   -0.717173
   160  O   -0.789042
   161  H    0.346216
   162  H    0.064887
   163  H   -0.000174
   164  H    0.061734
   165  H    0.002023
   166  H   -0.005327
   167  N   -0.218948
   168  C   -0.182249
   169  H    0.114774
   170  H    0.098365
   171  H    0.065649
   172  H    0.246145
   173  Ca   1.508464
   174  O   -0.845896
   175  H    0.462296
   176  H    0.412052
 Sum of ESP charges =  -0.00000

 Normal termination of Gaussian 16 at Tue Sep 17 00:50:40 2019.
