 Gaussian 16, Revision A.03,
 Gaussian 16:  ES64L-G16RevA.03 25-Dec-2016

 ----------------------------------------------------------------------
 #b3lyp/svp scf=(tight,noincore) Test #IOP(5/87=12) Density=Current Pop
 =(MK,readradii) iop(6/33=2) iop(6/42=6)
 ----------------------------------------------------------------------

 ----------------
 Ng-295_loop3_8.0
 ----------------
 Symbolic Z-matrix:
 Charge =  0 Multiplicity = 1

                         Standard orientation:
 ---------------------------------------------------------------------
 Center     Atomic      Atomic             Coordinates (Angstroms)
 Number     Number       Type             X           Y           Z
 ---------------------------------------------------------------------
      1          6           0       -8.494575    6.061612    3.956079
      2          6           0       -7.588097    5.422975    2.906632
      3          8           0       -6.827880    5.993289    2.140987
      4          1           0       -8.232886    5.678932    4.942636
      5          1           0       -8.362967    7.143735    3.940171
      6          1           0       -9.533473    5.817541    3.736206
      7          7           0       -7.655034    4.093408    2.834722
      8          6           0       -6.858470    3.412600    1.835678
      9          6           0       -7.478253    3.587034    0.451503
     10          8           0       -8.641141    3.967547    0.321109
     11          6           0       -6.716534    1.961650    2.292293
     12          6           0       -5.588292    1.225257    1.581172
     13          8           0       -4.618822    0.722964    2.183857
     14          8           0       -5.563260    1.075280    0.339729
     15          1           0       -8.248768    3.578436    3.458167
     16          1           0       -5.822451    3.758652    1.821125
     17          1           0       -7.584583    1.381102    1.988889
     18          1           0       -6.590447    1.845935    3.363233
     19          7           0       -6.668460    3.548826   -0.604043
     20          6           0       -7.115153    3.703324   -1.972654
     21          6           0       -7.547180    2.383491   -2.578618
     22          8           0       -8.509156    2.428613   -3.349050
     23          6           0       -6.149797    4.346891   -2.959776
     24          6           0       -4.888153    3.532725   -3.210946
     25          6           0       -3.839847    4.026102   -4.214258
     26          6           0       -2.477579    3.407175   -3.908063
     27          7           0       -2.358444    1.934634   -4.035069
     28          1           0       -5.700444    3.240534   -0.604069
     29          1           0       -8.021206    4.303806   -1.882708
     30          1           0       -5.681497    5.240563   -2.532054
     31          1           0       -6.743627    4.510979   -3.855567
     32          1           0       -5.249165    2.601288   -3.646603
     33          1           0       -4.409855    3.349700   -2.249628
     34          1           0       -3.747544    5.104459   -4.090868
     35          1           0       -4.022740    3.853489   -5.273341
     36          1           0       -2.145170    3.711600   -2.916584
     37          1           0       -1.796773    3.850752   -4.627536
     38          1           0       -1.381170    1.670001   -3.966479
     39          1           0       -2.988574    1.563897   -3.342545
     40          1           0       -2.714429    1.580176   -4.905549
     41          7           0       -7.023877    1.203621   -2.238085
     42          6           0       -7.287026   -0.068278   -2.868184
     43          6           0       -7.649840   -1.082055   -1.789471
     44          8           0       -7.926681   -2.229275   -2.126879
     45          6           0       -5.971802   -0.463434   -3.544747
     46          6           0       -4.745259   -0.470603   -2.641784
     47          8           0       -4.169898    0.600632   -2.367714
     48          8           0       -4.561408   -1.504843   -1.963369
     49          1           0       -6.335281    1.198603   -1.498552
     50          1           0       -8.196023   -0.012840   -3.462870
     51          1           0       -5.783783    0.321294   -4.283633
     52          1           0       -6.034384   -1.425080   -4.061196
     53          7           0       -7.666094   -0.698546   -0.520000
     54          6           0       -8.105020   -1.550067    0.572134
     55          6           0       -6.992095   -2.321702    1.258339
     56          8           0       -7.048404   -2.640033    2.440539
     57          1           0       -7.181819    0.170702   -0.339762
     58          1           0       -8.905359   -2.219021    0.231316
     59          1           0       -8.562773   -0.896245    1.315288
     60          7           0       -5.947374   -2.672255    0.505365
     61          6           0       -5.021247   -3.674898    0.987752
     62          6           0       -3.983621   -3.014108    1.878868
     63          8           0       -3.402074   -1.986003    1.547048
     64          6           0       -4.362758   -4.384749   -0.189875
     65          6           0       -3.466845   -5.588959    0.061952
     66          7           0       -3.145099   -6.407723   -0.941196
     67          8           0       -2.957441   -5.764498    1.168792
     68          1           0       -5.865348   -2.437644   -0.472556
     69          1           0       -5.514814   -4.491966    1.517366
     70          1           0       -3.637299   -3.653081   -0.555074
     71          1           0       -5.069801   -4.551823   -1.002511
     72          1           0       -3.475514   -6.123975   -1.856845
     73          1           0       -2.545353   -7.217797   -0.822942
     74          7           0       -3.585727   -3.574494    3.019722
     75          6           0       -2.558352   -3.207988    3.975584
     76          6           0       -1.121209   -3.256344    3.486014
     77          8           0       -0.230638   -2.502910    3.876039
     78          1           0       -3.933425   -4.514451    3.157519
     79          1           0       -2.540860   -3.914752    4.803279
     80          1           0       -2.656267   -2.205345    4.382672
     81          7           0       -0.798081   -4.069472    2.474721
     82          6           0        0.565270   -4.267797    2.016199
     83          6           0        1.173896   -2.953215    1.518857
     84          8           0        0.509443   -2.292740    0.733571
     85          6           0        0.548772   -5.281255    0.882343
     86          6           0        1.791265   -5.559639    0.065513
     87          6           0        1.779445   -5.235615   -1.296203
     88          6           0        3.021296   -5.907769    0.647175
     89          6           0        2.996090   -5.274697   -2.000935
     90          6           0        4.236354   -5.899937   -0.037641
     91          6           0        4.234180   -5.575464   -1.409688
     92          8           0        5.419955   -5.447768   -2.077918
     93          1           0       -1.492719   -4.729278    2.145885
     94          1           0        1.087008   -4.635539    2.893898
     95          1           0       -0.318112   -5.049466    0.257213
     96          1           0        0.399722   -6.295205    1.260482
     97          1           0        0.873379   -4.909865   -1.789286
     98          1           0        3.012092   -6.204036    1.680733
     99          1           0        2.963762   -4.899948   -3.011785
    100          1           0        5.213519   -6.070876    0.402731
    101          1           0        6.195318   -5.714558   -1.578483
    102          7           0        2.474687   -2.722651    1.727148
    103          6           0        3.239270   -1.610575    1.202076
    104          6           0        3.669050   -1.838370   -0.245577
    105          8           0        2.909553   -2.329413   -1.082560
    106          6           0        2.650270   -0.219579    1.438526
    107          6           0        3.178794    1.022878    0.718066
    108          6           0        2.530458    0.121919    2.919210
    109          6           0        2.145315    2.134092    0.624123
    110          1           0        2.935729   -3.269283    2.433924
    111          1           0        4.139796   -1.608278    1.810720
    112          1           0        1.656039   -0.315987    1.018992
    113          1           0        3.487683    0.810862   -0.309424
    114          1           0        4.064775    1.335019    1.268525
    115          1           0        2.000144   -0.718404    3.365106
    116          1           0        3.540251    0.097220    3.318971
    117          1           0        1.877486    0.983144    3.072895
    118          1           0        2.502555    2.845542   -0.124489
    119          1           0        1.170833    1.809707    0.271193
    120          1           0        2.130994    2.652148    1.581835
    121          7           0        4.931180   -1.510855   -0.504732
    122          6           0        5.520964   -1.239181   -1.800629
    123          6           0        7.029715   -1.398460   -1.802277
    124          8           0        7.604542   -1.956480   -2.741685
    125          6           0        5.131199    0.110895   -2.405922
    126          8           0        5.555119    1.204472   -1.614101
    127          1           0        5.358516   -1.077023    0.309991
    128          1           0        5.142317   -2.000534   -2.477658
    129          1           0        4.056372    0.166186   -2.255288
    130          1           0        5.407723    0.167684   -3.461625
    131          1           0        5.049467    1.964558   -1.898329
    132          7           0        7.612533   -0.890339   -0.713316
    133          6           0        9.015222   -0.889636   -0.352119
    134          6           0        9.902183   -0.184069   -1.371028
    135          8           0       10.969400   -0.703409   -1.684451
    136          6           0        9.382925   -2.338802   -0.052432
    137          1           0        6.966258   -0.452839   -0.078162
    138          1           0        9.040573   -0.265823    0.550441
    139          1           0        9.312218   -2.960362   -0.948848
    140          1           0       10.348490   -2.381067    0.450458
    141          1           0        8.615413   -2.692305    0.628716
    142          7           0        9.684630    0.989563   -1.958701
    143          6           0        8.771915    2.024830   -1.507623
    144          6           0        9.467788    3.095556   -0.685487
    145          8           0       10.522455    3.575121   -1.083350
    146          6           0        7.912263    2.629038   -2.622806
    147          1           0       10.381921    1.344764   -2.589192
    148          1           0        8.097206    1.469037   -0.864769
    149          1           0        7.067271    3.225309   -2.292124
    150          1           0        8.587918    3.256563   -3.203583
    151          1           0        7.500485    1.771427   -3.151050
    152          7           0        9.010521    3.646424    0.440812
    153          6           0        7.641178    3.560599    0.910423
    154          6           0        7.680396    3.161058    2.371871
    155          8           0        6.791469    2.410773    2.757853
    156          6           0        6.995835    4.938845    0.735580
    157          6           0        5.497186    4.768807    0.916247
    158          6           0        4.861077    6.151709    0.856699
    159          8           0        5.174295    7.000833    1.718432
    160          8           0        4.171239    6.385100   -0.154762
    161          1           0        9.582423    4.357438    0.870216
    162          1           0        7.058799    2.871521    0.297965
    163          1           0        7.169612    5.295799   -0.277181
    164          1           0        7.378601    5.577213    1.536938
    165          1           0        5.221844    4.130910    1.754206
    166          1           0        5.086839    4.196616    0.082334
    167          7           0        8.747137    3.442944    3.128511
    168          6           0        9.065307    3.103844    4.494922
    169          1           0        8.794963    2.065336    4.683239
    170          1           0       10.134260    3.236216    4.663472
    171          1           0        8.507240    3.751717    5.170285
    172          1           0        9.465338    3.978942    2.651236
    173         20           0       -3.225454   -0.034760    0.019697
    174          8           0       -1.645059   -2.068976   -0.751547
    175          1           0       -0.987205   -2.264581   -0.087721
    176          1           0       -1.319756   -2.486373   -1.550020
 ---------------------------------------------------------------------

 SCF Done:  E(RB3LYP) =  -5333.42090666     A.U. after   33 cycles

 The electronic state is 1-A.
 Alpha  occ. eigenvalues -- -145.45821 -19.18265 -19.17524 -19.16744 -19.16322
 Alpha  occ. eigenvalues --  -19.15277 -19.14714 -19.14188 -19.13448 -19.12590
 Alpha  occ. eigenvalues --  -19.11812 -19.11749 -19.11670 -19.10797 -19.10742
 Alpha  occ. eigenvalues --  -19.10679 -19.10349 -19.10084 -19.09175 -19.07736
 Alpha  occ. eigenvalues --  -19.07554 -19.07135 -18.96909 -18.96685 -15.51690
 Alpha  occ. eigenvalues --  -14.54648 -14.40585 -14.39669 -14.38948 -14.38354
 Alpha  occ. eigenvalues --  -14.37865 -14.37205 -14.37081 -14.36839 -14.36778
 Alpha  occ. eigenvalues --  -14.36591 -14.35493 -14.34808 -14.33958 -14.33776
 Alpha  occ. eigenvalues --  -12.65306 -12.65241 -12.65226 -10.34203 -10.33806
 Alpha  occ. eigenvalues --  -10.33608 -10.33371 -10.31903 -10.30748 -10.30585
 Alpha  occ. eigenvalues --  -10.30473 -10.30394 -10.29680 -10.29464 -10.29361
 Alpha  occ. eigenvalues --  -10.29129 -10.28127 -10.27997 -10.27455 -10.27313
 Alpha  occ. eigenvalues --  -10.26794 -10.26695 -10.26586 -10.26521 -10.26498
 Alpha  occ. eigenvalues --  -10.26328 -10.26187 -10.25951 -10.25226 -10.25140
 Alpha  occ. eigenvalues --  -10.25036 -10.24984 -10.24627 -10.24447 -10.24340
 Alpha  occ. eigenvalues --  -10.22900 -10.22844 -10.22737 -10.22489 -10.22140
 Alpha  occ. eigenvalues --  -10.21724 -10.21241 -10.21204 -10.20987 -10.20978
 Alpha  occ. eigenvalues --  -10.20942 -10.20078 -10.19590 -10.19518 -10.18695
 Alpha  occ. eigenvalues --  -10.18476 -10.18402 -10.18206 -10.17883 -10.16181
 Alpha  occ. eigenvalues --  -10.14917 -10.11024  -1.88505  -1.16156  -1.15810
 Alpha  occ. eigenvalues --   -1.15625  -1.10874  -1.10157  -1.08459  -1.07636
 Alpha  occ. eigenvalues --   -1.07601  -1.07088  -1.05863  -1.05253  -1.05200
 Alpha  occ. eigenvalues --   -1.04999  -1.04515  -1.04435  -1.04106  -1.04095
 Alpha  occ. eigenvalues --   -1.03337  -1.03282  -1.02453  -1.02056  -1.01405
 Alpha  occ. eigenvalues --   -1.00806  -0.99948  -0.96048  -0.95813  -0.95613
 Alpha  occ. eigenvalues --   -0.95592  -0.95168  -0.95058  -0.94683  -0.93812
 Alpha  occ. eigenvalues --   -0.93779  -0.93712  -0.92651  -0.92280  -0.91695
 Alpha  occ. eigenvalues --   -0.91139  -0.90548  -0.89806  -0.88141  -0.86823
 Alpha  occ. eigenvalues --   -0.83388  -0.82978  -0.82728  -0.81582  -0.81242
 Alpha  occ. eigenvalues --   -0.80577  -0.80381  -0.80298  -0.78004  -0.77209
 Alpha  occ. eigenvalues --   -0.76314  -0.76287  -0.76099  -0.75986  -0.75758
 Alpha  occ. eigenvalues --   -0.75555  -0.74163  -0.73652  -0.71955  -0.71711
 Alpha  occ. eigenvalues --   -0.71453  -0.71426  -0.70658  -0.69802  -0.68567
 Alpha  occ. eigenvalues --   -0.68562  -0.67772  -0.66931  -0.66302  -0.65958
 Alpha  occ. eigenvalues --   -0.65211  -0.65123  -0.64644  -0.63972  -0.63925
 Alpha  occ. eigenvalues --   -0.63002  -0.62790  -0.62649  -0.62239  -0.61846
 Alpha  occ. eigenvalues --   -0.61605  -0.61507  -0.60953  -0.60190  -0.60088
 Alpha  occ. eigenvalues --   -0.59915  -0.59756  -0.59300  -0.59230  -0.58857
 Alpha  occ. eigenvalues --   -0.58561  -0.58482  -0.57958  -0.57333  -0.56867
 Alpha  occ. eigenvalues --   -0.56865  -0.56751  -0.56701  -0.56358  -0.55841
 Alpha  occ. eigenvalues --   -0.55572  -0.55319  -0.54775  -0.54357  -0.54189
 Alpha  occ. eigenvalues --   -0.53464  -0.53098  -0.52948  -0.52716  -0.52549
 Alpha  occ. eigenvalues --   -0.52389  -0.52257  -0.52014  -0.51851  -0.51589
 Alpha  occ. eigenvalues --   -0.51539  -0.50980  -0.50805  -0.50590  -0.50395
 Alpha  occ. eigenvalues --   -0.50254  -0.49779  -0.49225  -0.49091  -0.48912
 Alpha  occ. eigenvalues --   -0.48791  -0.48357  -0.48198  -0.48079  -0.47859
 Alpha  occ. eigenvalues --   -0.47568  -0.47479  -0.47387  -0.47134  -0.47080
 Alpha  occ. eigenvalues --   -0.46722  -0.46687  -0.46601  -0.46268  -0.46084
 Alpha  occ. eigenvalues --   -0.45753  -0.45678  -0.45595  -0.45570  -0.45459
 Alpha  occ. eigenvalues --   -0.45329  -0.45271  -0.45124  -0.44906  -0.44781
 Alpha  occ. eigenvalues --   -0.44743  -0.44470  -0.44221  -0.43941  -0.43849
 Alpha  occ. eigenvalues --   -0.43818  -0.43486  -0.43342  -0.43103  -0.42870
 Alpha  occ. eigenvalues --   -0.42840  -0.42758  -0.42602  -0.42483  -0.42292
 Alpha  occ. eigenvalues --   -0.42024  -0.41919  -0.41778  -0.41733  -0.41441
 Alpha  occ. eigenvalues --   -0.41363  -0.41348  -0.41101  -0.40962  -0.40580
 Alpha  occ. eigenvalues --   -0.40547  -0.40434  -0.40348  -0.40065  -0.40024
 Alpha  occ. eigenvalues --   -0.39968  -0.39650  -0.39511  -0.39255  -0.39225
 Alpha  occ. eigenvalues --   -0.39136  -0.38997  -0.38873  -0.38740  -0.38609
 Alpha  occ. eigenvalues --   -0.38399  -0.38193  -0.38091  -0.37749  -0.37698
 Alpha  occ. eigenvalues --   -0.37604  -0.37568  -0.37502  -0.37489  -0.36883
 Alpha  occ. eigenvalues --   -0.36585  -0.36377  -0.36298  -0.36280  -0.35668
 Alpha  occ. eigenvalues --   -0.35422  -0.35217  -0.34963  -0.34760  -0.34199
 Alpha  occ. eigenvalues --   -0.34071  -0.33474  -0.33463  -0.33366  -0.33007
 Alpha  occ. eigenvalues --   -0.32733  -0.32682  -0.32248  -0.32216  -0.31845
 Alpha  occ. eigenvalues --   -0.31464  -0.30999  -0.30788  -0.30537  -0.30485
 Alpha  occ. eigenvalues --   -0.30343  -0.29886  -0.29441  -0.29396  -0.29300
 Alpha  occ. eigenvalues --   -0.28976  -0.28764  -0.28339  -0.27899  -0.27851
 Alpha  occ. eigenvalues --   -0.27802  -0.27270  -0.27244  -0.27182  -0.26840
 Alpha  occ. eigenvalues --   -0.26687  -0.26429  -0.26353  -0.25967  -0.25563
 Alpha  occ. eigenvalues --   -0.25531  -0.25505  -0.25217  -0.25182  -0.24769
 Alpha  occ. eigenvalues --   -0.24292  -0.23717  -0.23469  -0.22819  -0.21492
 Alpha  occ. eigenvalues --   -0.14265  -0.13713  -0.11810
 Alpha virt. eigenvalues --   -0.10616  -0.07405  -0.03867  -0.03688  -0.03308
 Alpha virt. eigenvalues --   -0.02961  -0.02664  -0.01858  -0.01698  -0.01576
 Alpha virt. eigenvalues --   -0.01081  -0.00804  -0.00457  -0.00356  -0.00078

 Mulliken charges:
               1
     1  C    0.038501
     2  C    0.042269
     3  O   -0.276235
     4  H    0.028108
     5  H    0.035077
     6  H    0.040973
     7  N   -0.114186
     8  C    0.062987
     9  C    0.107810
    10  O   -0.265170
    11  C    0.171929
    12  C    0.063888
    13  O   -0.374951
    14  O   -0.482454
    15  H    0.109459
    16  H    0.019067
    17  H   -0.004757
    18  H    0.023883
    19  N   -0.125150
    20  C    0.132152
    21  C    0.006363
    22  O   -0.277586
    23  C    0.113741
    24  C   -0.086448
    25  C    0.040380
    26  C    0.000115
    27  N    0.080614
    28  H    0.109384
    29  H    0.035891
    30  H    0.012883
    31  H    0.030120
    32  H    0.018912
    33  H   -0.009390
    34  H    0.040094
    35  H    0.024998
    36  H    0.067398
    37  H    0.054855
    38  H    0.172717
    39  H    0.151490
    40  H    0.165752
    41  N   -0.186899
    42  C    0.126514
    43  C    0.012705
    44  O   -0.294018
    45  C    0.181252
    46  C    0.074777
    47  O   -0.463695
    48  O   -0.370390
    49  H    0.155567
    50  H    0.051016
    51  H   -0.027247
    52  H    0.029447
    53  N   -0.160908
    54  C    0.226637
    55  C    0.043706
    56  O   -0.268115
    57  H    0.129015
    58  H    0.056310
    59  H    0.026329
    60  N   -0.139174
    61  C    0.060580
    62  C    0.173659
    63  O   -0.400619
    64  C    0.065695
    65  C    0.026521
    66  N   -0.031505
    67  O   -0.306032
    68  H    0.160486
    69  H    0.011257
    70  H    0.029524
    71  H    0.039514
    72  H    0.127349
    73  H    0.145823
    74  N   -0.096088
    75  C    0.235007
    76  C   -0.001796
    77  O   -0.281789
    78  H    0.132326
    79  H    0.040612
    80  H    0.055419
    81  N   -0.140940
    82  C    0.140263
    83  C    0.184782
    84  O   -0.323764
    85  C    0.108402
    86  C   -0.013828
    87  C    0.009593
    88  C   -0.022808
    89  C   -0.005306
    90  C   -0.038149
    91  C    0.179192
    92  O   -0.195741
    93  H    0.129655
    94  H   -0.019068
    95  H   -0.015423
    96  H    0.018218
    97  H   -0.058282
    98  H   -0.042529
    99  H   -0.029335
   100  H   -0.043316
   101  H    0.181379
   102  N   -0.101830
   103  C    0.118563
   104  C    0.071709
   105  O   -0.266564
   106  C   -0.122980
   107  C    0.021821
   108  C    0.089949
   109  C    0.032726
   110  H    0.128196
   111  H   -0.026787
   112  H   -0.013674
   113  H   -0.042184
   114  H    0.022269
   115  H    0.003181
   116  H    0.008799
   117  H    0.019899
   118  H    0.018655
   119  H   -0.045271
   120  H    0.046048
   121  N   -0.121646
   122  C    0.078184
   123  C    0.075412
   124  O   -0.255843
   125  C    0.246947
   126  O   -0.312131
   127  H    0.118620
   128  H    0.029221
   129  H   -0.011006
   130  H    0.026720
   131  H    0.192312
   132  N   -0.155090
   133  C    0.011022
   134  C    0.066111
   135  O   -0.257149
   136  C    0.107013
   137  H    0.129353
   138  H    0.025408
   139  H    0.044770
   140  H    0.029306
   141  H   -0.026904
   142  N   -0.072285
   143  C    0.021649
   144  C    0.052395
   145  O   -0.288416
   146  C    0.088768
   147  H    0.126165
   148  H   -0.017695
   149  H    0.010270
   150  H    0.019739
   151  H    0.010403
   152  N   -0.086734
   153  C    0.037002
   154  C    0.079843
   155  O   -0.290898
   156  C    0.069149
   157  C    0.041900
   158  C    0.058439
   159  O   -0.368531
   160  O   -0.372800
   161  H    0.118154
   162  H    0.005332
   163  H    0.004339
   164  H   -0.005532
   165  H   -0.009785
   166  H   -0.081337
   167  N   -0.143408
   168  C    0.134694
   169  H    0.025774
   170  H    0.020894
   171  H    0.039044
   172  H    0.099680
   173  Ca   1.256670
   174  O   -0.309074
   175  H    0.168003
   176  H    0.177790
 Sum of Mulliken charges =  -0.00000

 Dipole moment (field-independent basis, Debye):
    X=            -14.3651    Y=            -21.6276    Z=             -7.1798  Tot=             26.9381
 Quadrupole moment (field-independent basis, Debye-Ang):
   XX=           -774.0412   YY=           -663.4314   ZZ=           -500.1374
   XY=            -62.5631   XZ=             46.4532   YZ=            -52.0019

 ESP charges:
               1
     1  C   -0.456758
     2  C    0.802535
     3  O   -0.596161
     4  H    0.113505
     5  H    0.125136
     6  H    0.131156
     7  N   -0.702695
     8  C    0.237172
     9  C    0.596687
    10  O   -0.529672
    11  C   -0.271969
    12  C    0.792601
    13  O   -0.735321
    14  O   -0.742730
    15  H    0.342913
    16  H    0.037604
    17  H    0.081256
    18  H    0.111668
    19  N   -0.478482
    20  C    0.280045
    21  C    0.381897
    22  O   -0.537970
    23  C   -0.358079
    24  C    0.273656
    25  C   -0.247044
    26  C    0.106241
    27  N   -0.310408
    28  H    0.186720
    29  H    0.077831
    30  H    0.078490
    31  H    0.102819
    32  H    0.020083
    33  H    0.024977
    34  H    0.100943
    35  H    0.076082
    36  H    0.044341
    37  H    0.057257
    38  H    0.291067
    39  H    0.204239
    40  H    0.319912
    41  N   -0.292422
    42  C    0.182287
    43  C    0.445377
    44  O   -0.552003
    45  C   -0.395415
    46  C    0.766546
    47  O   -0.758495
    48  O   -0.642049
    49  H    0.156501
    50  H    0.105995
    51  H    0.076439
    52  H    0.117399
    53  N   -0.177802
    54  C   -0.292625
    55  C    0.645048
    56  O   -0.572356
    57  H    0.098711
    58  H    0.163975
    59  H    0.128157
    60  N   -0.351634
    61  C   -0.047298
    62  C    0.625007
    63  O   -0.483728
    64  C   -0.197454
    65  C    0.696051
    66  N   -0.827667
    67  O   -0.583026
    68  H    0.268060
    69  H    0.081083
    70  H    0.080709
    71  H    0.098867
    72  H    0.361875
    73  H    0.412432
    74  N   -0.419948
    75  C   -0.134379
    76  C    0.554970
    77  O   -0.575612
    78  H    0.288517
    79  H    0.123798
    80  H    0.128982
    81  N   -0.317325
    82  C   -0.106380
    83  C    0.465265
    84  O   -0.472750
    85  C   -0.024736
    86  C   -0.082161
    87  C   -0.122178
    88  C    0.010947
    89  C   -0.300575
    90  C   -0.422452
    91  C    0.478357
    92  O   -0.587234
    93  H    0.236643
    94  H    0.089321
    95  H    0.046788
    96  H    0.060114
    97  H    0.130379
    98  H    0.086213
    99  H    0.168397
   100  H    0.160368
   101  H    0.433710
   102  N   -0.037609
   103  C   -0.799203
   104  C    0.802919
   105  O   -0.516856
   106  C    0.507740
   107  C    0.048913
   108  C   -0.307280
   109  C   -0.264892
   110  H    0.215329
   111  H    0.255629
   112  H   -0.067719
   113  H    0.033003
   114  H    0.006622
   115  H    0.078910
   116  H    0.053292
   117  H    0.082303
   118  H    0.076945
   119  H    0.008037
   120  H    0.086110
   121  N   -0.406048
   122  C   -0.295533
   123  C    0.730196
   124  O   -0.536570
   125  C    0.083236
   126  O   -0.574846
   127  H    0.143539
   128  H    0.178002
   129  H    0.020144
   130  H    0.080897
   131  H    0.426839
   132  N   -0.529246
   133  C    0.317472
   134  C    0.444164
   135  O   -0.517986
   136  C   -0.378829
   137  H    0.375585
   138  H    0.011691
   139  H    0.135774
   140  H    0.106956
   141  H    0.068976
   142  N   -0.490879
   143  C    0.243327
   144  C    0.709440
   145  O   -0.590679
   146  C   -0.343533
   147  H    0.314933
   148  H    0.010893
   149  H    0.107028
   150  H    0.094092
   151  H    0.092748
   152  N   -0.865633
   153  C    0.044714
   154  C    0.610073
   155  O   -0.568173
   156  C    0.052660
   157  C   -0.227671
   158  C    0.651795
   159  O   -0.642591
   160  O   -0.661629
   161  H    0.403922
   162  H    0.002743
   163  H    0.094265
   164  H   -0.018473
   165  H    0.066564
   166  H   -0.000062
   167  N   -0.274138
   168  C   -0.223924
   169  H    0.103407
   170  H    0.108765
   171  H    0.108181
   172  H    0.251272
   173  Ca   1.496447
   174  O   -0.991031
   175  H    0.458646
   176  H    0.460766
 Sum of ESP charges =   0.00000

 Normal termination of Gaussian 16 at Wed Sep 18 11:20:34 2019.
