 Gaussian 16, Revision A.03,
 Gaussian 16:  ES64L-G16RevA.03 25-Dec-2016

 ----------------------------------------------------------------------
 #b3lyp/svp scf=(tight,noincore) Test #IOP(5/87=12) Density=Current Pop
 =(MK,readradii) iop(6/33=2) iop(6/42=6)
 ----------------------------------------------------------------------

 ----------------
 Ng-293_loop3_6.0
 ----------------
 Symbolic Z-matrix:
 Charge =  0 Multiplicity = 1

                         Standard orientation:
 ---------------------------------------------------------------------
 Center     Atomic      Atomic             Coordinates (Angstroms)
 Number     Number       Type             X           Y           Z
 ---------------------------------------------------------------------
      1          6           0        9.597242   -2.589765   -6.694778
      2          6           0        9.816415   -2.710998   -5.201002
      3          8           0       10.958275   -2.522124   -4.783648
      4          1           0        8.638824   -3.037963   -6.958771
      5          1           0        9.594762   -1.537397   -6.977782
      6          1           0       10.397297   -3.107335   -7.223670
      7          7           0        8.785342   -3.070884   -4.438067
      8          6           0        8.795227   -3.153688   -2.983300
      9          6           0        7.748334   -2.242585   -2.349734
     10          8           0        6.774350   -1.998112   -3.061414
     11          6           0        8.515760   -4.620485   -2.677680
     12          6           0        9.050294   -4.960411   -1.291706
     13          8           0        9.635921   -4.123844   -0.574352
     14          8           0        8.867949   -6.114306   -0.834893
     15          1           0        7.874503   -3.293069   -4.815168
     16          1           0        9.772845   -2.818966   -2.628018
     17          1           0        8.993264   -5.234425   -3.429523
     18          1           0        7.442609   -4.801918   -2.718041
     19          7           0        7.887769   -1.914103   -1.072057
     20          6           0        6.872444   -1.351837   -0.197832
     21          6           0        5.656051   -2.267570   -0.100773
     22          8           0        5.634095   -3.377989   -0.615446
     23          6           0        6.496664    0.087980   -0.521432
     24          6           0        7.700639    1.017058   -0.697660
     25          6           0        8.438827    1.215465    0.623330
     26          6           0        9.570039    2.193396    0.311386
     27          7           0       10.755458    1.644812   -0.375008
     28          1           0        8.701457   -2.311228   -0.630012
     29          1           0        7.287359   -1.306769    0.809498
     30          1           0        5.944125    0.422869    0.358085
     31          1           0        5.964249    0.248932   -1.449079
     32          1           0        7.187598    1.947821   -0.950387
     33          1           0        8.325995    0.628478   -1.502915
     34          1           0        8.831148    0.301193    1.068292
     35          1           0        7.695231    1.698072    1.258354
     36          1           0        9.742265    2.628128    1.302469
     37          1           0        9.173745    2.961767   -0.348280
     38          1           0       10.520276    0.850455   -0.957061
     39          1           0       11.222535    2.307580   -0.971900
     40          1           0       11.442103    1.358339    0.303926
     41          7           0        4.688545   -1.969671    0.784545
     42          6           0        3.680192   -2.815793    1.382377
     43          6           0        2.325686   -2.700092    0.693517
     44          8           0        2.168888   -3.212036   -0.410262
     45          6           0        3.624102   -2.672964    2.900683
     46          6           0        3.621895   -1.263401    3.491045
     47          8           0        4.691923   -0.621789    3.622097
     48          8           0        2.569797   -0.683776    3.810612
     49          1           0        4.609372   -0.985945    1.014574
     50          1           0        3.954619   -3.841557    1.129794
     51          1           0        4.473158   -3.240881    3.266709
     52          1           0        2.695654   -3.113783    3.248627
     53          7           0        1.415197   -1.865148    1.186749
     54          6           0        0.124599   -1.662950    0.552970
     55          6           0       -0.986289   -2.651203    0.873881
     56          8           0       -1.504040   -3.372499    0.023843
     57          1           0        1.700433   -1.292794    1.968574
     58          1           0        0.157853   -1.540881   -0.530585
     59          1           0       -0.261354   -0.688815    0.876237
     60          7           0       -1.411842   -2.536014    2.127171
     61          6           0       -2.293071   -3.556988    2.670537
     62          6           0       -3.768042   -3.407252    2.338511
     63          8           0       -4.354859   -2.377445    2.645827
     64          6           0       -2.018502   -3.775780    4.160652
     65          6           0       -2.590837   -5.083262    4.666639
     66          7           0       -1.893006   -6.210414    4.508655
     67          8           0       -3.682248   -5.176626    5.226288
     68          1           0       -1.039374   -1.795728    2.703839
     69          1           0       -1.975470   -4.509829    2.247900
     70          1           0       -2.513836   -2.977723    4.707598
     71          1           0       -0.937332   -3.735755    4.321177
     72          1           0       -1.118013   -6.254069    3.850490
     73          1           0       -2.313379   -7.101788    4.747694
     74          7           0       -4.380655   -4.458449    1.769837
     75          6           0       -5.735741   -4.331262    1.285104
     76          6           0       -5.779982   -3.486101    0.027391
     77          8           0       -5.051712   -3.766418   -0.931121
     78          1           0       -3.767620   -5.188263    1.458453
     79          1           0       -6.301775   -3.910370    2.126921
     80          1           0       -6.297451   -5.250264    1.132404
     81          7           0       -6.758425   -2.588340   -0.078324
     82          6           0       -7.093797   -1.732208   -1.198843
     83          6           0       -6.018425   -0.852264   -1.820433
     84          8           0       -6.330060   -0.025557   -2.671748
     85          6           0       -7.830703   -2.619409   -2.200364
     86          6           0       -9.148986   -3.207462   -1.751675
     87          6           0       -9.376328   -4.590741   -1.735722
     88          6           0      -10.215536   -2.382592   -1.384712
     89          6           0      -10.579872   -5.168650   -1.323530
     90          6           0      -11.479109   -2.933155   -1.161857
     91          6           0      -11.665493   -4.324372   -1.024828
     92          8           0      -12.837696   -4.962254   -0.752710
     93          1           0       -7.281885   -2.410313    0.777769
     94          1           0       -7.839310   -1.048245   -0.796095
     95          1           0       -7.111562   -3.357836   -2.561421
     96          1           0       -8.152522   -1.988873   -3.031362
     97          1           0       -8.484783   -5.202567   -1.851119
     98          1           0      -10.044622   -1.316830   -1.359443
     99          1           0      -10.765555   -6.232888   -1.257806
    100          1           0      -12.297352   -2.280570   -0.886882
    101          1           0      -13.571193   -4.336400   -0.722895
    102          7           0       -4.876958   -0.725782   -1.139437
    103          6           0       -3.837925    0.274048   -1.217237
    104          6           0       -4.248889    1.696891   -0.856094
    105          8           0       -3.479235    2.287677   -0.091565
    106          6           0       -3.214855    0.213710   -2.609733
    107          6           0       -2.774387   -1.131953   -3.160804
    108          6           0       -2.043784    1.180970   -2.689734
    109          6           0       -2.270863   -1.102511   -4.602780
    110          1           0       -4.674719   -1.438191   -0.455059
    111          1           0       -2.982169   -0.032021   -0.598446
    112          1           0       -3.950814    0.582299   -3.327720
    113          1           0       -3.667195   -1.767754   -3.196150
    114          1           0       -2.105778   -1.622460   -2.452804
    115          1           0       -1.286664    1.060000   -1.913115
    116          1           0       -1.562755    1.155902   -3.675068
    117          1           0       -2.371322    2.224693   -2.708732
    118          1           0       -2.155500   -2.095350   -5.025701
    119          1           0       -2.890521   -0.450105   -5.224222
    120          1           0       -1.249646   -0.712705   -4.673250
    121          7           0       -5.449873    2.136605   -1.218845
    122          6           0       -6.123349    3.259744   -0.585371
    123          6           0       -5.588383    4.637806   -0.970023
    124          8           0       -5.881028    5.650540   -0.345421
    125          6           0       -7.613957    3.233295   -0.884014
    126          8           0       -8.034999    1.934712   -0.565726
    127          1           0       -6.067381    1.522282   -1.730793
    128          1           0       -6.033405    3.084833    0.492690
    129          1           0       -7.845409    3.415960   -1.933520
    130          1           0       -8.060845    4.023409   -0.266429
    131          1           0       -9.002010    1.916318   -0.558621
    132          7           0       -4.633691    4.677497   -1.894949
    133          6           0       -3.923310    5.866411   -2.315000
    134          6           0       -3.007799    6.447588   -1.245293
    135          8           0       -2.546414    7.578068   -1.335516
    136          6           0       -4.855383    6.834105   -3.036392
    137          1           0       -4.439077    3.779012   -2.321974
    138          1           0       -3.286088    5.530496   -3.142290
    139          1           0       -5.534026    7.410782   -2.395699
    140          1           0       -4.320088    7.544619   -3.654882
    141          1           0       -5.482043    6.186804   -3.654776
    142          7           0       -2.549100    5.604330   -0.322574
    143          6           0       -1.672333    5.908535    0.794940
    144          6           0       -0.252977    5.620591    0.335572
    145          8           0       -0.042502    4.858070   -0.606586
    146          6           0       -2.060338    4.892608    1.865568
    147          1           0       -2.746916    4.625505   -0.476753
    148          1           0       -1.763513    6.929503    1.161969
    149          1           0       -1.397546    4.917984    2.723334
    150          1           0       -3.071810    5.124316    2.183272
    151          1           0       -2.164930    3.899457    1.427832
    152          7           0        0.734310    6.254393    0.979745
    153          6           0        2.162183    6.015751    0.892395
    154          6           0        2.823767    6.155479   -0.468628
    155          8           0        3.947727    5.681403   -0.628836
    156          6           0        2.467945    4.702238    1.598153
    157          6           0        1.944790    4.527202    3.017403
    158          6           0        2.504160    3.266946    3.655730
    159          8           0        3.603130    2.813208    3.285613
    160          8           0        1.827525    2.666798    4.520882
    161          1           0        0.462904    6.946780    1.667014
    162          1           0        2.668272    6.820651    1.441311
    163          1           0        3.543977    4.502207    1.549760
    164          1           0        2.119674    3.834460    1.042935
    165          1           0        0.869647    4.476571    2.875618
    166          1           0        2.237490    5.410795    3.594108
    167          7           0        2.200872    6.908733   -1.368133
    168          6           0        2.501774    6.814918   -2.782685
    169          1           0        2.868321    5.813976   -3.010292
    170          1           0        1.598422    7.010329   -3.360750
    171          1           0        3.265558    7.548405   -3.041699
    172          1           0        1.375834    7.405406   -1.056480
    173         20           0        3.685493    1.101433    5.433342
    174          8           0        4.190328    3.543291    6.263444
    175          1           0        3.732685    4.127851    6.869539
    176          1           0        4.973375    4.033643    6.000970
 ---------------------------------------------------------------------

 SCF Done:  E(RB3LYP) =  -5333.37315564     A.U. after   27 cycles

 The electronic state is 1-A.
 Alpha  occ. eigenvalues -- -145.45725 -19.22746 -19.16885 -19.14927 -19.10306
 Alpha  occ. eigenvalues --  -19.10086 -19.09887 -19.09858 -19.09417 -19.09218
 Alpha  occ. eigenvalues --  -19.09082 -19.08717 -19.08630 -19.08568 -19.08169
 Alpha  occ. eigenvalues --  -19.07146 -19.06583 -19.06581 -19.06527 -19.06446
 Alpha  occ. eigenvalues --  -19.05901 -19.04540 -18.99052 -18.97721 -15.51696
 Alpha  occ. eigenvalues --  -14.57699 -14.36596 -14.36257 -14.36048 -14.35805
 Alpha  occ. eigenvalues --  -14.35504 -14.35322 -14.35066 -14.34715 -14.34077
 Alpha  occ. eigenvalues --  -14.33800 -14.33327 -14.32482 -14.32427 -14.30878
 Alpha  occ. eigenvalues --  -12.65294 -12.65243 -12.65214 -10.33818 -10.29267
 Alpha  occ. eigenvalues --  -10.28889 -10.28823 -10.28530 -10.28401 -10.27973
 Alpha  occ. eigenvalues --  -10.27619 -10.27485 -10.27159 -10.26933 -10.26316
 Alpha  occ. eigenvalues --  -10.26100 -10.25914 -10.25679 -10.25337 -10.25256
 Alpha  occ. eigenvalues --  -10.24649 -10.24649 -10.24452 -10.24412 -10.24101
 Alpha  occ. eigenvalues --  -10.23893 -10.23334 -10.23216 -10.22861 -10.22735
 Alpha  occ. eigenvalues --  -10.22735 -10.22675 -10.22483 -10.22035 -10.21567
 Alpha  occ. eigenvalues --  -10.21204 -10.21009 -10.19980 -10.19583 -10.19546
 Alpha  occ. eigenvalues --  -10.19187 -10.19005 -10.18773 -10.18716 -10.18662
 Alpha  occ. eigenvalues --  -10.17777 -10.17674 -10.17247 -10.17187 -10.17147
 Alpha  occ. eigenvalues --  -10.16828 -10.15956 -10.15889 -10.15685 -10.15609
 Alpha  occ. eigenvalues --  -10.15523 -10.12051  -1.88499  -1.15990  -1.15566
 Alpha  occ. eigenvalues --   -1.15529  -1.12764  -1.08553  -1.05352  -1.04362
 Alpha  occ. eigenvalues --   -1.04266  -1.03702  -1.03446  -1.02660  -1.02493
 Alpha  occ. eigenvalues --   -1.02338  -1.02079  -1.01969  -1.01839  -1.01585
 Alpha  occ. eigenvalues --   -1.00891  -1.00669  -1.00086  -0.99837  -0.98734
 Alpha  occ. eigenvalues --   -0.97415  -0.93468  -0.93114  -0.93028  -0.92838
 Alpha  occ. eigenvalues --   -0.92789  -0.92517  -0.92247  -0.92109  -0.91275
 Alpha  occ. eigenvalues --   -0.91025  -0.90359  -0.90125  -0.90018  -0.89900
 Alpha  occ. eigenvalues --   -0.89530  -0.89511  -0.88143  -0.87433  -0.85173
 Alpha  occ. eigenvalues --   -0.82347  -0.81056  -0.80635  -0.80183  -0.79053
 Alpha  occ. eigenvalues --   -0.78632  -0.77842  -0.77653  -0.76051  -0.75112
 Alpha  occ. eigenvalues --   -0.74938  -0.74652  -0.74332  -0.73233  -0.72900
 Alpha  occ. eigenvalues --   -0.72520  -0.72357  -0.71975  -0.71936  -0.71230
 Alpha  occ. eigenvalues --   -0.69298  -0.68700  -0.68687  -0.68292  -0.67525
 Alpha  occ. eigenvalues --   -0.66008  -0.65814  -0.65436  -0.64597  -0.63216
 Alpha  occ. eigenvalues --   -0.62696  -0.62612  -0.62044  -0.61799  -0.61778
 Alpha  occ. eigenvalues --   -0.61187  -0.61000  -0.60622  -0.60115  -0.60105
 Alpha  occ. eigenvalues --   -0.59261  -0.58831  -0.58663  -0.58599  -0.58196
 Alpha  occ. eigenvalues --   -0.57938  -0.57828  -0.56915  -0.56578  -0.56089
 Alpha  occ. eigenvalues --   -0.55826  -0.55592  -0.55345  -0.55047  -0.54826
 Alpha  occ. eigenvalues --   -0.54768  -0.54266  -0.54227  -0.54167  -0.53865
 Alpha  occ. eigenvalues --   -0.53305  -0.52741  -0.52357  -0.51921  -0.51810
 Alpha  occ. eigenvalues --   -0.51754  -0.51458  -0.51091  -0.50800  -0.50154
 Alpha  occ. eigenvalues --   -0.49856  -0.49835  -0.49628  -0.49411  -0.48951
 Alpha  occ. eigenvalues --   -0.48557  -0.48189  -0.47912  -0.47842  -0.47588
 Alpha  occ. eigenvalues --   -0.47065  -0.46801  -0.46780  -0.46515  -0.45892
 Alpha  occ. eigenvalues --   -0.45813  -0.45507  -0.45358  -0.45043  -0.44989
 Alpha  occ. eigenvalues --   -0.44934  -0.44749  -0.44390  -0.44302  -0.44225
 Alpha  occ. eigenvalues --   -0.44103  -0.43925  -0.43730  -0.43566  -0.43316
 Alpha  occ. eigenvalues --   -0.43287  -0.43086  -0.43024  -0.42683  -0.42636
 Alpha  occ. eigenvalues --   -0.42398  -0.42220  -0.42075  -0.41969  -0.41893
 Alpha  occ. eigenvalues --   -0.41573  -0.41393  -0.41287  -0.41146  -0.41056
 Alpha  occ. eigenvalues --   -0.41012  -0.40703  -0.40549  -0.40471  -0.40340
 Alpha  occ. eigenvalues --   -0.40261  -0.40184  -0.40113  -0.40021  -0.39843
 Alpha  occ. eigenvalues --   -0.39662  -0.39616  -0.39396  -0.39289  -0.39252
 Alpha  occ. eigenvalues --   -0.38998  -0.38967  -0.38809  -0.38782  -0.38754
 Alpha  occ. eigenvalues --   -0.38629  -0.38397  -0.38206  -0.38170  -0.37832
 Alpha  occ. eigenvalues --   -0.37649  -0.37316  -0.37301  -0.37080  -0.36989
 Alpha  occ. eigenvalues --   -0.36885  -0.36784  -0.36620  -0.36568  -0.36174
 Alpha  occ. eigenvalues --   -0.36115  -0.35928  -0.35673  -0.35501  -0.35489
 Alpha  occ. eigenvalues --   -0.35378  -0.35243  -0.35125  -0.34987  -0.34791
 Alpha  occ. eigenvalues --   -0.34692  -0.34471  -0.34132  -0.34062  -0.34026
 Alpha  occ. eigenvalues --   -0.33881  -0.33467  -0.33128  -0.33056  -0.33011
 Alpha  occ. eigenvalues --   -0.32813  -0.32051  -0.31636  -0.31626  -0.30881
 Alpha  occ. eigenvalues --   -0.29617  -0.29238  -0.29181  -0.28450  -0.28137
 Alpha  occ. eigenvalues --   -0.27992  -0.27952  -0.27709  -0.27502  -0.27405
 Alpha  occ. eigenvalues --   -0.27061  -0.26964  -0.26706  -0.26541  -0.26318
 Alpha  occ. eigenvalues --   -0.25982  -0.25676  -0.25248  -0.25208  -0.25103
 Alpha  occ. eigenvalues --   -0.25053  -0.24938  -0.24882  -0.24264  -0.24219
 Alpha  occ. eigenvalues --   -0.23993  -0.23937  -0.23737  -0.23725  -0.23649
 Alpha  occ. eigenvalues --   -0.23498  -0.22894  -0.22534  -0.22490  -0.22372
 Alpha  occ. eigenvalues --   -0.22046  -0.21735  -0.21277  -0.21112  -0.20371
 Alpha  occ. eigenvalues --   -0.16321  -0.15447  -0.12375
 Alpha virt. eigenvalues --   -0.11388  -0.09184  -0.04069  -0.02896  -0.02682
 Alpha virt. eigenvalues --   -0.02070  -0.00608  -0.00097   0.00099   0.00448
 Alpha virt. eigenvalues --    0.00596   0.01150   0.01346   0.01374   0.01711

 Mulliken charges:
               1
     1  C    0.071519
     2  C    0.001983
     3  O   -0.319910
     4  H   -0.010685
     5  H    0.021630
     6  H    0.028254
     7  N   -0.114021
     8  C    0.075833
     9  C    0.062193
    10  O   -0.295872
    11  C    0.082664
    12  C    0.080928
    13  O   -0.389006
    14  O   -0.331297
    15  H    0.119734
    16  H   -0.022295
    17  H    0.005864
    18  H    0.021176
    19  N   -0.109394
    20  C    0.070063
    21  C    0.112101
    22  O   -0.217927
    23  C    0.065496
    24  C   -0.031141
    25  C   -0.053972
    26  C    0.035047
    27  N    0.090273
    28  H    0.096982
    29  H    0.013596
    30  H    0.009836
    31  H    0.030635
    32  H    0.032067
    33  H    0.005006
    34  H    0.043947
    35  H    0.057542
    36  H    0.073731
    37  H    0.056899
    38  H    0.197007
    39  H    0.191580
    40  H    0.193166
    41  N   -0.145183
    42  C    0.108336
    43  C    0.026913
    44  O   -0.241729
    45  C    0.163400
    46  C    0.056991
    47  O   -0.433557
    48  O   -0.414869
    49  H    0.119573
    50  H    0.031909
    51  H    0.009909
    52  H   -0.009429
    53  N   -0.150928
    54  C    0.196983
    55  C    0.042719
    56  O   -0.252540
    57  H    0.116952
    58  H    0.032592
    59  H    0.019070
    60  N   -0.119234
    61  C    0.086967
    62  C    0.102550
    63  O   -0.282481
    64  C    0.127950
    65  C   -0.045655
    66  N   -0.051032
    67  O   -0.252836
    68  H    0.129001
    69  H   -0.026909
    70  H    0.024982
    71  H    0.010786
    72  H    0.116460
    73  H    0.130865
    74  N   -0.120481
    75  C    0.206390
    76  C    0.026078
    77  O   -0.281282
    78  H    0.127887
    79  H    0.009483
    80  H    0.042622
    81  N   -0.125194
    82  C    0.085184
    83  C    0.141848
    84  O   -0.319154
    85  C    0.152725
    86  C   -0.038665
    87  C   -0.000504
    88  C   -0.029798
    89  C   -0.009877
    90  C   -0.026970
    91  C    0.137709
    92  O   -0.195514
    93  H    0.132706
    94  H    0.010223
    95  H    0.015347
    96  H    0.018454
    97  H   -0.019408
    98  H   -0.037997
    99  H   -0.020301
   100  H   -0.042831
   101  H    0.175374
   102  N   -0.099507
   103  C    0.185117
   104  C    0.069750
   105  O   -0.278442
   106  C   -0.174306
   107  C    0.048551
   108  C    0.086417
   109  C    0.023249
   110  H    0.139215
   111  H    0.004932
   112  H   -0.010209
   113  H    0.000042
   114  H    0.007360
   115  H    0.014788
   116  H   -0.006866
   117  H   -0.022268
   118  H    0.010580
   119  H    0.000941
   120  H    0.009986
   121  N   -0.144597
   122  C    0.094429
   123  C    0.050066
   124  O   -0.273350
   125  C    0.208333
   126  O   -0.304529
   127  H    0.152484
   128  H    0.028703
   129  H   -0.007705
   130  H    0.028011
   131  H    0.172355
   132  N   -0.140331
   133  C    0.058501
   134  C    0.083826
   135  O   -0.289595
   136  C    0.063253
   137  H    0.129986
   138  H    0.025091
   139  H    0.031208
   140  H    0.018416
   141  H   -0.008624
   142  N   -0.115683
   143  C    0.081096
   144  C    0.070025
   145  O   -0.272099
   146  C    0.041956
   147  H    0.134599
   148  H    0.001344
   149  H    0.012025
   150  H    0.021381
   151  H    0.043842
   152  N   -0.138718
   153  C    0.113224
   154  C    0.057106
   155  O   -0.290765
   156  C   -0.009635
   157  C    0.104486
   158  C    0.102167
   159  O   -0.415881
   160  O   -0.448818
   161  H    0.114482
   162  H    0.001883
   163  H    0.007704
   164  H    0.006762
   165  H    0.004845
   166  H   -0.032952
   167  N   -0.134063
   168  C    0.142386
   169  H    0.036704
   170  H    0.024484
   171  H    0.013456
   172  H    0.122659
   173  Ca   1.235459
   174  O   -0.294490
   175  H    0.192096
   176  H    0.187854
 Sum of Mulliken charges =  -0.00000

 Dipole moment (field-independent basis, Debye):
    X=              6.5716    Y=             23.0344    Z=             19.9565  Tot=             31.1774
 Quadrupole moment (field-independent basis, Debye-Ang):
   XX=           -382.5247   YY=           -644.9654   ZZ=           -474.3046
   XY=            264.7116   XZ=            125.6552   YZ=              3.1554

 ESP charges:
               1
     1  C   -0.444572
     2  C    0.762964
     3  O   -0.615069
     4  H    0.094740
     5  H    0.105497
     6  H    0.127676
     7  N   -0.739358
     8  C    0.598719
     9  C    0.338906
    10  O   -0.509495
    11  C   -0.383464
    12  C    0.720734
    13  O   -0.682180
    14  O   -0.623680
    15  H    0.334801
    16  H   -0.092544
    17  H    0.104296
    18  H    0.104879
    19  N   -0.487607
    20  C    0.359887
    21  C    0.507228
    22  O   -0.446169
    23  C   -0.409292
    24  C    0.219047
    25  C   -0.235006
    26  C    0.127120
    27  N   -0.521229
    28  H    0.243148
    29  H   -0.001894
    30  H    0.102263
    31  H    0.131056
    32  H    0.021479
    33  H   -0.039699
    34  H    0.102837
    35  H    0.125302
    36  H    0.052644
    37  H    0.043728
    38  H    0.371482
    39  H    0.375296
    40  H    0.375102
    41  N   -0.574396
    42  C    0.505695
    43  C    0.340963
    44  O   -0.488862
    45  C   -0.475450
    46  C    0.742207
    47  O   -0.767583
    48  O   -0.725279
    49  H    0.281744
    50  H    0.006823
    51  H    0.135415
    52  H    0.070620
    53  N   -0.348818
    54  C   -0.138110
    55  C    0.780491
    56  O   -0.573555
    57  H    0.280275
    58  H    0.125732
    59  H    0.085016
    60  N   -0.799493
    61  C    0.455465
    62  C    0.505817
    63  O   -0.534013
    64  C   -0.330208
    65  C    0.661906
    66  N   -0.787490
    67  O   -0.545973
    68  H    0.367731
    69  H   -0.028600
    70  H    0.095455
    71  H    0.101235
    72  H    0.342888
    73  H    0.370479
    74  N   -0.540411
    75  C    0.148064
    76  C    0.634816
    77  O   -0.533561
    78  H    0.292927
    79  H    0.039567
    80  H    0.055785
    81  N   -0.814802
    82  C    0.215324
    83  C    0.575287
    84  O   -0.587307
    85  C   -0.301740
    86  C    0.223419
    87  C   -0.239266
    88  C   -0.164777
    89  C   -0.204128
    90  C   -0.291178
    91  C    0.327485
    92  O   -0.533051
    93  H    0.364865
    94  H    0.083517
    95  H    0.145724
    96  H    0.074578
    97  H    0.140643
    98  H    0.127436
    99  H    0.159487
   100  H    0.128177
   101  H    0.408067
   102  N   -0.475013
   103  C   -0.195617
   104  C    0.813490
   105  O   -0.596533
   106  C    0.241494
   107  C    0.258100
   108  C   -0.349651
   109  C   -0.322319
   110  H    0.360929
   111  H    0.080377
   112  H   -0.014225
   113  H   -0.035713
   114  H   -0.064758
   115  H    0.073067
   116  H    0.075628
   117  H    0.076858
   118  H    0.085319
   119  H    0.058713
   120  H    0.069853
   121  N   -0.605498
   122  C    0.089443
   123  C    0.308341
   124  O   -0.503453
   125  C    0.215792
   126  O   -0.615874
   127  H    0.377417
   128  H    0.107673
   129  H    0.018164
   130  H    0.016530
   131  H    0.397661
   132  N   -0.155684
   133  C    0.180591
   134  C    0.455894
   135  O   -0.549248
   136  C   -0.249469
   137  H    0.134536
   138  H    0.048136
   139  H    0.093562
   140  H    0.070143
   141  H    0.041818
   142  N   -0.350696
   143  C    0.299128
   144  C    0.512822
   145  O   -0.493907
   146  C   -0.227648
   147  H    0.132009
   148  H    0.001343
   149  H    0.019814
   150  H    0.066045
   151  H    0.111782
   152  N   -0.700366
   153  C    0.090109
   154  C    0.364510
   155  O   -0.499355
   156  C    0.396515
   157  C   -0.591254
   158  C    0.872900
   159  O   -0.681317
   160  O   -0.749733
   161  H    0.341140
   162  H    0.046443
   163  H   -0.105397
   164  H   -0.006871
   165  H    0.163324
   166  H    0.100697
   167  N   -0.233497
   168  C   -0.167270
   169  H    0.116244
   170  H    0.101651
   171  H    0.061292
   172  H    0.257203
   173  Ca   1.438602
   174  O   -0.872860
   175  H    0.446187
   176  H    0.431288
 Sum of ESP charges =  -0.00000

 Normal termination of Gaussian 16 at Tue Sep 17 12:56:40 2019.
