 Gaussian 16, Revision A.03,
 Gaussian 16:  ES64L-G16RevA.03 25-Dec-2016

 ----------------------------------------------------------------------
 #b3lyp/svp scf=(tight,noincore) Test #IOP(5/87=12) Density=Current Pop
 =(MK,readradii) iop(6/33=2) iop(6/42=6)
 ----------------------------------------------------------------------

 -----------------
 Ng-295_loop3_41.0
 -----------------
 Symbolic Z-matrix:
 Charge =  0 Multiplicity = 1

                         Standard orientation:
 ---------------------------------------------------------------------
 Center     Atomic      Atomic             Coordinates (Angstroms)
 Number     Number       Type             X           Y           Z
 ---------------------------------------------------------------------
      1          6           0      -10.762503    5.120514    3.603089
      2          6           0      -10.068714    4.246129    2.575855
      3          8           0      -10.219215    4.475174    1.376236
      4          1           0      -10.119627    5.235771    4.475745
      5          1           0      -10.964382    6.099738    3.169759
      6          1           0      -11.701044    4.654552    3.903538
      7          7           0       -9.358713    3.184284    2.947585
      8          6           0       -8.659558    2.384670    1.962547
      9          6           0       -9.488340    1.259231    1.351067
     10          8           0       -9.618673    0.160167    1.874300
     11          6           0       -7.349619    1.986465    2.646136
     12          6           0       -6.229886    1.693683    1.655087
     13          8           0       -5.683318    2.672904    1.085096
     14          8           0       -6.091873    0.520984    1.269822
     15          1           0       -8.988205    3.048250    3.876196
     16          1           0       -8.276014    2.982963    1.137963
     17          1           0       -7.393259    1.127282    3.309159
     18          1           0       -7.076925    2.780601    3.341899
     19          7           0       -9.935114    1.553239    0.121412
     20          6           0      -10.987206    0.872826   -0.600904
     21          6           0      -10.569609   -0.434521   -1.261855
     22          8           0      -11.468952   -1.256017   -1.445503
     23          6           0      -11.662503    1.779733   -1.626766
     24          6           0      -12.482734    2.862304   -0.926292
     25          6           0      -13.132100    3.871102   -1.877685
     26          6           0      -13.846035    4.944391   -1.060527
     27          7           0      -14.950310    4.412496   -0.247714
     28          1           0       -9.503750    2.312831   -0.376529
     29          1           0      -11.774003    0.618478    0.111035
     30          1           0      -12.339859    1.241329   -2.285788
     31          1           0      -10.916423    2.277962   -2.241935
     32          1           0      -11.775048    3.386587   -0.284025
     33          1           0      -13.288346    2.386847   -0.360493
     34          1           0      -13.736667    3.333009   -2.608133
     35          1           0      -12.339257    4.382821   -2.425539
     36          1           0      -14.379117    5.611831   -1.746492
     37          1           0      -13.177177    5.565408   -0.468608
     38          1           0      -15.592610    3.999556   -0.901267
     39          1           0      -14.784952    3.684401    0.438459
     40          1           0      -15.442304    5.226762    0.097269
     41          7           0       -9.275160   -0.680956   -1.492228
     42          6           0       -8.816058   -1.968853   -1.951191
     43          6           0       -8.163790   -2.772102   -0.833543
     44          8           0       -7.721051   -3.887489   -1.067622
     45          6           0       -8.022152   -1.734821   -3.229996
     46          6           0       -6.583828   -1.257933   -3.075398
     47          8           0       -5.762038   -1.163741   -4.012782
     48          8           0       -6.280114   -0.846520   -1.935267
     49          1           0       -8.677630    0.131182   -1.554592
     50          1           0       -9.651667   -2.600089   -2.245469
     51          1           0       -8.600242   -0.993558   -3.785101
     52          1           0       -8.000706   -2.659845   -3.814181
     53          7           0       -8.143407   -2.332437    0.432387
     54          6           0       -7.508334   -3.021620    1.530208
     55          6           0       -6.009383   -3.272685    1.393416
     56          8           0       -5.334475   -3.607003    2.359765
     57          1           0       -8.491014   -1.430900    0.720485
     58          1           0       -8.023418   -3.968822    1.712406
     59          1           0       -7.591920   -2.370091    2.405493
     60          7           0       -5.408291   -2.902902    0.265918
     61          6           0       -4.027079   -3.062735   -0.166871
     62          6           0       -3.169126   -1.898656    0.303698
     63          8           0       -3.526197   -0.725086    0.208117
     64          6           0       -3.968333   -3.308632   -1.667732
     65          6           0       -2.723696   -4.115652   -1.993304
     66          7           0       -2.695924   -5.450027   -2.113602
     67          8           0       -1.656079   -3.567291   -2.235779
     68          1           0       -5.976961   -2.582182   -0.502621
     69          1           0       -3.687907   -3.989645    0.309155
     70          1           0       -3.911961   -2.366322   -2.216616
     71          1           0       -4.828642   -3.880999   -2.020527
     72          1           0       -3.516835   -6.030662   -2.053869
     73          1           0       -1.831575   -5.948981   -2.223360
     74          7           0       -2.017938   -2.264636    0.881647
     75          6           0       -1.301766   -1.285166    1.668945
     76          6           0        0.161200   -1.618469    1.912340
     77          8           0        0.908438   -0.833004    2.489645
     78          1           0       -1.773502   -3.242179    0.840893
     79          1           0       -1.777938   -1.186175    2.651371
     80          1           0       -1.480835   -0.306585    1.230297
     81          7           0        0.625810   -2.784752    1.462318
     82          6           0        2.031356   -3.153064    1.523840
     83          6           0        2.892378   -2.391782    0.536930
     84          8           0        2.695678   -2.369064   -0.679866
     85          6           0        2.092705   -4.650309    1.249446
     86          6           0        3.410143   -5.274619    1.659684
     87          6           0        4.439412   -5.218284    0.717966
     88          6           0        3.639657   -5.698733    2.969779
     89          6           0        5.701385   -5.739130    1.030128
     90          6           0        4.910121   -6.216693    3.271006
     91          6           0        5.948235   -6.230470    2.326797
     92          8           0        7.180742   -6.712642    2.690301
     93          1           0        0.019923   -3.454034    1.007166
     94          1           0        2.409325   -3.029013    2.545188
     95          1           0        1.817861   -4.873670    0.217956
     96          1           0        1.369327   -5.140992    1.893384
     97          1           0        4.140496   -4.909790   -0.274143
     98          1           0        2.833335   -5.575895    3.674659
     99          1           0        6.474163   -5.732988    0.269223
    100          1           0        5.111592   -6.671516    4.221977
    101          1           0        7.258396   -6.932913    3.625315
    102          7           0        3.931451   -1.802681    1.133577
    103          6           0        4.948067   -0.967849    0.515558
    104          6           0        5.923956   -1.664445   -0.419424
    105          8           0        5.598940   -2.683500   -1.032280
    106          6           0        4.431605    0.316160   -0.122791
    107          6           0        3.555933    1.160197    0.791759
    108          6           0        3.792489    0.229256   -1.510912
    109          6           0        4.261223    1.635176    2.050195
    110          1           0        4.027037   -1.950102    2.129183
    111          1           0        5.661816   -0.809492    1.322023
    112          1           0        5.306035    0.949563   -0.273359
    113          1           0        2.691871    0.540129    1.045354
    114          1           0        3.233374    2.042170    0.234463
    115          1           0        2.751283   -0.072371   -1.374855
    116          1           0        3.853305    1.217467   -1.971064
    117          1           0        4.352035   -0.441631   -2.158846
    118          1           0        3.549349    2.194067    2.660012
    119          1           0        4.458249    0.767651    2.678431
    120          1           0        5.163704    2.227191    1.919631
    121          7           0        7.131548   -1.122005   -0.600482
    122          6           0        8.021719   -1.572995   -1.646954
    123          6           0        9.515983   -1.349432   -1.470050
    124          8           0       10.297419   -1.622155   -2.380148
    125          6           0        7.572013   -1.070444   -3.015898
    126          8           0        7.540712    0.332399   -3.108907
    127          1           0        7.340746   -0.206157   -0.223708
    128          1           0        7.933270   -2.660595   -1.618610
    129          1           0        6.549584   -1.384973   -3.252777
    130          1           0        8.129407   -1.550760   -3.816403
    131          1           0        8.294643    0.884925   -3.337824
    132          7           0        9.870744   -0.668972   -0.374733
    133          6           0       11.227089   -0.514987    0.106535
    134          6           0       12.144742    0.017973   -0.997261
    135          8           0       13.114585   -0.582595   -1.445169
    136          6           0       11.741905   -1.805577    0.723578
    137          1           0        9.124801   -0.287856    0.179991
    138          1           0       11.133647    0.220757    0.904939
    139          1           0       11.783678   -2.621849    0.000974
    140          1           0       12.800075   -1.635286    0.931851
    141          1           0       11.158483   -2.059086    1.611976
    142          7           0       11.960627    1.262879   -1.442695
    143          6           0       10.934402    2.232743   -1.151444
    144          6           0       11.519990    3.591886   -0.795187
    145          8           0       12.643168    3.921712   -1.152796
    146          6           0       10.018329    2.320257   -2.370235
    147          1           0       12.796806    1.642583   -1.854556
    148          1           0       10.425133    1.892443   -0.246656
    149          1           0        8.976970    2.509587   -2.122998
    150          1           0       10.322277    3.169348   -2.989235
    151          1           0        9.933563    1.447039   -3.023232
    152          7           0       10.757249    4.556187   -0.255048
    153          6           0        9.429062    4.414742    0.294873
    154          6           0        9.444885    4.419668    1.817477
    155          8           0        8.555423    3.905563    2.490867
    156          6           0        8.463351    5.421826   -0.326484
    157          6           0        7.039936    4.889102   -0.502534
    158          6           0        6.177306    6.001765   -1.079987
    159          8           0        5.535781    6.729951   -0.288538
    160          8           0        6.205166    6.244127   -2.302191
    161          1           0       11.163469    5.463816   -0.111543
    162          1           0        9.044078    3.435530   -0.006509
    163          1           0        8.863040    5.672744   -1.312532
    164          1           0        8.378395    6.245955    0.382947
    165          1           0        6.772428    4.568881    0.494711
    166          1           0        7.028677    4.079405   -1.237152
    167          7           0       10.392328    5.115944    2.444415
    168          6           0       10.460888    5.191611    3.889467
    169          1           0       11.342543    4.655101    4.239599
    170          1           0       10.525403    6.235872    4.196917
    171          1           0        9.567243    4.739952    4.320015
    172          1           0       11.087950    5.570700    1.870040
    173         20           0       -4.948886    1.043868   -1.038039
    174          8           0       -2.501882    1.144962   -2.220431
    175          1           0       -1.602157    1.099165   -1.872153
    176          1           0       -2.393639    1.019655   -3.166307
 ---------------------------------------------------------------------

 SCF Done:  E(RB3LYP) =  -5333.35871094     A.U. after   58 cycles

 The electronic state is 1-A.
 Alpha  occ. eigenvalues -- -145.46388 -19.21472 -19.15224 -19.14518 -19.14424
 Alpha  occ. eigenvalues --  -19.14019 -19.11945 -19.10419 -19.10401 -19.10313
 Alpha  occ. eigenvalues --  -19.10027 -19.09855 -19.09390 -19.09137 -19.08316
 Alpha  occ. eigenvalues --  -19.08096 -19.08051 -19.07878 -19.07782 -19.07337
 Alpha  occ. eigenvalues --  -19.06779 -19.06053 -18.97111 -18.97095 -15.52250
 Alpha  occ. eigenvalues --  -14.56500 -14.40390 -14.40148 -14.38765 -14.38223
 Alpha  occ. eigenvalues --  -14.36487 -14.35656 -14.35013 -14.34989 -14.34926
 Alpha  occ. eigenvalues --  -14.34441 -14.34017 -14.33993 -14.33711 -14.31770
 Alpha  occ. eigenvalues --  -12.65857 -12.65814 -12.65788 -10.35207 -10.33072
 Alpha  occ. eigenvalues --  -10.32881 -10.31809 -10.30800 -10.29353 -10.29115
 Alpha  occ. eigenvalues --  -10.28968 -10.28674 -10.28480 -10.27985 -10.27880
 Alpha  occ. eigenvalues --  -10.27412 -10.27269 -10.27263 -10.26946 -10.26785
 Alpha  occ. eigenvalues --  -10.26725 -10.26161 -10.25607 -10.25604 -10.25515
 Alpha  occ. eigenvalues --  -10.25329 -10.24479 -10.24454 -10.24346 -10.24049
 Alpha  occ. eigenvalues --  -10.23207 -10.22927 -10.22584 -10.22535 -10.22085
 Alpha  occ. eigenvalues --  -10.21230 -10.20985 -10.20866 -10.20849 -10.20705
 Alpha  occ. eigenvalues --  -10.20270 -10.20114 -10.19073 -10.18755 -10.18282
 Alpha  occ. eigenvalues --  -10.17861 -10.17687 -10.17497 -10.17391 -10.16515
 Alpha  occ. eigenvalues --  -10.16317 -10.16219 -10.14748 -10.14553 -10.14373
 Alpha  occ. eigenvalues --  -10.13763 -10.10999  -1.88942  -1.16451  -1.16128
 Alpha  occ. eigenvalues --   -1.15974  -1.12641  -1.07781  -1.06927  -1.06907
 Alpha  occ. eigenvalues --   -1.06620  -1.05083  -1.04944  -1.03936  -1.03427
 Alpha  occ. eigenvalues --   -1.03326  -1.03269  -1.02979  -1.02017  -1.01840
 Alpha  occ. eigenvalues --   -1.01383  -1.01172  -1.00362  -1.00147  -0.99440
 Alpha  occ. eigenvalues --   -0.98002  -0.97618  -0.96662  -0.95591  -0.95050
 Alpha  occ. eigenvalues --   -0.94794  -0.92837  -0.92588  -0.92350  -0.91865
 Alpha  occ. eigenvalues --   -0.91475  -0.91271  -0.90942  -0.90903  -0.90587
 Alpha  occ. eigenvalues --   -0.89749  -0.89657  -0.89308  -0.89027  -0.84873
 Alpha  occ. eigenvalues --   -0.84303  -0.81901  -0.81228  -0.80455  -0.79969
 Alpha  occ. eigenvalues --   -0.79714  -0.78389  -0.78186  -0.76939  -0.76806
 Alpha  occ. eigenvalues --   -0.75955  -0.75352  -0.74975  -0.74022  -0.73497
 Alpha  occ. eigenvalues --   -0.73257  -0.73165  -0.72347  -0.71078  -0.70694
 Alpha  occ. eigenvalues --   -0.70196  -0.70074  -0.69216  -0.68595  -0.68391
 Alpha  occ. eigenvalues --   -0.67199  -0.66319  -0.65858  -0.65576  -0.65444
 Alpha  occ. eigenvalues --   -0.65393  -0.64995  -0.63756  -0.63122  -0.62686
 Alpha  occ. eigenvalues --   -0.61991  -0.61548  -0.61445  -0.61425  -0.60446
 Alpha  occ. eigenvalues --   -0.60273  -0.60136  -0.60039  -0.59475  -0.59205
 Alpha  occ. eigenvalues --   -0.58647  -0.58387  -0.58308  -0.58121  -0.57600
 Alpha  occ. eigenvalues --   -0.56904  -0.56716  -0.56203  -0.56193  -0.56029
 Alpha  occ. eigenvalues --   -0.55564  -0.54885  -0.54591  -0.54293  -0.54104
 Alpha  occ. eigenvalues --   -0.54030  -0.53897  -0.53698  -0.53157  -0.52532
 Alpha  occ. eigenvalues --   -0.52500  -0.52220  -0.52012  -0.51557  -0.51318
 Alpha  occ. eigenvalues --   -0.50891  -0.50725  -0.50681  -0.50338  -0.49781
 Alpha  occ. eigenvalues --   -0.49729  -0.49452  -0.49392  -0.48813  -0.48649
 Alpha  occ. eigenvalues --   -0.48228  -0.47933  -0.47877  -0.47535  -0.47300
 Alpha  occ. eigenvalues --   -0.47265  -0.47154  -0.47041  -0.46660  -0.46464
 Alpha  occ. eigenvalues --   -0.46455  -0.46160  -0.45877  -0.45581  -0.45469
 Alpha  occ. eigenvalues --   -0.45330  -0.45100  -0.44790  -0.44657  -0.44534
 Alpha  occ. eigenvalues --   -0.44502  -0.44467  -0.44349  -0.44294  -0.44071
 Alpha  occ. eigenvalues --   -0.43904  -0.43669  -0.43544  -0.43530  -0.43422
 Alpha  occ. eigenvalues --   -0.43147  -0.42840  -0.42728  -0.42661  -0.42098
 Alpha  occ. eigenvalues --   -0.41880  -0.41854  -0.41766  -0.41594  -0.41316
 Alpha  occ. eigenvalues --   -0.41271  -0.41102  -0.40958  -0.40734  -0.40512
 Alpha  occ. eigenvalues --   -0.40338  -0.40268  -0.40218  -0.40210  -0.40074
 Alpha  occ. eigenvalues --   -0.39945  -0.39830  -0.39659  -0.39501  -0.39164
 Alpha  occ. eigenvalues --   -0.38974  -0.38925  -0.38905  -0.38729  -0.38504
 Alpha  occ. eigenvalues --   -0.38353  -0.38208  -0.38176  -0.38161  -0.37812
 Alpha  occ. eigenvalues --   -0.37784  -0.37557  -0.37482  -0.37410  -0.37362
 Alpha  occ. eigenvalues --   -0.36817  -0.36690  -0.36491  -0.36352  -0.36322
 Alpha  occ. eigenvalues --   -0.35728  -0.35621  -0.35562  -0.35477  -0.35257
 Alpha  occ. eigenvalues --   -0.34907  -0.34622  -0.34587  -0.34215  -0.33896
 Alpha  occ. eigenvalues --   -0.33740  -0.33370  -0.33158  -0.33028  -0.32222
 Alpha  occ. eigenvalues --   -0.32009  -0.31693  -0.31554  -0.30839  -0.30538
 Alpha  occ. eigenvalues --   -0.30220  -0.30081  -0.29772  -0.29720  -0.29537
 Alpha  occ. eigenvalues --   -0.29422  -0.29073  -0.28605  -0.28268  -0.27875
 Alpha  occ. eigenvalues --   -0.27846  -0.27575  -0.27368  -0.27311  -0.27272
 Alpha  occ. eigenvalues --   -0.27184  -0.27076  -0.26829  -0.26526  -0.26110
 Alpha  occ. eigenvalues --   -0.25854  -0.25810  -0.25692  -0.25556  -0.25492
 Alpha  occ. eigenvalues --   -0.25121  -0.24877  -0.24590  -0.24166  -0.24022
 Alpha  occ. eigenvalues --   -0.23689  -0.23582  -0.23554  -0.23253  -0.23193
 Alpha  occ. eigenvalues --   -0.22437  -0.22068  -0.21955  -0.21722  -0.21447
 Alpha  occ. eigenvalues --   -0.14233  -0.14111  -0.11095
 Alpha virt. eigenvalues --   -0.10598  -0.09102  -0.04850  -0.04417  -0.04122
 Alpha virt. eigenvalues --   -0.02517  -0.02197  -0.01532  -0.01443  -0.01169
 Alpha virt. eigenvalues --   -0.00834  -0.00025   0.00578   0.00602   0.01119

 Mulliken charges:
               1
     1  C    0.069883
     2  C    0.032516
     3  O   -0.314716
     4  H    0.027063
     5  H    0.031504
     6  H    0.036237
     7  N   -0.106287
     8  C    0.051383
     9  C    0.123276
    10  O   -0.250983
    11  C    0.122885
    12  C    0.067213
    13  O   -0.429937
    14  O   -0.386583
    15  H    0.130075
    16  H    0.002676
    17  H    0.017496
    18  H   -0.011328
    19  N   -0.135599
    20  C    0.106760
    21  C    0.082228
    22  O   -0.280847
    23  C    0.054919
    24  C   -0.055711
    25  C    0.013291
    26  C    0.064358
    27  N    0.145599
    28  H    0.121471
    29  H    0.015575
    30  H    0.022600
    31  H   -0.011767
    32  H    0.033795
    33  H   -0.032764
    34  H    0.025136
    35  H    0.037089
    36  H    0.034401
    37  H    0.078792
    38  H    0.093321
    39  H    0.130592
    40  H    0.094440
    41  N   -0.142702
    42  C    0.185561
    43  C    0.040212
    44  O   -0.294204
    45  C    0.054394
    46  C    0.088157
    47  O   -0.332405
    48  O   -0.511952
    49  H    0.089663
    50  H    0.033158
    51  H    0.007682
    52  H    0.034167
    53  N   -0.154434
    54  C    0.216178
    55  C    0.028656
    56  O   -0.300884
    57  H    0.132703
    58  H    0.034293
    59  H    0.040003
    60  N   -0.111498
    61  C    0.022009
    62  C    0.209087
    63  O   -0.381387
    64  C    0.156978
    65  C   -0.061361
    66  N   -0.042769
    67  O   -0.266024
    68  H    0.162986
    69  H   -0.003176
    70  H    0.032817
    71  H    0.023123
    72  H    0.111149
    73  H    0.128161
    74  N   -0.160858
    75  C    0.225092
    76  C    0.049723
    77  O   -0.277801
    78  H    0.138729
    79  H    0.049952
    80  H    0.036818
    81  N   -0.121560
    82  C    0.140870
    83  C    0.105478
    84  O   -0.255889
    85  C    0.088846
    86  C   -0.109468
    87  C    0.035459
    88  C    0.007305
    89  C   -0.027401
    90  C   -0.033984
    91  C    0.187742
    92  O   -0.209554
    93  H    0.109542
    94  H   -0.014449
    95  H    0.021066
    96  H   -0.019881
    97  H    0.010737
    98  H   -0.036514
    99  H   -0.013445
   100  H   -0.053294
   101  H    0.175434
   102  N   -0.121874
   103  C    0.169920
   104  C    0.067924
   105  O   -0.259378
   106  C   -0.122812
   107  C    0.023974
   108  C    0.108232
   109  C    0.027062
   110  H    0.126412
   111  H   -0.022627
   112  H   -0.015982
   113  H    0.002217
   114  H    0.003487
   115  H    0.004448
   116  H    0.005063
   117  H    0.015406
   118  H    0.003055
   119  H   -0.026929
   120  H    0.034628
   121  N   -0.157021
   122  C    0.092834
   123  C    0.060773
   124  O   -0.256179
   125  C    0.271321
   126  O   -0.351379
   127  H    0.122606
   128  H    0.031528
   129  H    0.012542
   130  H    0.005501
   131  H    0.166980
   132  N   -0.141709
   133  C   -0.008059
   134  C    0.088306
   135  O   -0.249324
   136  C    0.103891
   137  H    0.100862
   138  H    0.014040
   139  H    0.035763
   140  H    0.016418
   141  H   -0.001107
   142  N   -0.105688
   143  C    0.024143
   144  C    0.064512
   145  O   -0.265176
   146  C    0.040070
   147  H    0.126621
   148  H    0.001202
   149  H    0.022991
   150  H    0.032266
   151  H    0.031006
   152  N   -0.107714
   153  C    0.062213
   154  C    0.064027
   155  O   -0.278874
   156  C    0.048442
   157  C    0.055763
   158  C    0.043048
   159  O   -0.342971
   160  O   -0.345211
   161  H    0.119254
   162  H    0.001518
   163  H    0.008247
   164  H    0.001339
   165  H   -0.013050
   166  H   -0.024012
   167  N   -0.156401
   168  C    0.124282
   169  H    0.016203
   170  H    0.020330
   171  H    0.054314
   172  H    0.097123
   173  Ca   1.382156
   174  O   -0.326693
   175  H    0.213466
   176  H    0.203349
 Sum of Mulliken charges =  -0.00000

 Dipole moment (field-independent basis, Debye):
    X=            -63.1207    Y=              5.5610    Z=              8.3014  Tot=             63.9067
 Quadrupole moment (field-independent basis, Debye-Ang):
   XX=           -134.0642   YY=           -595.7791   ZZ=           -560.5485
   XY=           -328.1789   XZ=            113.3818   YZ=              0.6631

 ESP charges:
               1
     1  C   -0.483888
     2  C    0.696449
     3  O   -0.579220
     4  H    0.132699
     5  H    0.143216
     6  H    0.126427
     7  N   -0.456270
     8  C   -0.014210
     9  C    0.469253
    10  O   -0.465968
    11  C    0.059169
    12  C    0.651024
    13  O   -0.758420
    14  O   -0.693431
    15  H    0.284302
    16  H    0.056809
    17  H    0.011762
    18  H    0.017833
    19  N   -0.470513
    20  C    0.215575
    21  C    0.409646
    22  O   -0.544215
    23  C   -0.245849
    24  C    0.323140
    25  C   -0.191320
    26  C    0.114404
    27  N   -0.265508
    28  H    0.295260
    29  H    0.066639
    30  H    0.082453
    31  H    0.058315
    32  H   -0.070513
    33  H   -0.080634
    34  H    0.056154
    35  H    0.078993
    36  H    0.037591
    37  H    0.073911
    38  H    0.225441
    39  H    0.257437
    40  H    0.213765
    41  N   -0.396233
    42  C    0.382777
    43  C    0.322193
    44  O   -0.521688
    45  C   -0.449639
    46  C    0.842268
    47  O   -0.654471
    48  O   -0.872585
    49  H    0.210146
    50  H    0.061419
    51  H    0.103703
    52  H    0.113656
    53  N   -0.103737
    54  C   -0.315183
    55  C    0.456446
    56  O   -0.562527
    57  H    0.134649
    58  H    0.143368
    59  H    0.173423
    60  N    0.231815
    61  C   -0.501133
    62  C    0.746739
    63  O   -0.611077
    64  C   -0.288019
    65  C    0.807008
    66  N   -0.854868
    67  O   -0.594491
    68  H    0.019203
    69  H    0.136931
    70  H    0.106316
    71  H    0.165863
    72  H    0.353782
    73  H    0.391664
    74  N   -0.429031
    75  C   -0.147301
    76  C    0.572203
    77  O   -0.556926
    78  H    0.297081
    79  H    0.128228
    80  H    0.125091
    81  N   -0.412339
    82  C    0.094927
    83  C    0.500697
    84  O   -0.508433
    85  C   -0.217675
    86  C    0.089984
    87  C   -0.251297
    88  C   -0.149698
    89  C   -0.194317
    90  C   -0.326688
    91  C    0.385190
    92  O   -0.568410
    93  H    0.259182
    94  H    0.054235
    95  H    0.101228
    96  H    0.061738
    97  H    0.196784
    98  H    0.136208
    99  H    0.162309
   100  H    0.139827
   101  H    0.414505
   102  N   -0.323291
   103  C   -0.204223
   104  C    0.692106
   105  O   -0.513894
   106  C    0.536943
   107  C   -0.144089
   108  C   -0.512920
   109  C   -0.083141
   110  H    0.274947
   111  H    0.050633
   112  H   -0.073813
   113  H    0.031876
   114  H    0.036456
   115  H    0.109388
   116  H    0.095623
   117  H    0.171268
   118  H    0.052040
   119  H    0.003782
   120  H   -0.006169
   121  N   -0.528183
   122  C   -0.394701
   123  C    0.598008
   124  O   -0.501927
   125  C    0.398645
   126  O   -0.664773
   127  H    0.276385
   128  H    0.176786
   129  H    0.024025
   130  H   -0.004018
   131  H    0.396370
   132  N   -0.225966
   133  C   -0.033650
   134  C    0.618151
   135  O   -0.516321
   136  C   -0.371273
   137  H    0.233569
   138  H    0.106950
   139  H    0.131045
   140  H    0.107515
   141  H    0.097620
   142  N   -0.693729
   143  C    0.603960
   144  C    0.299192
   145  O   -0.503687
   146  C   -0.258472
   147  H    0.321203
   148  H   -0.114927
   149  H    0.078707
   150  H    0.091864
   151  H    0.063446
   152  N   -0.323106
   153  C   -0.351160
   154  C    0.630476
   155  O   -0.525297
   156  C    0.062138
   157  C   -0.233465
   158  C    0.661371
   159  O   -0.620467
   160  O   -0.624651
   161  H    0.288544
   162  H    0.108933
   163  H    0.047395
   164  H    0.039107
   165  H    0.097904
   166  H    0.037818
   167  N   -0.363249
   168  C   -0.048909
   169  H    0.038326
   170  H    0.061970
   171  H    0.084043
   172  H    0.263273
   173  Ca   1.656552
   174  O   -0.866646
   175  H    0.453424
   176  H    0.447608
 Sum of ESP charges =  -0.00000

 Normal termination of Gaussian 16 at Wed Sep 18 11:26:00 2019.
