 Gaussian 16, Revision A.03,
 Gaussian 16:  ES64L-G16RevA.03 25-Dec-2016

 ----------------------------------------------------------------------
 #b3lyp/svp scf=(tight,noincore) Test #IOP(5/87=12) Density=Current Pop
 =(MK,readradii) iop(6/33=2) iop(6/42=6)
 ----------------------------------------------------------------------

 -----------------
 Ng-293_loop3_57.0
 -----------------
 Symbolic Z-matrix:
 Charge =  0 Multiplicity = 1

                         Standard orientation:
 ---------------------------------------------------------------------
 Center     Atomic      Atomic             Coordinates (Angstroms)
 Number     Number       Type             X           Y           Z
 ---------------------------------------------------------------------
      1          6           0        8.694581    0.162424    4.879782
      2          6           0        8.337500    0.920661    3.612869
      3          8           0        7.368424    0.633614    2.903577
      4          1           0        8.792861   -0.899225    4.651546
      5          1           0        9.638848    0.538119    5.274826
      6          1           0        7.908364    0.302569    5.622221
      7          7           0        9.093114    1.957806    3.241009
      8          6           0        8.988217    2.713222    2.004020
      9          6           0        9.160887    2.008601    0.662865
     10          8           0        8.757895    2.512203   -0.384839
     11          6           0        7.691864    3.512975    2.106794
     12          6           0        7.864939    4.822902    1.353177
     13          8           0        6.910955    5.271871    0.676315
     14          8           0        8.894366    5.505965    1.510990
     15          1           0        9.912152    2.137119    3.801031
     16          1           0        9.775227    3.465807    2.065911
     17          1           0        7.420063    3.701150    3.155276
     18          1           0        6.845380    2.984517    1.688349
     19          7           0        9.742566    0.805092    0.626595
     20          6           0        9.808811   -0.074822   -0.522607
     21          6           0        8.470775   -0.707090   -0.918705
     22          8           0        8.404303   -1.292421   -1.994377
     23          6           0       10.962103   -1.056204   -0.355854
     24          6           0       12.344798   -0.392096   -0.333108
     25          6           0       13.417625   -1.473920   -0.313111
     26          6           0       14.776665   -0.949585    0.133079
     27          7           0       15.806650   -1.991955    0.150245
     28          1           0       10.049095    0.464730    1.523474
     29          1           0       10.096612    0.466841   -1.426583
     30          1           0       10.970101   -1.785012   -1.167011
     31          1           0       10.779014   -1.509680    0.616379
     32          1           0       12.345025    0.246933    0.550658
     33          1           0       12.430047    0.173193   -1.268940
     34          1           0       13.614564   -1.933243   -1.287604
     35          1           0       13.227757   -2.336506    0.323439
     36          1           0       14.718502   -0.420058    1.080875
     37          1           0       15.028243   -0.238838   -0.656888
     38          1           0       16.115781   -2.341639   -0.746839
     39          1           0       16.517268   -1.602741    0.754839
     40          1           0       15.544368   -2.846351    0.619196
     41          7           0        7.417950   -0.724118   -0.094708
     42          6           0        6.037546   -0.891606   -0.507665
     43          6           0        5.350395    0.445117   -0.762992
     44          8           0        5.450956    1.353670    0.062550
     45          6           0        5.282596   -1.766615    0.488784
     46          6           0        3.935662   -2.251429   -0.049011
     47          8           0        3.140620   -2.809705    0.740379
     48          8           0        3.777861   -2.321422   -1.285578
     49          1           0        7.577965   -0.426283    0.857284
     50          1           0        5.970213   -1.368759   -1.475648
     51          1           0        5.087236   -1.242110    1.429384
     52          1           0        5.912451   -2.643725    0.598605
     53          7           0        4.505258    0.510755   -1.788436
     54          6           0        3.376162    1.423270   -1.868172
     55          6           0        2.002883    0.771312   -1.828759
     56          8           0        1.735705   -0.345420   -2.292361
     57          1           0        4.543180   -0.132239   -2.562982
     58          1           0        3.508387    2.019735   -2.762514
     59          1           0        3.356360    2.239536   -1.143108
     60          7           0        1.111611    1.550328   -1.221824
     61          6           0       -0.249991    1.111320   -0.970007
     62          6           0       -1.334196    2.107171   -1.380106
     63          8           0       -2.456978    1.661101   -1.591014
     64          6           0       -0.397023    0.796813    0.510151
     65          6           0        0.501933   -0.288721    1.096148
     66          7           0        0.520149   -1.492503    0.504982
     67          8           0        1.220624   -0.030082    2.054840
     68          1           0        1.401663    2.428952   -0.819717
     69          1           0       -0.526523    0.232346   -1.546231
     70          1           0       -1.455786    0.501704    0.515835
     71          1           0       -0.175069    1.749142    0.991822
     72          1           0        0.012346   -1.687068   -0.350168
     73          1           0        1.227372   -2.149629    0.778881
     74          7           0       -1.083732    3.397875   -1.594703
     75          6           0       -2.019763    4.457208   -1.914169
     76          6           0       -3.076898    4.613349   -0.837004
     77          8           0       -2.889200    4.556991    0.376295
     78          1           0       -0.171249    3.756880   -1.357448
     79          1           0       -2.365718    4.237533   -2.919235
     80          1           0       -1.462311    5.400899   -1.861295
     81          7           0       -4.334291    4.831242   -1.237737
     82          6           0       -5.518505    4.606854   -0.432141
     83          6           0       -5.627709    3.361706    0.434278
     84          8           0       -6.504714    3.274304    1.290445
     85          6           0       -5.818869    5.864327    0.373058
     86          6           0       -5.854344    7.082999   -0.509709
     87          6           0       -4.756457    7.940205   -0.444566
     88          6           0       -6.877421    7.278817   -1.443556
     89          6           0       -4.690829    9.032576   -1.332439
     90          6           0       -6.794811    8.370105   -2.320919
     91          6           0       -5.754883    9.312100   -2.210480
     92          8           0       -5.735626   10.369176   -3.065126
     93          1           0       -4.537225    4.929879   -2.231764
     94          1           0       -6.392440    4.484085   -1.068903
     95          1           0       -5.051921    6.046958    1.131765
     96          1           0       -6.766608    5.834481    0.911761
     97          1           0       -3.961285    7.772694    0.270515
     98          1           0       -7.782920    6.671493   -1.432236
     99          1           0       -3.823565    9.678551   -1.392176
    100          1           0       -7.652411    8.516096   -2.956378
    101          1           0       -6.499940   10.331729   -3.641859
    102          7           0       -4.781829    2.358621    0.182071
    103          6           0       -4.757446    1.033045    0.767267
    104          6           0       -5.981904    0.258379    0.306186
    105          8           0       -5.789104   -0.722945   -0.391906
    106          6           0       -4.484104    1.034465    2.266794
    107          6           0       -3.562567    2.151291    2.719750
    108          6           0       -3.903077   -0.350574    2.536377
    109          6           0       -3.009266    2.212382    4.134644
    110          1           0       -4.111282    2.624943   -0.531398
    111          1           0       -3.996857    0.523493    0.170894
    112          1           0       -5.417708    1.193446    2.821148
    113          1           0       -3.997861    3.146049    2.612164
    114          1           0       -2.679890    2.014430    2.078696
    115          1           0       -2.834670   -0.359540    2.350567
    116          1           0       -4.153694   -0.643169    3.558179
    117          1           0       -4.502902   -1.068166    1.966315
    118          1           0       -2.511352    3.175679    4.266707
    119          1           0       -3.814395    2.196392    4.863006
    120          1           0       -2.389954    1.342064    4.357349
    121          7           0       -7.166623    0.648093    0.776254
    122          6           0       -8.484606    0.179792    0.383681
    123          6           0       -8.634017   -1.293825    0.758687
    124          8           0       -9.091781   -2.111257   -0.032171
    125          6           0       -9.671169    0.911845    1.025215
    126          8           0       -9.655367    2.208336    0.486272
    127          1           0       -7.063167    1.552386    1.216084
    128          1           0       -8.596542    0.178784   -0.691526
    129          1           0       -9.470408    0.945440    2.093469
    130          1           0      -10.622068    0.467565    0.746095
    131          1           0       -9.887903    2.806108    1.209042
    132          7           0       -8.265633   -1.654457    1.991220
    133          6           0       -8.447701   -2.975537    2.548891
    134          6           0       -8.098362   -4.135657    1.617503
    135          8           0       -8.785493   -5.154213    1.671298
    136          6           0       -9.856680   -3.060124    3.123108
    137          1           0       -7.882095   -0.945513    2.605385
    138          1           0       -7.698735   -3.073291    3.345819
    139          1           0      -10.582883   -2.881199    2.335825
    140          1           0      -10.002509   -4.034660    3.581815
    141          1           0       -9.937884   -2.268504    3.868724
    142          7           0       -6.986188   -4.087734    0.891092
    143          6           0       -6.599744   -5.138525   -0.031892
    144          6           0       -5.095396   -5.289535   -0.175529
    145          8           0       -4.381698   -4.412937    0.322076
    146          6           0       -7.111514   -4.718256   -1.407197
    147          1           0       -6.496610   -3.212138    0.951468
    148          1           0       -7.096653   -6.078431    0.217427
    149          1           0       -8.177152   -4.542180   -1.265730
    150          1           0       -6.634763   -3.797465   -1.759124
    151          1           0       -6.914011   -5.541774   -2.096626
    152          7           0       -4.615371   -6.351398   -0.832205
    153          6           0       -3.226188   -6.747527   -0.776960
    154          6           0       -2.628829   -6.908554    0.619977
    155          8           0       -1.421454   -7.155894    0.660806
    156          6           0       -2.302597   -5.966407   -1.713032
    157          6           0       -1.086056   -6.685072   -2.268415
    158          6           0       -0.654083   -5.999592   -3.561789
    159          8           0        0.188893   -5.075639   -3.477518
    160          8           0       -0.963058   -6.480714   -4.672580
    161          1           0       -5.236265   -7.036538   -1.231671
    162          1           0       -3.235788   -7.748080   -1.188060
    163          1           0       -1.981275   -4.988282   -1.351198
    164          1           0       -2.968642   -5.792337   -2.559959
    165          1           0       -1.378660   -7.698181   -2.528017
    166          1           0       -0.366988   -6.656474   -1.448218
    167          7           0       -3.366201   -6.988543    1.727038
    168          6           0       -2.774245   -6.965107    3.056564
    169          1           0       -2.623894   -7.987396    3.404776
    170          1           0       -1.814548   -6.450134    3.018567
    171          1           0       -3.440731   -6.442023    3.742057
    172          1           0       -4.365054   -6.862116    1.755480
    173         20           0        1.862196   -3.096880   -2.742215
    174          8           0        3.928891   -2.158630   -3.986706
    175          1           0        4.858913   -2.403584   -3.954206
    176          1           0        3.871139   -1.525062   -4.703474
 ---------------------------------------------------------------------

 SCF Done:  E(RB3LYP) =  -5333.31537377     A.U. after   31 cycles

 The electronic state is 1-A.
 Alpha  occ. eigenvalues -- -145.47339 -19.21918 -19.16733 -19.15173 -19.13124
 Alpha  occ. eigenvalues --  -19.13065 -19.11950 -19.10342 -19.08431 -19.08231
 Alpha  occ. eigenvalues --  -19.08175 -19.07944 -19.07897 -19.07378 -19.06999
 Alpha  occ. eigenvalues --  -19.06959 -19.06591 -19.06526 -19.06393 -19.04491
 Alpha  occ. eigenvalues --  -19.04391 -19.00858 -18.97239 -18.96958 -15.53175
 Alpha  occ. eigenvalues --  -14.56072 -14.40120 -14.39769 -14.37851 -14.34813
 Alpha  occ. eigenvalues --  -14.34754 -14.34698 -14.34678 -14.34647 -14.34165
 Alpha  occ. eigenvalues --  -14.33656 -14.33431 -14.33402 -14.32988 -14.32338
 Alpha  occ. eigenvalues --  -12.66805 -12.66791 -12.66661 -10.33893 -10.33137
 Alpha  occ. eigenvalues --  -10.32030 -10.31073 -10.28757 -10.27629 -10.27433
 Alpha  occ. eigenvalues --  -10.27274 -10.26979 -10.26962 -10.26899 -10.26872
 Alpha  occ. eigenvalues --  -10.26738 -10.26737 -10.25876 -10.25817 -10.25764
 Alpha  occ. eigenvalues --  -10.25645 -10.25578 -10.24792 -10.24750 -10.24550
 Alpha  occ. eigenvalues --  -10.24419 -10.24213 -10.23776 -10.22390 -10.22268
 Alpha  occ. eigenvalues --  -10.22266 -10.21700 -10.21659 -10.21463 -10.21289
 Alpha  occ. eigenvalues --  -10.20693 -10.20680 -10.20171 -10.19724 -10.19497
 Alpha  occ. eigenvalues --  -10.19446 -10.19429 -10.19415 -10.19277 -10.18993
 Alpha  occ. eigenvalues --  -10.18464 -10.17904 -10.16491 -10.16409 -10.16332
 Alpha  occ. eigenvalues --  -10.16069 -10.15976 -10.15816 -10.15798 -10.15180
 Alpha  occ. eigenvalues --  -10.12776 -10.10673  -1.89634  -1.17318  -1.17219
 Alpha  occ. eigenvalues --   -1.16139  -1.12048  -1.07680  -1.07282  -1.06654
 Alpha  occ. eigenvalues --   -1.05661  -1.05358  -1.03541  -1.02306  -1.01587
 Alpha  occ. eigenvalues --   -1.01543  -1.01370  -1.01188  -1.00866  -1.00657
 Alpha  occ. eigenvalues --   -1.00524  -0.99951  -0.99823  -0.99706  -0.99439
 Alpha  occ. eigenvalues --   -0.97240  -0.96861  -0.95689  -0.94215  -0.92024
 Alpha  occ. eigenvalues --   -0.91743  -0.91589  -0.91403  -0.91395  -0.90930
 Alpha  occ. eigenvalues --   -0.90651  -0.90061  -0.89966  -0.89396  -0.89178
 Alpha  occ. eigenvalues --   -0.89119  -0.88474  -0.88438  -0.86458  -0.85335
 Alpha  occ. eigenvalues --   -0.82282  -0.81917  -0.81100  -0.80862  -0.79687
 Alpha  occ. eigenvalues --   -0.77873  -0.77048  -0.77037  -0.76830  -0.76027
 Alpha  occ. eigenvalues --   -0.75055  -0.74937  -0.74699  -0.74015  -0.73812
 Alpha  occ. eigenvalues --   -0.73541  -0.72429  -0.72398  -0.70589  -0.70168
 Alpha  occ. eigenvalues --   -0.69927  -0.69273  -0.68779  -0.67062  -0.66736
 Alpha  occ. eigenvalues --   -0.66081  -0.65086  -0.64927  -0.64201  -0.64088
 Alpha  occ. eigenvalues --   -0.63661  -0.63319  -0.62620  -0.62459  -0.61855
 Alpha  occ. eigenvalues --   -0.61613  -0.61238  -0.61059  -0.60819  -0.60217
 Alpha  occ. eigenvalues --   -0.60058  -0.59140  -0.59088  -0.58538  -0.58353
 Alpha  occ. eigenvalues --   -0.58230  -0.57822  -0.57753  -0.56819  -0.56745
 Alpha  occ. eigenvalues --   -0.56485  -0.56373  -0.56036  -0.55820  -0.55506
 Alpha  occ. eigenvalues --   -0.55359  -0.54531  -0.54143  -0.53952  -0.53758
 Alpha  occ. eigenvalues --   -0.53525  -0.53150  -0.53087  -0.52524  -0.52268
 Alpha  occ. eigenvalues --   -0.52129  -0.51244  -0.51130  -0.50882  -0.50767
 Alpha  occ. eigenvalues --   -0.49845  -0.49498  -0.49452  -0.49245  -0.49176
 Alpha  occ. eigenvalues --   -0.48146  -0.47981  -0.47833  -0.47638  -0.47178
 Alpha  occ. eigenvalues --   -0.47044  -0.47035  -0.46996  -0.46975  -0.46670
 Alpha  occ. eigenvalues --   -0.46344  -0.46161  -0.45994  -0.45881  -0.45788
 Alpha  occ. eigenvalues --   -0.45635  -0.45421  -0.45037  -0.45018  -0.45012
 Alpha  occ. eigenvalues --   -0.44802  -0.44590  -0.44359  -0.43919  -0.43488
 Alpha  occ. eigenvalues --   -0.43279  -0.43270  -0.43254  -0.43162  -0.43110
 Alpha  occ. eigenvalues --   -0.42888  -0.42758  -0.42613  -0.42320  -0.42209
 Alpha  occ. eigenvalues --   -0.41818  -0.41774  -0.41526  -0.41496  -0.41457
 Alpha  occ. eigenvalues --   -0.41378  -0.41311  -0.41007  -0.40716  -0.40275
 Alpha  occ. eigenvalues --   -0.40249  -0.40076  -0.39997  -0.39961  -0.39716
 Alpha  occ. eigenvalues --   -0.39415  -0.39345  -0.39056  -0.39028  -0.39007
 Alpha  occ. eigenvalues --   -0.38851  -0.38779  -0.38429  -0.38395  -0.38306
 Alpha  occ. eigenvalues --   -0.38246  -0.38145  -0.37907  -0.37890  -0.37624
 Alpha  occ. eigenvalues --   -0.37489  -0.37239  -0.37209  -0.37094  -0.37060
 Alpha  occ. eigenvalues --   -0.36806  -0.36557  -0.36461  -0.36342  -0.36328
 Alpha  occ. eigenvalues --   -0.36026  -0.35614  -0.35549  -0.35208  -0.35096
 Alpha  occ. eigenvalues --   -0.35059  -0.34972  -0.34937  -0.34749  -0.34378
 Alpha  occ. eigenvalues --   -0.34246  -0.34111  -0.33937  -0.33794  -0.33631
 Alpha  occ. eigenvalues --   -0.33369  -0.33293  -0.33084  -0.32969  -0.32540
 Alpha  occ. eigenvalues --   -0.32021  -0.31995  -0.31041  -0.31016  -0.30888
 Alpha  occ. eigenvalues --   -0.30856  -0.30533  -0.29877  -0.29835  -0.29141
 Alpha  occ. eigenvalues --   -0.28379  -0.28199  -0.28171  -0.27819  -0.27002
 Alpha  occ. eigenvalues --   -0.26659  -0.26391  -0.26191  -0.26148  -0.25982
 Alpha  occ. eigenvalues --   -0.25879  -0.25846  -0.25369  -0.25146  -0.24783
 Alpha  occ. eigenvalues --   -0.24610  -0.24159  -0.24046  -0.23705  -0.23416
 Alpha  occ. eigenvalues --   -0.23350  -0.23221  -0.23050  -0.23015  -0.22907
 Alpha  occ. eigenvalues --   -0.22608  -0.22582  -0.22439  -0.22215  -0.21870
 Alpha  occ. eigenvalues --   -0.21561  -0.20301  -0.20213  -0.19929  -0.16905
 Alpha  occ. eigenvalues --   -0.14481  -0.14029  -0.11018
 Alpha virt. eigenvalues --   -0.10066  -0.06945  -0.04146  -0.03749  -0.03103
 Alpha virt. eigenvalues --   -0.02455  -0.02369  -0.01502  -0.01268  -0.01087
 Alpha virt. eigenvalues --   -0.00364   0.00441   0.01187   0.01301   0.01887

 Mulliken charges:
               1
     1  C    0.088627
     2  C   -0.008958
     3  O   -0.283076
     4  H    0.027245
     5  H   -0.019712
     6  H    0.056442
     7  N   -0.123962
     8  C    0.056583
     9  C    0.074184
    10  O   -0.238596
    11  C    0.089112
    12  C    0.052784
    13  O   -0.323092
    14  O   -0.355733
    15  H    0.099208
    16  H    0.006746
    17  H   -0.010664
    18  H    0.022683
    19  N   -0.140695
    20  C    0.160807
    21  C    0.071791
    22  O   -0.309137
    23  C   -0.008731
    24  C    0.055519
    25  C   -0.019974
    26  C    0.033127
    27  N    0.174147
    28  H    0.092987
    29  H    0.013939
    30  H    0.015685
    31  H   -0.010634
    32  H    0.006834
    33  H    0.026906
    34  H    0.007962
    35  H    0.000676
    36  H    0.062557
    37  H    0.059279
    38  H    0.101350
    39  H    0.103050
    40  H    0.099233
    41  N   -0.118726
    42  C    0.146975
    43  C    0.068456
    44  O   -0.233272
    45  C    0.078467
    46  C    0.118019
    47  O   -0.364578
    48  O   -0.495208
    49  H    0.131085
    50  H   -0.048029
    51  H    0.052052
    52  H    0.019703
    53  N   -0.117400
    54  C    0.170127
    55  C    0.141862
    56  O   -0.380975
    57  H    0.099910
    58  H    0.028708
    59  H    0.036718
    60  N   -0.127539
    61  C    0.059760
    62  C    0.088750
    63  O   -0.284516
    64  C    0.060407
    65  C    0.032119
    66  N   -0.068191
    67  O   -0.220789
    68  H    0.143764
    69  H    0.013449
    70  H    0.058422
    71  H    0.014110
    72  H    0.088591
    73  H    0.141905
    74  N   -0.120664
    75  C    0.226601
    76  C    0.000394
    77  O   -0.252976
    78  H    0.110144
    79  H    0.029552
    80  H    0.047413
    81  N   -0.117743
    82  C    0.089212
    83  C    0.088616
    84  O   -0.317879
    85  C    0.166956
    86  C   -0.050505
    87  C    0.000960
    88  C   -0.031299
    89  C   -0.042394
    90  C   -0.064106
    91  C    0.181360
    92  O   -0.185385
    93  H    0.127971
    94  H    0.028685
    95  H    0.002142
    96  H    0.009250
    97  H   -0.014348
    98  H   -0.017990
    99  H   -0.020926
   100  H   -0.039082
   101  H    0.172342
   102  N   -0.109816
   103  C    0.137097
   104  C    0.009911
   105  O   -0.248811
   106  C   -0.069079
   107  C    0.011906
   108  C    0.069838
   109  C    0.035612
   110  H    0.127907
   111  H    0.007567
   112  H   -0.027537
   113  H    0.018435
   114  H   -0.023094
   115  H    0.023635
   116  H   -0.008089
   117  H    0.022111
   118  H    0.016851
   119  H   -0.014986
   120  H    0.012322
   121  N   -0.123762
   122  C    0.131116
   123  C    0.028054
   124  O   -0.255020
   125  C    0.248067
   126  O   -0.306273
   127  H    0.127651
   128  H    0.006170
   129  H   -0.018036
   130  H    0.018320
   131  H    0.167047
   132  N   -0.145640
   133  C    0.052817
   134  C    0.051476
   135  O   -0.294589
   136  C    0.103574
   137  H    0.114371
   138  H    0.011096
   139  H    0.025930
   140  H    0.025081
   141  H   -0.022068
   142  N   -0.093435
   143  C    0.065192
   144  C    0.060573
   145  O   -0.277642
   146  C    0.064991
   147  H    0.128707
   148  H    0.011005
   149  H    0.045199
   150  H    0.029819
   151  H   -0.015655
   152  N   -0.121055
   153  C    0.116737
   154  C    0.067708
   155  O   -0.286861
   156  C    0.023634
   157  C    0.101606
   158  C    0.097313
   159  O   -0.509899
   160  O   -0.337175
   161  H    0.121177
   162  H    0.002010
   163  H   -0.013991
   164  H   -0.013503
   165  H   -0.029301
   166  H    0.002837
   167  N   -0.132107
   168  C    0.126007
   169  H    0.020536
   170  H    0.043274
   171  H    0.012972
   172  H    0.114879
   173  Ca   1.388697
   174  O   -0.296400
   175  H    0.210669
   176  H    0.187388
 Sum of Mulliken charges =  -0.00000

 Dipole moment (field-independent basis, Debye):
    X=             31.9990    Y=             -5.5144    Z=             -4.0751  Tot=             32.7254
 Quadrupole moment (field-independent basis, Debye-Ang):
   XX=             65.6098   YY=           -693.3312   ZZ=           -531.6130
   XY=           -289.3453   XZ=            -15.6189   YZ=            -72.4117

 ESP charges:
               1
     1  C   -0.505726
     2  C    0.690354
     3  O   -0.541021
     4  H    0.132434
     5  H    0.095582
     6  H    0.169112
     7  N   -0.537975
     8  C    0.271405
     9  C    0.378790
    10  O   -0.453809
    11  C   -0.300504
    12  C    0.706466
    13  O   -0.614236
    14  O   -0.650419
    15  H    0.278312
    16  H    0.015480
    17  H    0.091049
    18  H    0.106228
    19  N   -0.543125
    20  C    0.500292
    21  C    0.329093
    22  O   -0.562205
    23  C   -0.137398
    24  C   -0.188190
    25  C    0.220346
    26  C    0.032434
    27  N   -0.203685
    28  H    0.253525
    29  H   -0.003902
    30  H    0.039341
    31  H    0.028581
    32  H    0.037715
    33  H    0.080821
    34  H   -0.010163
    35  H   -0.049111
    36  H    0.069121
    37  H    0.039832
    38  H    0.219855
    39  H    0.208654
    40  H    0.218845
    41  N   -0.456671
    42  C    0.462728
    43  C    0.501922
    44  O   -0.495679
    45  C   -0.285780
    46  C    0.751051
    47  O   -0.686055
    48  O   -0.788737
    49  H    0.199125
    50  H   -0.032014
    51  H    0.084963
    52  H    0.083814
    53  N   -0.463368
    54  C    0.189068
    55  C    0.571409
    56  O   -0.570555
    57  H    0.229900
    58  H    0.012742
    59  H    0.051361
    60  N   -0.887360
    61  C    0.591784
    62  C    0.369872
    63  O   -0.469593
    64  C   -0.346074
    65  C    0.817920
    66  N   -0.851292
    67  O   -0.552889
    68  H    0.418081
    69  H   -0.048190
    70  H    0.097754
    71  H    0.061837
    72  H    0.324575
    73  H    0.389993
    74  N   -0.296643
    75  C   -0.355481
    76  C    0.787669
    77  O   -0.579558
    78  H    0.270880
    79  H    0.164870
    80  H    0.166572
    81  N   -0.688669
    82  C    0.367335
    83  C    0.369048
    84  O   -0.564069
    85  C   -0.242836
    86  C    0.094824
    87  C   -0.201811
    88  C   -0.103118
    89  C   -0.247372
    90  C   -0.369242
    91  C    0.403299
    92  O   -0.550289
    93  H    0.319269
    94  H    0.030592
    95  H    0.114995
    96  H    0.074233
    97  H    0.160697
    98  H    0.126492
    99  H    0.155969
   100  H    0.150797
   101  H    0.409027
   102  N   -0.481544
   103  C    0.178828
   104  C    0.622245
   105  O   -0.539014
   106  C    0.182587
   107  C    0.175712
   108  C   -0.170199
   109  C   -0.345620
   110  H    0.246278
   111  H   -0.022391
   112  H   -0.077143
   113  H    0.050721
   114  H   -0.048310
   115  H    0.036095
   116  H    0.044682
   117  H   -0.007378
   118  H    0.093186
   119  H    0.061503
   120  H    0.072701
   121  N   -0.663587
   122  C    0.458678
   123  C    0.196735
   124  O   -0.460670
   125  C    0.085860
   126  O   -0.600338
   127  H    0.369685
   128  H    0.019172
   129  H    0.004128
   130  H    0.066465
   131  H    0.401575
   132  N   -0.415026
   133  C    0.335330
   134  C    0.585319
   135  O   -0.543836
   136  C   -0.409432
   137  H    0.264131
   138  H    0.007011
   139  H    0.139557
   140  H    0.099768
   141  H    0.076083
   142  N   -0.854123
   143  C    0.770475
   144  C    0.330647
   145  O   -0.472458
   146  C   -0.414007
   147  H    0.376113
   148  H   -0.096156
   149  H    0.128181
   150  H    0.135410
   151  H    0.047497
   152  N   -0.591611
   153  C    0.220035
   154  C    0.347412
   155  O   -0.476987
   156  C    0.237790
   157  C   -0.348765
   158  C    0.843676
   159  O   -0.880804
   160  O   -0.650820
   161  H    0.317522
   162  H    0.030398
   163  H   -0.050904
   164  H   -0.046753
   165  H    0.062150
   166  H    0.054863
   167  N   -0.278257
   168  C   -0.047560
   169  H    0.041824
   170  H    0.083051
   171  H    0.065143
   172  H    0.216894
   173  Ca   1.599467
   174  O   -0.772603
   175  H    0.428655
   176  H    0.399729
 Sum of ESP charges =  -0.00000

 Normal termination of Gaussian 16 at Tue Sep 17 12:46:07 2019.
