 Gaussian 16, Revision A.03,
 Gaussian 16:  ES64L-G16RevA.03 25-Dec-2016

 ----------------------------------------------------------------------
 #b3lyp/svp scf=(tight,noincore) Test #IOP(5/87=12) Density=Current Pop
 =(MK,readradii) iop(6/33=2) iop(6/42=6)
 ----------------------------------------------------------------------

 -----------------
 Ng-293_loop3_51.0
 -----------------
 Symbolic Z-matrix:
 Charge =  0 Multiplicity = 1

                         Standard orientation:
 ---------------------------------------------------------------------
 Center     Atomic      Atomic             Coordinates (Angstroms)
 Number     Number       Type             X           Y           Z
 ---------------------------------------------------------------------
      1          6           0        9.495275    1.832944    5.579197
      2          6           0        9.218061    1.656011    4.093651
      3          8           0       10.137743    1.992881    3.358802
      4          1           0        8.976980    2.719953    5.941775
      5          1           0        9.139602    0.957921    6.122376
      6          1           0       10.567739    1.948769    5.738010
      7          7           0        8.021727    1.247725    3.674262
      8          6           0        7.681509    1.139674    2.267999
      9          6           0        8.354004    0.070885    1.410186
     10          8           0        8.372908   -1.126571    1.702488
     11          6           0        6.180297    1.213336    2.013764
     12          6           0        5.585350    2.556929    2.429572
     13          8           0        6.210386    3.583677    2.097280
     14          8           0        4.532511    2.613911    3.107423
     15          1           0        7.348321    0.703939    4.191776
     16          1           0        8.010204    2.134117    1.967928
     17          1           0        5.704694    0.469575    2.654094
     18          1           0        5.903437    1.055222    0.966220
     19          7           0        8.937679    0.464651    0.283211
     20          6           0        9.395826   -0.431736   -0.768593
     21          6           0        8.348053   -1.312858   -1.428514
     22          8           0        8.567085   -2.388094   -1.966279
     23          6           0       10.750699   -1.076933   -0.493565
     24          6           0       11.843108   -0.010535   -0.438441
     25          6           0       13.230690   -0.627706   -0.268981
     26          6           0       14.270357    0.481347   -0.109940
     27          7           0       15.686097    0.083973    0.042291
     28          1           0        8.945454    1.446784    0.079362
     29          1           0        9.549866    0.324168   -1.529961
     30          1           0       11.128469   -1.655913   -1.336340
     31          1           0       10.679263   -1.773665    0.345102
     32          1           0       11.549036    0.655184    0.376568
     33          1           0       11.756511    0.675300   -1.279708
     34          1           0       13.474120   -1.178445   -1.179984
     35          1           0       13.212890   -1.313444    0.571225
     36          1           0       13.939664    1.198771    0.637352
     37          1           0       14.209181    1.096652   -1.008471
     38          1           0       15.663373   -0.679573    0.700228
     39          1           0       16.153628   -0.311491   -0.756159
     40          1           0       16.281896    0.821268    0.392321
     41          7           0        7.085404   -0.877914   -1.466502
     42          6           0        5.872312   -1.513252   -1.954203
     43          6           0        4.834381   -0.420481   -2.177030
     44          8           0        4.616179    0.466243   -1.361304
     45          6           0        5.333706   -2.455783   -0.882225
     46          6           0        4.038607   -3.166152   -1.224855
     47          8           0        3.736570   -3.288412   -2.430768
     48          8           0        3.320137   -3.671281   -0.322666
     49          1           0        6.978905    0.002790   -0.991931
     50          1           0        5.978351   -2.023452   -2.915011
     51          1           0        5.248221   -1.876956    0.041600
     52          1           0        6.038493   -3.252315   -0.651766
     53          7           0        4.162158   -0.480975   -3.333471
     54          6           0        3.031323    0.344989   -3.675808
     55          6           0        1.787136   -0.001526   -2.868822
     56          8           0        1.447543   -1.187746   -2.833333
     57          1           0        4.318294   -1.253764   -3.969568
     58          1           0        2.775251    0.082849   -4.704744
     59          1           0        3.283810    1.412753   -3.728055
     60          7           0        1.158273    0.940128   -2.168595
     61          6           0       -0.084027    0.821695   -1.432141
     62          6           0       -0.980637    2.044952   -1.599273
     63          8           0       -2.199354    1.912159   -1.582080
     64          6           0        0.155483    0.537853    0.045380
     65          6           0        1.102056   -0.654554    0.200188
     66          7           0        2.377321   -0.522475    0.556495
     67          8           0        0.629172   -1.776370    0.067493
     68          1           0        1.531958    1.871014   -2.283095
     69          1           0       -0.610057   -0.025233   -1.871123
     70          1           0       -0.798325    0.247650    0.466609
     71          1           0        0.505314    1.421893    0.576974
     72          1           0        2.782018    0.399533    0.594177
     73          1           0        2.940995   -1.362795    0.624565
     74          7           0       -0.400521    3.222547   -1.833443
     75          6           0       -1.165928    4.447053   -1.903703
     76          6           0       -2.150497    4.661457   -0.766007
     77          8           0       -1.783986    4.414284    0.376961
     78          1           0        0.605345    3.323075   -1.739489
     79          1           0       -1.790902    4.465424   -2.801016
     80          1           0       -0.553504    5.349602   -1.948914
     81          7           0       -3.382443    5.060107   -1.094924
     82          6           0       -4.476247    5.179609   -0.150778
     83          6           0       -4.923788    3.937165    0.604563
     84          8           0       -5.955362    4.038026    1.267498
     85          6           0       -4.295073    6.365006    0.792202
     86          6           0       -4.005917    7.665318    0.075142
     87          6           0       -2.929221    8.515630    0.337050
     88          6           0       -4.897679    8.081034   -0.925329
     89          6           0       -2.629371    9.590980   -0.510306
     90          6           0       -4.607694    9.105250   -1.843311
     91          6           0       -3.413473    9.838540   -1.657519
     92          8           0       -2.925301   10.715097   -2.579820
     93          1           0       -3.588028    5.323364   -2.048303
     94          1           0       -5.309424    5.424773   -0.805156
     95          1           0       -3.487230    6.173182    1.493624
     96          1           0       -5.167117    6.539749    1.410510
     97          1           0       -2.279883    8.277786    1.173226
     98          1           0       -5.846710    7.581280   -0.993043
     99          1           0       -1.791879   10.192048   -0.203020
    100          1           0       -5.307480    9.406795   -2.610950
    101          1           0       -3.467048   10.785082   -3.367545
    102          7           0       -4.131029    2.861615    0.541917
    103          6           0       -4.340122    1.546522    1.108407
    104          6           0       -5.501705    0.753969    0.533356
    105          8           0       -5.341948   -0.410515    0.164771
    106          6           0       -4.394625    1.727738    2.623033
    107          6           0       -3.218442    2.458054    3.263759
    108          6           0       -4.759972    0.396266    3.294005
    109          6           0       -3.546901    3.041947    4.627058
    110          1           0       -3.274150    2.973633    0.028195
    111          1           0       -3.429281    0.969578    0.971275
    112          1           0       -5.227244    2.408461    2.801533
    113          1           0       -2.895836    3.259835    2.602795
    114          1           0       -2.438553    1.690311    3.270318
    115          1           0       -4.897421    0.369814    4.374472
    116          1           0       -5.651778   -0.069965    2.876860
    117          1           0       -3.973600   -0.343760    3.136583
    118          1           0       -2.612243    3.406089    5.059742
    119          1           0       -4.186004    3.930543    4.633686
    120          1           0       -3.942641    2.309488    5.327340
    121          7           0       -6.680360    1.345158    0.350688
    122          6           0       -7.571886    0.990525   -0.743395
    123          6           0       -8.408937   -0.231805   -0.397049
    124          8           0       -9.059668   -0.801508   -1.264278
    125          6           0       -8.447633    2.222240   -0.983281
    126          8           0       -7.656565    3.333693   -1.339209
    127          1           0       -6.684034    2.317946    0.612545
    128          1           0       -6.881147    0.696688   -1.534749
    129          1           0       -8.991027    2.509479   -0.081718
    130          1           0       -9.179243    2.081390   -1.770242
    131          1           0       -7.155608    3.054287   -2.117331
    132          7           0       -8.315760   -0.706749    0.852729
    133          6           0       -8.805872   -2.003157    1.267959
    134          6           0       -8.170413   -3.193638    0.555815
    135          8           0       -8.819735   -4.218469    0.356311
    136          6           0      -10.327437   -1.936621    1.319069
    137          1           0       -7.826666   -0.128380    1.508302
    138          1           0       -8.487041   -2.130459    2.306728
    139          1           0      -10.749008   -2.746749    1.914946
    140          1           0      -10.681112   -1.015431    1.801689
    141          1           0      -10.905277   -1.918079    0.402304
    142          7           0       -7.003227   -2.974318   -0.037882
    143          6           0       -6.178911   -3.998721   -0.655945
    144          6           0       -5.295142   -4.730701    0.348076
    145          8           0       -4.791836   -4.024429    1.219145
    146          6           0       -5.418024   -3.484529   -1.866547
    147          1           0       -6.505117   -2.139406    0.225384
    148          1           0       -6.904549   -4.648491   -1.134743
    149          1           0       -6.154154   -3.312529   -2.651422
    150          1           0       -4.950919   -2.527960   -1.651634
    151          1           0       -4.680434   -4.245030   -2.126931
    152          7           0       -5.087038   -6.031210    0.110866
    153          6           0       -4.165317   -6.934788    0.758075
    154          6           0       -4.380854   -7.003221    2.260726
    155          8           0       -3.412197   -6.902417    2.999673
    156          6           0       -2.740686   -6.669399    0.284793
    157          6           0       -2.498439   -6.695209   -1.215657
    158          6           0       -1.139647   -6.149161   -1.594097
    159          8           0       -1.089293   -5.062672   -2.207941
    160          8           0       -0.124483   -6.751102   -1.159922
    161          1           0       -5.555413   -6.445658   -0.683273
    162          1           0       -4.403702   -7.928146    0.372184
    163          1           0       -2.115295   -7.467305    0.692999
    164          1           0       -2.427093   -5.681339    0.621536
    165          1           0       -3.245916   -6.056531   -1.689754
    166          1           0       -2.489069   -7.728016   -1.572199
    167          7           0       -5.606417   -7.232943    2.754005
    168          6           0       -5.996939   -7.132809    4.147729
    169          1           0       -6.429920   -6.149768    4.333853
    170          1           0       -6.734280   -7.902661    4.375694
    171          1           0       -5.120739   -7.269468    4.782388
    172          1           0       -6.325055   -7.473230    2.095278
    173         20           0        1.072535   -3.729434   -1.887979
    174          8           0        1.391420   -4.470123   -4.396583
    175          1           0        1.355157   -3.839097   -5.106084
    176          1           0        2.107870   -5.057832   -4.634694
 ---------------------------------------------------------------------

 SCF Done:  E(RB3LYP) =  -5333.44834303     A.U. after   41 cycles

 The electronic state is 1-A.
 Alpha  occ. eigenvalues -- -145.39287 -19.17177 -19.16826 -19.14337 -19.13803
 Alpha  occ. eigenvalues --  -19.13625 -19.11748 -19.11582 -19.10039 -19.09960
 Alpha  occ. eigenvalues --  -19.09466 -19.08473 -19.07838 -19.07464 -19.06574
 Alpha  occ. eigenvalues --  -19.06189 -19.06016 -19.05434 -19.05403 -19.05048
 Alpha  occ. eigenvalues --  -19.03113 -19.00936 -18.96976 -18.96952 -15.45109
 Alpha  occ. eigenvalues --  -14.58367 -14.40435 -14.40409 -14.37999 -14.37415
 Alpha  occ. eigenvalues --  -14.35459 -14.34927 -14.34649 -14.34191 -14.33974
 Alpha  occ. eigenvalues --  -14.33152 -14.33043 -14.32469 -14.31884 -14.30490
 Alpha  occ. eigenvalues --  -12.58733 -12.58701 -12.58631 -10.34815 -10.33222
 Alpha  occ. eigenvalues --  -10.32392 -10.30641 -10.29571 -10.29302 -10.28768
 Alpha  occ. eigenvalues --  -10.27917 -10.27888 -10.27759 -10.26971 -10.26751
 Alpha  occ. eigenvalues --  -10.26460 -10.26370 -10.26241 -10.25837 -10.25589
 Alpha  occ. eigenvalues --  -10.24980 -10.24896 -10.24820 -10.24392 -10.24356
 Alpha  occ. eigenvalues --  -10.24298 -10.23806 -10.23648 -10.23305 -10.22847
 Alpha  occ. eigenvalues --  -10.22274 -10.21342 -10.21211 -10.21053 -10.21001
 Alpha  occ. eigenvalues --  -10.20161 -10.19807 -10.19439 -10.19263 -10.19247
 Alpha  occ. eigenvalues --  -10.19144 -10.19014 -10.18927 -10.18875 -10.18695
 Alpha  occ. eigenvalues --  -10.16854 -10.16809 -10.16787 -10.16444 -10.15942
 Alpha  occ. eigenvalues --  -10.15568 -10.15530 -10.15214 -10.15090 -10.13534
 Alpha  occ. eigenvalues --  -10.13157 -10.12844  -1.81709  -1.13616  -1.09353
 Alpha  occ. eigenvalues --   -1.09188  -1.08704  -1.07479  -1.06832  -1.05377
 Alpha  occ. eigenvalues --   -1.05036  -1.04590  -1.03406  -1.03367  -1.03196
 Alpha  occ. eigenvalues --   -1.02500  -1.02408  -1.01931  -1.01101  -1.00624
 Alpha  occ. eigenvalues --   -1.00418  -0.99552  -0.99333  -0.98452  -0.97908
 Alpha  occ. eigenvalues --   -0.97602  -0.96430  -0.95661  -0.94806  -0.93955
 Alpha  occ. eigenvalues --   -0.92506  -0.92295  -0.91754  -0.91621  -0.90687
 Alpha  occ. eigenvalues --   -0.90127  -0.90008  -0.89986  -0.89433  -0.89103
 Alpha  occ. eigenvalues --   -0.88901  -0.87787  -0.87487  -0.86322  -0.85207
 Alpha  occ. eigenvalues --   -0.82357  -0.82001  -0.81456  -0.80530  -0.79267
 Alpha  occ. eigenvalues --   -0.78662  -0.76773  -0.76721  -0.76552  -0.75741
 Alpha  occ. eigenvalues --   -0.74870  -0.74467  -0.73986  -0.73939  -0.73503
 Alpha  occ. eigenvalues --   -0.72946  -0.72480  -0.72008  -0.71767  -0.70098
 Alpha  occ. eigenvalues --   -0.69757  -0.69683  -0.68967  -0.68617  -0.66704
 Alpha  occ. eigenvalues --   -0.66209  -0.66079  -0.65329  -0.64609  -0.64455
 Alpha  occ. eigenvalues --   -0.63580  -0.63185  -0.62648  -0.62360  -0.62110
 Alpha  occ. eigenvalues --   -0.62046  -0.61371  -0.60778  -0.60618  -0.59984
 Alpha  occ. eigenvalues --   -0.59422  -0.59010  -0.58882  -0.58586  -0.58097
 Alpha  occ. eigenvalues --   -0.57829  -0.57490  -0.56654  -0.56491  -0.56396
 Alpha  occ. eigenvalues --   -0.56164  -0.56138  -0.56011  -0.55651  -0.55257
 Alpha  occ. eigenvalues --   -0.54617  -0.54259  -0.54184  -0.54075  -0.53922
 Alpha  occ. eigenvalues --   -0.53601  -0.53358  -0.53319  -0.52469  -0.52149
 Alpha  occ. eigenvalues --   -0.51605  -0.51351  -0.51218  -0.50357  -0.50136
 Alpha  occ. eigenvalues --   -0.49801  -0.49716  -0.49296  -0.49061  -0.48947
 Alpha  occ. eigenvalues --   -0.48574  -0.48187  -0.47530  -0.47346  -0.47114
 Alpha  occ. eigenvalues --   -0.46964  -0.46861  -0.46747  -0.46411  -0.45756
 Alpha  occ. eigenvalues --   -0.45633  -0.45621  -0.45574  -0.45390  -0.45337
 Alpha  occ. eigenvalues --   -0.45143  -0.44868  -0.44650  -0.44496  -0.44292
 Alpha  occ. eigenvalues --   -0.43979  -0.43850  -0.43739  -0.43596  -0.43576
 Alpha  occ. eigenvalues --   -0.43357  -0.43157  -0.43097  -0.42818  -0.42764
 Alpha  occ. eigenvalues --   -0.42237  -0.42222  -0.42184  -0.41970  -0.41911
 Alpha  occ. eigenvalues --   -0.41795  -0.41650  -0.41576  -0.41474  -0.41239
 Alpha  occ. eigenvalues --   -0.41127  -0.40915  -0.40819  -0.40686  -0.40548
 Alpha  occ. eigenvalues --   -0.40518  -0.40403  -0.39949  -0.39539  -0.39512
 Alpha  occ. eigenvalues --   -0.39360  -0.39236  -0.39122  -0.39029  -0.38922
 Alpha  occ. eigenvalues --   -0.38637  -0.38602  -0.38531  -0.38496  -0.38372
 Alpha  occ. eigenvalues --   -0.38364  -0.38225  -0.37825  -0.37742  -0.37600
 Alpha  occ. eigenvalues --   -0.37387  -0.37154  -0.36948  -0.36923  -0.36723
 Alpha  occ. eigenvalues --   -0.36552  -0.36183  -0.35915  -0.35849  -0.35765
 Alpha  occ. eigenvalues --   -0.35760  -0.35630  -0.35358  -0.35111  -0.35079
 Alpha  occ. eigenvalues --   -0.34813  -0.34688  -0.34644  -0.34168  -0.34144
 Alpha  occ. eigenvalues --   -0.33815  -0.33708  -0.33674  -0.33259  -0.32997
 Alpha  occ. eigenvalues --   -0.32867  -0.32792  -0.32208  -0.32141  -0.32029
 Alpha  occ. eigenvalues --   -0.31874  -0.31176  -0.31131  -0.31060  -0.30935
 Alpha  occ. eigenvalues --   -0.30883  -0.30051  -0.29736  -0.29186  -0.28827
 Alpha  occ. eigenvalues --   -0.28752  -0.28604  -0.28185  -0.28022  -0.27736
 Alpha  occ. eigenvalues --   -0.27376  -0.27226  -0.27106  -0.27022  -0.26864
 Alpha  occ. eigenvalues --   -0.26676  -0.26136  -0.26045  -0.25497  -0.25479
 Alpha  occ. eigenvalues --   -0.25109  -0.24763  -0.24028  -0.23837  -0.23626
 Alpha  occ. eigenvalues --   -0.23567  -0.23102  -0.22673  -0.22558  -0.22468
 Alpha  occ. eigenvalues --   -0.22371  -0.21846  -0.21774  -0.21347  -0.21325
 Alpha  occ. eigenvalues --   -0.20848  -0.20607  -0.20234  -0.19517  -0.17112
 Alpha  occ. eigenvalues --   -0.14774  -0.14375  -0.11903
 Alpha virt. eigenvalues --   -0.10969  -0.04958  -0.04249  -0.03189  -0.02471
 Alpha virt. eigenvalues --   -0.01975  -0.01612  -0.01194  -0.00687  -0.00264
 Alpha virt. eigenvalues --   -0.00021   0.00489   0.00837   0.01321   0.01614

 Mulliken charges:
               1
     1  C    0.064993
     2  C    0.041970
     3  O   -0.320131
     4  H    0.047750
     5  H    0.003861
     6  H    0.005049
     7  N   -0.102292
     8  C    0.052734
     9  C    0.090879
    10  O   -0.287014
    11  C    0.059662
    12  C    0.015453
    13  O   -0.367944
    14  O   -0.358645
    15  H    0.126107
    16  H   -0.016848
    17  H   -0.027193
    18  H    0.002134
    19  N   -0.147402
    20  C    0.100157
    21  C    0.063291
    22  O   -0.265910
    23  C    0.124776
    24  C   -0.077567
    25  C    0.037155
    26  C    0.005981
    27  N    0.129670
    28  H    0.127064
    29  H   -0.016012
    30  H   -0.009643
    31  H    0.042152
    32  H    0.030989
    33  H   -0.011247
    34  H    0.018912
    35  H    0.038760
    36  H    0.084045
    37  H    0.050656
    38  H    0.159073
    39  H    0.147903
    40  H    0.159074
    41  N   -0.123873
    42  C    0.180777
    43  C    0.037007
    44  O   -0.275626
    45  C    0.077141
    46  C    0.086145
    47  O   -0.437704
    48  O   -0.409011
    49  H    0.113408
    50  H   -0.007950
    51  H    0.012410
    52  H    0.050186
    53  N   -0.105506
    54  C    0.208953
    55  C    0.088557
    56  O   -0.357465
    57  H    0.131445
    58  H    0.017771
    59  H    0.012017
    60  N   -0.116975
    61  C    0.062607
    62  C    0.096026
    63  O   -0.270959
    64  C    0.141888
    65  C    0.009298
    66  N   -0.010166
    67  O   -0.333404
    68  H    0.111429
    69  H    0.038081
    70  H    0.054018
    71  H    0.021422
    72  H    0.143404
    73  H    0.159767
    74  N   -0.128803
    75  C    0.233792
    76  C    0.017154
    77  O   -0.279675
    78  H    0.129844
    79  H   -0.007569
    80  H    0.050521
    81  N   -0.132259
    82  C    0.098336
    83  C    0.095876
    84  O   -0.303820
    85  C    0.186232
    86  C   -0.039327
    87  C   -0.022300
    88  C   -0.048241
    89  C   -0.016257
    90  C   -0.049393
    91  C    0.173995
    92  O   -0.199499
    93  H    0.129740
    94  H    0.007005
    95  H    0.002592
    96  H    0.027014
    97  H   -0.018471
    98  H   -0.018443
    99  H   -0.021359
   100  H   -0.035872
   101  H    0.172015
   102  N   -0.108606
   103  C    0.198029
   104  C    0.046481
   105  O   -0.263064
   106  C   -0.154865
   107  C    0.039938
   108  C    0.075318
   109  C    0.031122
   110  H    0.146959
   111  H   -0.004435
   112  H    0.001447
   113  H    0.006772
   114  H   -0.015843
   115  H    0.003060
   116  H   -0.004348
   117  H    0.011322
   118  H    0.005706
   119  H    0.010348
   120  H    0.004280
   121  N   -0.154190
   122  C    0.066754
   123  C    0.044876
   124  O   -0.266638
   125  C    0.260224
   126  O   -0.314563
   127  H    0.134432
   128  H    0.020143
   129  H    0.013764
   130  H    0.017103
   131  H    0.161198
   132  N   -0.128965
   133  C    0.094623
   134  C    0.062763
   135  O   -0.284304
   136  C    0.071425
   137  H    0.123584
   138  H    0.013804
   139  H    0.005068
   140  H   -0.020034
   141  H    0.026423
   142  N   -0.121213
   143  C    0.062773
   144  C    0.090381
   145  O   -0.271490
   146  C    0.063056
   147  H    0.132670
   148  H   -0.016790
   149  H    0.015191
   150  H    0.022286
   151  H    0.019507
   152  N   -0.130297
   153  C    0.084962
   154  C    0.076773
   155  O   -0.251731
   156  C    0.038997
   157  C    0.106045
   158  C    0.076855
   159  O   -0.475492
   160  O   -0.388093
   161  H    0.121711
   162  H   -0.010249
   163  H    0.014589
   164  H    0.025098
   165  H   -0.042353
   166  H   -0.018955
   167  N   -0.152278
   168  C    0.134089
   169  H    0.026902
   170  H    0.007934
   171  H    0.042001
   172  H    0.102134
   173  Ca   1.326304
   174  O   -0.278738
   175  H    0.171345
   176  H    0.188616
 Sum of Mulliken charges =  -0.00000

 Dipole moment (field-independent basis, Debye):
    X=             41.2486    Y=             11.4021    Z=            -20.2024  Tot=             47.3243
 Quadrupole moment (field-independent basis, Debye-Ang):
   XX=            122.2185   YY=           -637.2498   ZZ=           -521.7951
   XY=            -52.1503   XZ=            -64.7212   YZ=            -52.9702

 ESP charges:
               1
     1  C   -0.414190
     2  C    0.738786
     3  O   -0.601168
     4  H    0.135234
     5  H    0.071550
     6  H    0.103333
     7  N   -0.501827
     8  C    0.093036
     9  C    0.397458
    10  O   -0.514145
    11  C   -0.204552
    12  C    0.684812
    13  O   -0.664185
    14  O   -0.667292
    15  H    0.311434
    16  H    0.039963
    17  H    0.051717
    18  H    0.022120
    19  N   -0.281264
    20  C    0.159998
    21  C    0.515561
    22  O   -0.533002
    23  C   -0.259981
    24  C    0.252419
    25  C   -0.292861
    26  C    0.187759
    27  N   -0.351104
    28  H    0.227259
    29  H    0.021008
    30  H    0.034532
    31  H    0.132463
    32  H   -0.042568
    33  H   -0.015339
    34  H    0.087945
    35  H    0.100732
    36  H    0.061299
    37  H    0.033639
    38  H    0.286624
    39  H    0.296850
    40  H    0.295020
    41  N   -0.534929
    42  C    0.224041
    43  C    0.397520
    44  O   -0.427826
    45  C   -0.173156
    46  C    0.760237
    47  O   -0.773381
    48  O   -0.746363
    49  H    0.242967
    50  H    0.031432
    51  H    0.056474
    52  H    0.121586
    53  N   -0.357806
    54  C   -0.251110
    55  C    0.525361
    56  O   -0.512664
    57  H    0.303583
    58  H    0.141039
    59  H    0.136427
    60  N   -0.372658
    61  C   -0.065413
    62  C    0.726405
    63  O   -0.543311
    64  C   -0.300271
    65  C    0.828783
    66  N   -0.789062
    67  O   -0.638879
    68  H    0.203322
    69  H    0.102255
    70  H    0.120160
    71  H    0.096795
    72  H    0.364775
    73  H    0.377980
    74  N   -0.582858
    75  C   -0.110189
    76  C    0.704694
    77  O   -0.548128
    78  H    0.404433
    79  H    0.071602
    80  H    0.111532
    81  N   -0.703471
    82  C    0.182694
    83  C    0.269184
    84  O   -0.482190
    85  C   -0.112747
    86  C   -0.029617
    87  C   -0.107685
    88  C   -0.004269
    89  C   -0.298355
    90  C   -0.441972
    91  C    0.446211
    92  O   -0.567614
    93  H    0.355380
    94  H    0.072148
    95  H    0.107342
    96  H    0.071671
    97  H    0.124674
    98  H    0.101209
    99  H    0.173348
   100  H    0.172115
   101  H    0.416027
   102  N   -0.018373
   103  C   -0.810112
   104  C    0.927026
   105  O   -0.565827
   106  C    0.555681
   107  C    0.159192
   108  C   -0.579308
   109  C   -0.248559
   110  H    0.250189
   111  H    0.229185
   112  H   -0.086337
   113  H   -0.033273
   114  H   -0.049393
   115  H    0.135336
   116  H    0.139188
   117  H    0.136941
   118  H    0.055369
   119  H    0.065868
   120  H    0.042105
   121  N   -0.568262
   122  C   -0.232073
   123  C    0.488177
   124  O   -0.515052
   125  C    0.222041
   126  O   -0.587583
   127  H    0.372355
   128  H    0.168865
   129  H    0.089056
   130  H    0.029890
   131  H    0.387158
   132  N   -0.390550
   133  C    0.381939
   134  C    0.258996
   135  O   -0.527770
   136  C   -0.273918
   137  H    0.214796
   138  H    0.007356
   139  H    0.054206
   140  H    0.037834
   141  H    0.111854
   142  N   -0.126789
   143  C    0.257733
   144  C    0.514807
   145  O   -0.475268
   146  C   -0.230639
   147  H    0.074393
   148  H    0.003080
   149  H    0.051632
   150  H    0.072394
   151  H    0.066924
   152  N   -0.690757
   153  C    0.299211
   154  C    0.352785
   155  O   -0.487918
   156  C    0.019787
   157  C    0.158330
   158  C    0.633284
   159  O   -0.761009
   160  O   -0.685624
   161  H    0.313044
   162  H   -0.012027
   163  H   -0.014827
   164  H    0.018236
   165  H   -0.099185
   166  H   -0.047320
   167  N   -0.302107
   168  C   -0.012778
   169  H    0.058303
   170  H    0.032052
   171  H    0.074359
   172  H    0.239761
   173  Ca   1.570337
   174  O   -0.793404
   175  H    0.404214
   176  H    0.422218
 Sum of ESP charges =   0.00000

 Normal termination of Gaussian 16 at Tue Sep 17 10:23:00 2019.
