 Gaussian 16, Revision A.03,
 Gaussian 16:  ES64L-G16RevA.03 25-Dec-2016

 ----------------------------------------------------------------------
 #b3lyp/svp scf=(tight,noincore) Test #IOP(5/87=12) Density=Current Pop
 =(MK,readradii) iop(6/33=2) iop(6/42=6)
 ----------------------------------------------------------------------

 -----------------
 Ng-293_loop3_41.0
 -----------------
 Symbolic Z-matrix:
 Charge =  0 Multiplicity = 1

                         Standard orientation:
 ---------------------------------------------------------------------
 Center     Atomic      Atomic             Coordinates (Angstroms)
 Number     Number       Type             X           Y           Z
 ---------------------------------------------------------------------
      1          6           0        8.683299    0.355486    4.823528
      2          6           0        8.358171    1.203463    3.608897
      3          8           0        7.304634    0.986058    3.019155
      4          1           0        8.768799   -0.689661    4.524146
      5          1           0        9.627320    0.686878    5.256758
      6          1           0        7.887679    0.457917    5.561726
      7          7           0        9.314678    2.039293    3.194431
      8          6           0        9.293328    2.873010    2.014660
      9          6           0        9.022065    2.187250    0.675724
     10          8           0        8.311251    2.627606   -0.221901
     11          6           0        8.353400    4.057611    2.244780
     12          6           0        8.414432    5.247837    1.301893
     13          8           0        7.575479    6.162809    1.442546
     14          8           0        9.364798    5.384349    0.499977
     15          1           0       10.179124    2.002048    3.715627
     16          1           0       10.297543    3.269178    1.888154
     17          1           0        8.569360    4.515656    3.209433
     18          1           0        7.320945    3.737987    2.364690
     19          7           0        9.642526    1.019861    0.497029
     20          6           0        9.693622    0.269520   -0.742840
     21          6           0        8.326792   -0.179829   -1.227467
     22          8           0        8.148216   -0.247854   -2.450162
     23          6           0       10.641338   -0.903340   -0.490984
     24          6           0       12.110847   -0.555099   -0.345819
     25          6           0       13.089547   -1.700148   -0.085804
     26          6           0       14.539712   -1.327157    0.232315
     27          7           0       15.491924   -2.451401    0.301371
     28          1           0       10.240723    0.675870    1.236442
     29          1           0       10.086199    0.957466   -1.490044
     30          1           0       10.517140   -1.500663   -1.402895
     31          1           0       10.403185   -1.491050    0.394443
     32          1           0       12.216367    0.140712    0.485152
     33          1           0       12.491291    0.041468   -1.176704
     34          1           0       13.063907   -2.426151   -0.896583
     35          1           0       12.648743   -2.294598    0.709696
     36          1           0       14.457702   -0.762945    1.157701
     37          1           0       15.023856   -0.682155   -0.495612
     38          1           0       15.807079   -2.740229   -0.609594
     39          1           0       16.366998   -2.223521    0.760955
     40          1           0       15.083061   -3.209502    0.834768
     41          7           0        7.317498   -0.412108   -0.390107
     42          6           0        5.972759   -0.820097   -0.731900
     43          6           0        4.996730    0.346221   -0.817156
     44          8           0        4.780313    1.183047    0.057078
     45          6           0        5.561647   -1.961632    0.197823
     46          6           0        4.205763   -2.542312   -0.174855
     47          8           0        3.439833   -3.083529    0.644313
     48          8           0        3.865033   -2.502010   -1.371634
     49          1           0        7.418541   -0.258275    0.613898
     50          1           0        5.897977   -1.288206   -1.720374
     51          1           0        5.530063   -1.601474    1.222805
     52          1           0        6.349212   -2.722493    0.094704
     53          7           0        4.289220    0.491782   -1.935880
     54          6           0        3.159429    1.351951   -2.232159
     55          6           0        1.826525    0.620538   -2.178279
     56          8           0        1.699904   -0.515840   -2.603967
     57          1           0        4.388576   -0.280150   -2.586763
     58          1           0        3.129428    1.757922   -3.244724
     59          1           0        3.119397    2.147686   -1.483224
     60          7           0        0.886719    1.346069   -1.560404
     61          6           0       -0.412105    0.860872   -1.114713
     62          6           0       -1.493471    1.810863   -1.606918
     63          8           0       -2.642178    1.395692   -1.749412
     64          6           0       -0.362256    0.633884    0.389046
     65          6           0        0.797433   -0.227945    0.871614
     66          7           0        1.260899   -1.285354    0.215576
     67          8           0        1.198280    0.050229    2.004681
     68          1           0        1.163976    2.301090   -1.382744
     69          1           0       -0.615540   -0.137060   -1.499999
     70          1           0       -1.204660    0.059549    0.802561
     71          1           0       -0.205493    1.606958    0.852459
     72          1           0        0.663954   -1.556977   -0.562805
     73          1           0        2.019193   -1.861294    0.549318
     74          7           0       -1.226613    3.112127   -1.687537
     75          6           0       -2.207144    4.147372   -1.970782
     76          6           0       -3.148111    4.480693   -0.820487
     77          8           0       -2.782572    4.717360    0.330760
     78          1           0       -0.341262    3.452835   -1.357429
     79          1           0       -2.788846    3.889368   -2.853481
     80          1           0       -1.659913    5.070076   -2.156674
     81          7           0       -4.430903    4.500984   -1.202761
     82          6           0       -5.526571    4.385208   -0.250655
     83          6           0       -5.500905    3.203080    0.703083
     84          8           0       -6.041886    3.255389    1.807077
     85          6           0       -5.930267    5.729498    0.340372
     86          6           0       -6.128095    6.893878   -0.597702
     87          6           0       -5.272508    7.978236   -0.409716
     88          6           0       -7.133231    6.897549   -1.573298
     89          6           0       -5.431569    9.099712   -1.238445
     90          6           0       -7.256764    7.991895   -2.444474
     91          6           0       -6.414222    9.111025   -2.251937
     92          8           0       -6.566043   10.226524   -3.014245
     93          1           0       -4.703387    4.540989   -2.179670
     94          1           0       -6.380053    4.077413   -0.850764
     95          1           0       -5.239260    5.982772    1.155026
     96          1           0       -6.863539    5.502700    0.870339
     97          1           0       -4.594376    8.021551    0.434121
     98          1           0       -7.887562    6.133828   -1.657656
     99          1           0       -4.883221   10.003089   -1.031749
    100          1           0       -7.988584    7.981763   -3.234308
    101          1           0       -7.102995   10.293847   -3.815338
    102          7           0       -4.793202    2.138000    0.322344
    103          6           0       -4.761561    0.841295    0.982081
    104          6           0       -6.023484    0.010782    0.810039
    105          8           0       -5.997661   -1.104144    0.283849
    106          6           0       -4.032971    0.911411    2.315138
    107          6           0       -2.946765    1.977457    2.425151
    108          6           0       -3.593959   -0.506111    2.648605
    109          6           0       -1.865115    1.579486    3.424677
    110          1           0       -4.601310    2.173774   -0.675452
    111          1           0       -4.112190    0.351106    0.260465
    112          1           0       -4.779865    1.224710    3.054051
    113          1           0       -3.376067    2.947301    2.661588
    114          1           0       -2.530406    1.992121    1.419055
    115          1           0       -3.033312   -1.017870    1.859442
    116          1           0       -3.156699   -0.529616    3.642161
    117          1           0       -4.523212   -1.057523    2.835775
    118          1           0       -1.133148    2.353339    3.191706
    119          1           0       -2.310406    1.578178    4.421579
    120          1           0       -1.326260    0.684672    3.104763
    121          7           0       -7.159720    0.535806    1.276214
    122          6           0       -8.472710    0.022251    0.953077
    123          6           0       -8.727880   -1.450712    1.280440
    124          8           0       -9.495707   -2.086596    0.554152
    125          6           0       -9.543266    0.839651    1.680791
    126          8           0       -9.402371    2.175148    1.263184
    127          1           0       -7.051806    1.501572    1.545564
    128          1           0       -8.693409    0.115833   -0.108965
    129          1           0       -9.415961    0.799911    2.766892
    130          1           0      -10.532611    0.436058    1.445187
    131          1           0      -10.007074    2.704419    1.792246
    132          7           0       -8.036980   -1.949979    2.307421
    133          6           0       -8.014906   -3.351085    2.660712
    134          6           0       -7.659193   -4.324924    1.540664
    135          8           0       -8.086797   -5.484492    1.528101
    136          6           0       -9.284422   -3.707892    3.439955
    137          1           0       -7.507459   -1.393938    2.960663
    138          1           0       -7.175265   -3.423893    3.360570
    139          1           0      -10.082655   -3.766871    2.701142
    140          1           0       -9.149847   -4.663837    3.944493
    141          1           0       -9.578892   -2.972473    4.184097
    142          7           0       -6.787715   -3.839176    0.656824
    143          6           0       -6.154658   -4.668622   -0.353998
    144          6           0       -4.664402   -4.871062   -0.138697
    145          8           0       -3.939442   -4.153905    0.546883
    146          6           0       -6.343254   -3.848304   -1.625143
    147          1           0       -6.551867   -2.873070    0.806873
    148          1           0       -6.669945   -5.634275   -0.363644
    149          1           0       -7.385021   -3.671511   -1.875076
    150          1           0       -5.783195   -2.929981   -1.477094
    151          1           0       -5.873507   -4.402329   -2.439817
    152          7           0       -4.255663   -5.990069   -0.744630
    153          6           0       -2.906865   -6.493061   -0.879698
    154          6           0       -2.172894   -6.807827    0.421152
    155          8           0       -0.993413   -7.151675    0.386608
    156          6           0       -2.180759   -5.510362   -1.802342
    157          6           0       -1.023379   -6.219432   -2.493640
    158          6           0       -0.743299   -5.417344   -3.754279
    159          8           0        0.379315   -4.894382   -3.916908
    160          8           0       -1.644390   -5.333644   -4.625617
    161          1           0       -5.039544   -6.440885   -1.195070
    162          1           0       -3.015324   -7.514792   -1.250378
    163          1           0       -1.793822   -4.697976   -1.187275
    164          1           0       -2.868372   -5.130428   -2.545335
    165          1           0       -1.298563   -7.226293   -2.796632
    166          1           0       -0.102203   -6.209302   -1.908121
    167          7           0       -2.840525   -6.702017    1.566347
    168          6           0       -2.355182   -6.864490    2.924561
    169          1           0       -2.118101   -7.913199    3.102300
    170          1           0       -1.458595   -6.260689    3.065290
    171          1           0       -3.124521   -6.542486    3.627109
    172          1           0       -3.819236   -6.478378    1.468826
    173         20           0        2.032698   -3.213417   -3.056106
    174          8           0       -0.343503   -2.601607   -2.368678
    175          1           0       -0.902454   -2.722034   -1.600451
    176          1           0       -0.956405   -2.577380   -3.102139
 ---------------------------------------------------------------------

 SCF Done:  E(RB3LYP) =  -5333.31237473     A.U. after   36 cycles

 The electronic state is 1-A.
 Alpha  occ. eigenvalues -- -145.47911 -19.20519 -19.15849 -19.14880 -19.14150
 Alpha  occ. eigenvalues --  -19.12697 -19.11552 -19.10645 -19.10629 -19.09328
 Alpha  occ. eigenvalues --  -19.08993 -19.08245 -19.07608 -19.07466 -19.07108
 Alpha  occ. eigenvalues --  -19.07101 -19.06595 -19.06549 -19.06518 -19.06420
 Alpha  occ. eigenvalues --  -19.05155 -19.02572 -18.97309 -18.96964 -15.53769
 Alpha  occ. eigenvalues --  -14.56253 -14.39462 -14.39355 -14.37337 -14.35471
 Alpha  occ. eigenvalues --  -14.35460 -14.35412 -14.34941 -14.34837 -14.34342
 Alpha  occ. eigenvalues --  -14.34135 -14.34031 -14.33368 -14.32620 -14.31909
 Alpha  occ. eigenvalues --  -12.67405 -12.67367 -12.67260 -10.34576 -10.32278
 Alpha  occ. eigenvalues --  -10.31498 -10.30147 -10.29090 -10.28817 -10.28212
 Alpha  occ. eigenvalues --  -10.27805 -10.27158 -10.27034 -10.26797 -10.26499
 Alpha  occ. eigenvalues --  -10.26370 -10.26215 -10.26055 -10.26004 -10.25901
 Alpha  occ. eigenvalues --  -10.25857 -10.25767 -10.25454 -10.24666 -10.24513
 Alpha  occ. eigenvalues --  -10.24503 -10.24349 -10.23903 -10.23364 -10.23140
 Alpha  occ. eigenvalues --  -10.22967 -10.22466 -10.22455 -10.22332 -10.21896
 Alpha  occ. eigenvalues --  -10.21637 -10.20893 -10.20545 -10.20362 -10.19680
 Alpha  occ. eigenvalues --  -10.19400 -10.19260 -10.19170 -10.18813 -10.18608
 Alpha  occ. eigenvalues --  -10.18475 -10.17641 -10.17604 -10.17266 -10.16560
 Alpha  occ. eigenvalues --  -10.16499 -10.16396 -10.16364 -10.15509 -10.14992
 Alpha  occ. eigenvalues --  -10.14798 -10.11448  -1.90271  -1.17975  -1.17733
 Alpha  occ. eigenvalues --   -1.16857  -1.11897  -1.07414  -1.06600  -1.05950
 Alpha  occ. eigenvalues --   -1.04368  -1.04129  -1.03817  -1.03125  -1.02470
 Alpha  occ. eigenvalues --   -1.02157  -1.02085  -1.01742  -1.01254  -1.00681
 Alpha  occ. eigenvalues --   -1.00234  -1.00138  -0.99653  -0.99489  -0.99440
 Alpha  occ. eigenvalues --   -0.98956  -0.97114  -0.94876  -0.94296  -0.92989
 Alpha  occ. eigenvalues --   -0.92535  -0.92354  -0.91803  -0.91636  -0.91563
 Alpha  occ. eigenvalues --   -0.91028  -0.90887  -0.90166  -0.90015  -0.89638
 Alpha  occ. eigenvalues --   -0.89339  -0.88544  -0.88353  -0.87946  -0.85071
 Alpha  occ. eigenvalues --   -0.82094  -0.81709  -0.81129  -0.81013  -0.79363
 Alpha  occ. eigenvalues --   -0.78978  -0.77926  -0.77585  -0.76310  -0.76060
 Alpha  occ. eigenvalues --   -0.75675  -0.74887  -0.74628  -0.74238  -0.73942
 Alpha  occ. eigenvalues --   -0.73729  -0.72296  -0.72164  -0.71641  -0.70770
 Alpha  occ. eigenvalues --   -0.70042  -0.69346  -0.68897  -0.68340  -0.68259
 Alpha  occ. eigenvalues --   -0.66136  -0.65501  -0.65236  -0.64354  -0.64189
 Alpha  occ. eigenvalues --   -0.63582  -0.63093  -0.62945  -0.62359  -0.62139
 Alpha  occ. eigenvalues --   -0.62113  -0.61265  -0.61044  -0.60982  -0.60286
 Alpha  occ. eigenvalues --   -0.60176  -0.59911  -0.59540  -0.59393  -0.58913
 Alpha  occ. eigenvalues --   -0.57796  -0.57455  -0.57391  -0.57037  -0.56588
 Alpha  occ. eigenvalues --   -0.56492  -0.56039  -0.55757  -0.55742  -0.55626
 Alpha  occ. eigenvalues --   -0.55474  -0.54691  -0.54073  -0.53778  -0.53721
 Alpha  occ. eigenvalues --   -0.53512  -0.53077  -0.52883  -0.52662  -0.52339
 Alpha  occ. eigenvalues --   -0.51795  -0.51528  -0.51177  -0.51055  -0.50831
 Alpha  occ. eigenvalues --   -0.50127  -0.50044  -0.49559  -0.49387  -0.49201
 Alpha  occ. eigenvalues --   -0.48559  -0.48354  -0.48263  -0.48027  -0.47824
 Alpha  occ. eigenvalues --   -0.47514  -0.47137  -0.47071  -0.46867  -0.46671
 Alpha  occ. eigenvalues --   -0.46599  -0.46379  -0.46072  -0.46031  -0.45944
 Alpha  occ. eigenvalues --   -0.45698  -0.45566  -0.45206  -0.44971  -0.44817
 Alpha  occ. eigenvalues --   -0.44719  -0.44444  -0.44286  -0.44265  -0.44004
 Alpha  occ. eigenvalues --   -0.43907  -0.43813  -0.43527  -0.43515  -0.43169
 Alpha  occ. eigenvalues --   -0.43113  -0.42999  -0.42961  -0.42740  -0.42685
 Alpha  occ. eigenvalues --   -0.42381  -0.42279  -0.42048  -0.41991  -0.41671
 Alpha  occ. eigenvalues --   -0.41487  -0.41350  -0.41317  -0.41045  -0.40859
 Alpha  occ. eigenvalues --   -0.40612  -0.40439  -0.40186  -0.40104  -0.40032
 Alpha  occ. eigenvalues --   -0.39596  -0.39528  -0.39459  -0.39285  -0.39097
 Alpha  occ. eigenvalues --   -0.38892  -0.38807  -0.38631  -0.38427  -0.38250
 Alpha  occ. eigenvalues --   -0.38124  -0.38032  -0.37876  -0.37780  -0.37704
 Alpha  occ. eigenvalues --   -0.37604  -0.37572  -0.37436  -0.37292  -0.37164
 Alpha  occ. eigenvalues --   -0.37071  -0.37002  -0.36897  -0.36587  -0.36538
 Alpha  occ. eigenvalues --   -0.36308  -0.36251  -0.35935  -0.35866  -0.35618
 Alpha  occ. eigenvalues --   -0.35441  -0.35298  -0.35013  -0.34936  -0.34922
 Alpha  occ. eigenvalues --   -0.34725  -0.34574  -0.34110  -0.33771  -0.33650
 Alpha  occ. eigenvalues --   -0.33529  -0.33499  -0.33398  -0.32938  -0.32925
 Alpha  occ. eigenvalues --   -0.32595  -0.32331  -0.31988  -0.31824  -0.31636
 Alpha  occ. eigenvalues --   -0.31407  -0.30738  -0.30454  -0.29371  -0.28831
 Alpha  occ. eigenvalues --   -0.28703  -0.28476  -0.28285  -0.27710  -0.27217
 Alpha  occ. eigenvalues --   -0.26633  -0.26624  -0.26415  -0.26237  -0.26115
 Alpha  occ. eigenvalues --   -0.26086  -0.25771  -0.25479  -0.25187  -0.25152
 Alpha  occ. eigenvalues --   -0.25120  -0.24929  -0.24844  -0.24536  -0.24406
 Alpha  occ. eigenvalues --   -0.23570  -0.23549  -0.23379  -0.23117  -0.23051
 Alpha  occ. eigenvalues --   -0.22998  -0.22493  -0.22287  -0.22170  -0.22126
 Alpha  occ. eigenvalues --   -0.22105  -0.21634  -0.21626  -0.20996  -0.18781
 Alpha  occ. eigenvalues --   -0.14543  -0.13960  -0.11169
 Alpha virt. eigenvalues --   -0.10199  -0.08441  -0.03760  -0.03369  -0.02363
 Alpha virt. eigenvalues --   -0.02116  -0.01615  -0.01555  -0.01096  -0.00401
 Alpha virt. eigenvalues --   -0.00340   0.00004   0.00652   0.01246   0.01430

 Mulliken charges:
               1
     1  C    0.062856
     2  C    0.016704
     3  O   -0.269313
     4  H    0.026917
     5  H   -0.027892
     6  H    0.052652
     7  N   -0.121690
     8  C    0.083475
     9  C    0.091717
    10  O   -0.219071
    11  C    0.058072
    12  C    0.077399
    13  O   -0.334263
    14  O   -0.351442
    15  H    0.106326
    16  H   -0.008590
    17  H   -0.021421
    18  H    0.022921
    19  N   -0.149039
    20  C    0.159531
    21  C    0.079582
    22  O   -0.301996
    23  C    0.014945
    24  C    0.022057
    25  C   -0.002202
    26  C    0.056080
    27  N    0.166220
    28  H    0.082738
    29  H    0.020314
    30  H    0.020604
    31  H   -0.001232
    32  H   -0.016069
    33  H    0.014796
    34  H    0.007103
    35  H    0.007555
    36  H    0.064480
    37  H    0.043533
    38  H    0.096978
    39  H    0.091471
    40  H    0.110126
    41  N   -0.109835
    42  C    0.123523
    43  C    0.076184
    44  O   -0.246193
    45  C    0.066725
    46  C    0.120266
    47  O   -0.346616
    48  O   -0.502579
    49  H    0.140272
    50  H   -0.024127
    51  H    0.037558
    52  H    0.011661
    53  N   -0.112557
    54  C    0.203208
    55  C    0.081993
    56  O   -0.365332
    57  H    0.097125
    58  H    0.030660
    59  H    0.037496
    60  N   -0.143224
    61  C    0.084756
    62  C    0.117961
    63  O   -0.284972
    64  C    0.080124
    65  C   -0.042136
    66  N   -0.039735
    67  O   -0.251258
    68  H    0.129476
    69  H   -0.017268
    70  H    0.065226
    71  H    0.024814
    72  H    0.084733
    73  H    0.150338
    74  N   -0.134521
    75  C    0.210695
    76  C    0.054588
    77  O   -0.247704
    78  H    0.118219
    79  H    0.007047
    80  H    0.036474
    81  N   -0.147492
    82  C    0.078744
    83  C    0.067632
    84  O   -0.292147
    85  C    0.170347
    86  C   -0.001512
    87  C   -0.008033
    88  C   -0.026112
    89  C   -0.025571
    90  C   -0.053828
    91  C    0.198541
    92  O   -0.229253
    93  H    0.134424
    94  H    0.009686
    95  H    0.010528
    96  H    0.003600
    97  H   -0.009289
    98  H   -0.029920
    99  H   -0.021517
   100  H   -0.045892
   101  H    0.186061
   102  N   -0.130409
   103  C    0.177613
   104  C    0.042882
   105  O   -0.275956
   106  C   -0.128994
   107  C    0.021366
   108  C    0.092703
   109  C    0.040666
   110  H    0.126697
   111  H   -0.016838
   112  H   -0.017476
   113  H    0.020453
   114  H   -0.022946
   115  H    0.027940
   116  H    0.008925
   117  H   -0.021019
   118  H    0.012186
   119  H    0.016580
   120  H    0.024369
   121  N   -0.116636
   122  C    0.115603
   123  C    0.056000
   124  O   -0.260759
   125  C    0.215359
   126  O   -0.300156
   127  H    0.135234
   128  H    0.014587
   129  H   -0.016158
   130  H    0.013583
   131  H    0.167802
   132  N   -0.140752
   133  C    0.031301
   134  C    0.061615
   135  O   -0.287570
   136  C    0.085804
   137  H    0.126216
   138  H    0.013795
   139  H    0.034139
   140  H    0.017163
   141  H   -0.015378
   142  N   -0.124856
   143  C    0.080180
   144  C    0.033381
   145  O   -0.273369
   146  C    0.071701
   147  H    0.137806
   148  H    0.011837
   149  H    0.036960
   150  H    0.024763
   151  H   -0.013907
   152  N   -0.145502
   153  C    0.108552
   154  C    0.014909
   155  O   -0.275128
   156  C    0.024743
   157  C    0.119849
   158  C    0.064691
   159  O   -0.517044
   160  O   -0.358459
   161  H    0.121655
   162  H    0.018429
   163  H   -0.013298
   164  H    0.015280
   165  H   -0.001319
   166  H   -0.017677
   167  N   -0.118205
   168  C    0.137842
   169  H    0.023016
   170  H    0.038516
   171  H    0.018571
   172  H    0.118008
   173  Ca   1.447127
   174  O   -0.305086
   175  H    0.212366
   176  H    0.209148
 Sum of Mulliken charges =  -0.00000

 Dipole moment (field-independent basis, Debye):
    X=             27.3868    Y=            -13.1090    Z=             -5.2077  Tot=             30.8059
 Quadrupole moment (field-independent basis, Debye-Ang):
   XX=             41.0907   YY=           -685.6785   ZZ=           -536.6967
   XY=           -339.7070   XZ=             16.0381   YZ=            -58.0211

 ESP charges:
               1
     1  C   -0.449984
     2  C    0.715984
     3  O   -0.540958
     4  H    0.117045
     5  H    0.067984
     6  H    0.150450
     7  N   -0.642998
     8  C    0.336238
     9  C    0.374024
    10  O   -0.407900
    11  C   -0.373371
    12  C    0.708988
    13  O   -0.616834
    14  O   -0.634458
    15  H    0.320751
    16  H    0.008042
    17  H    0.091523
    18  H    0.120085
    19  N   -0.403375
    20  C    0.081444
    21  C    0.566799
    22  O   -0.589879
    23  C   -0.295927
    24  C    0.131740
    25  C   -0.040570
    26  C    0.014657
    27  N   -0.133977
    28  H    0.215538
    29  H    0.114074
    30  H    0.093908
    31  H    0.090394
    32  H   -0.003715
    33  H    0.003232
    34  H    0.014822
    35  H    0.041281
    36  H    0.068069
    37  H    0.064132
    38  H    0.206102
    39  H    0.192192
    40  H    0.198849
    41  N   -0.519757
    42  C    0.304771
    43  C    0.548022
    44  O   -0.500478
    45  C   -0.273490
    46  C    0.808637
    47  O   -0.677013
    48  O   -0.888264
    49  H    0.272504
    50  H    0.016835
    51  H    0.072640
    52  H    0.077040
    53  N   -0.383460
    54  C   -0.053332
    55  C    0.738493
    56  O   -0.628392
    57  H    0.215206
    58  H    0.052247
    59  H    0.108940
    60  N   -0.774267
    61  C    0.274118
    62  C    0.583367
    63  O   -0.552913
    64  C   -0.085232
    65  C    0.687189
    66  N   -0.783509
    67  O   -0.559852
    68  H    0.312569
    69  H   -0.015285
    70  H    0.035091
    71  H    0.071171
    72  H    0.320837
    73  H    0.398774
    74  N   -0.459599
    75  C   -0.253372
    76  C    0.741787
    77  O   -0.532685
    78  H    0.352097
    79  H    0.143309
    80  H    0.129884
    81  N   -0.759670
    82  C    0.403703
    83  C    0.337045
    84  O   -0.523026
    85  C   -0.192776
    86  C    0.056503
    87  C   -0.117335
    88  C   -0.110322
    89  C   -0.318775
    90  C   -0.359126
    91  C    0.462217
    92  O   -0.607178
    93  H    0.337940
    94  H   -0.001261
    95  H    0.089326
    96  H    0.047663
    97  H    0.144670
    98  H    0.130748
    99  H    0.173444
   100  H    0.153732
   101  H    0.435232
   102  N   -0.215442
   103  C   -0.558616
   104  C    0.806710
   105  O   -0.526916
   106  C    0.424740
   107  C    0.169111
   108  C   -0.556636
   109  C   -0.446631
   110  H    0.271221
   111  H    0.145041
   112  H   -0.045137
   113  H    0.051811
   114  H   -0.114208
   115  H    0.170773
   116  H    0.138603
   117  H    0.124677
   118  H    0.095981
   119  H    0.111514
   120  H    0.120481
   121  N   -0.580565
   122  C    0.122928
   123  C    0.388272
   124  O   -0.481311
   125  C    0.192989
   126  O   -0.599716
   127  H    0.366161
   128  H    0.078109
   129  H    0.000250
   130  H    0.022145
   131  H    0.402262
   132  N   -0.423409
   133  C    0.333568
   134  C    0.393191
   135  O   -0.536711
   136  C   -0.305811
   137  H    0.270288
   138  H   -0.000068
   139  H    0.100883
   140  H    0.070595
   141  H    0.064051
   142  N   -0.296904
   143  C    0.388180
   144  C    0.489962
   145  O   -0.543227
   146  C   -0.310576
   147  H    0.093365
   148  H   -0.022476
   149  H    0.104375
   150  H    0.100531
   151  H    0.039330
   152  N   -0.766137
   153  C    0.388117
   154  C    0.247544
   155  O   -0.469994
   156  C   -0.058388
   157  C   -0.340467
   158  C    0.923961
   159  O   -0.914426
   160  O   -0.692312
   161  H    0.349535
   162  H    0.036588
   163  H    0.074743
   164  H    0.050924
   165  H    0.085503
   166  H    0.027360
   167  N   -0.092030
   168  C   -0.259166
   169  H    0.091665
   170  H    0.128602
   171  H    0.117469
   172  H    0.187941
   173  Ca   1.712192
   174  O   -0.832393
   175  H    0.410404
   176  H    0.423239
 Sum of ESP charges =  -0.00000

 Normal termination of Gaussian 16 at Tue Sep 17 10:21:26 2019.
