 Gaussian 16, Revision A.03,
 Gaussian 16:  ES64L-G16RevA.03 25-Dec-2016

 ----------------------------------------------------------------------
 #b3lyp/svp scf=(tight,noincore) Test #IOP(5/87=12) Density=Current Pop
 =(MK,readradii) iop(6/33=2) iop(6/42=6)
 ----------------------------------------------------------------------

 -----------------
 Ng-295_loop3_37.0
 -----------------
 Symbolic Z-matrix:
 Charge =  0 Multiplicity = 1

                         Standard orientation:
 ---------------------------------------------------------------------
 Center     Atomic      Atomic             Coordinates (Angstroms)
 Number     Number       Type             X           Y           Z
 ---------------------------------------------------------------------
      1          6           0       11.595995   -4.983871    3.390792
      2          6           0       10.852988   -4.295836    2.261390
      3          8           0       10.820667   -4.848319    1.157254
      4          1           0       11.159894   -4.687561    4.344631
      5          1           0       11.514739   -6.064638    3.275029
      6          1           0       12.646351   -4.693480    3.365855
      7          7           0       10.205801   -3.189015    2.612811
      8          6           0        9.259479   -2.575096    1.687296
      9          6           0        9.981264   -1.456851    0.956644
     10          8           0       10.670637   -0.680912    1.615191
     11          6           0        8.138999   -1.978525    2.517193
     12          6           0        7.053086   -1.632490    1.504201
     13          8           0        6.322913   -2.548885    1.089390
     14          8           0        6.895226   -0.462068    1.105213
     15          1           0       10.304193   -2.869307    3.561866
     16          1           0        8.877151   -3.301244    0.963601
     17          1           0        8.354873   -1.099364    3.130524
     18          1           0        7.699941   -2.700061    3.211969
     19          7           0        9.829424   -1.378864   -0.367087
     20          6           0       10.657344   -0.486170   -1.158255
     21          6           0       10.008496    0.710442   -1.845070
     22          8           0       10.672714    1.646077   -2.283594
     23          6           0       11.384311   -1.325556   -2.207898
     24          6           0       12.451967   -2.211208   -1.572106
     25          6           0       12.325919   -3.702264   -1.869027
     26          6           0       13.189558   -4.710578   -1.117342
     27          7           0       14.581655   -4.247424   -1.049848
     28          1           0        9.218092   -2.066423   -0.785220
     29          1           0       11.405940   -0.082767   -0.473075
     30          1           0       11.873528   -0.715706   -2.961920
     31          1           0       10.562961   -1.877937   -2.663704
     32          1           0       12.478362   -1.920915   -0.528969
     33          1           0       13.394633   -1.805987   -1.946376
     34          1           0       12.626824   -3.877451   -2.900999
     35          1           0       11.309493   -4.079359   -1.834711
     36          1           0       13.248751   -5.645705   -1.675851
     37          1           0       12.792274   -4.865165   -0.120864
     38          1           0       14.976941   -4.085009   -1.969940
     39          1           0       14.684186   -3.361079   -0.564587
     40          1           0       15.189705   -4.896209   -0.569481
     41          7           0        8.686497    0.672354   -1.972617
     42          6           0        7.901614    1.571806   -2.800109
     43          6           0        7.489583    2.852468   -2.079390
     44          8           0        6.965709    3.804301   -2.634430
     45          6           0        6.670104    0.875371   -3.378867
     46          6           0        5.943345    0.168334   -2.254536
     47          8           0        5.188902    0.847493   -1.515171
     48          8           0        6.161822   -1.043176   -2.035652
     49          1           0        8.194375   -0.175359   -1.753302
     50          1           0        8.458834    1.760251   -3.719943
     51          1           0        6.994929    0.079070   -4.046770
     52          1           0        5.925523    1.486499   -3.902148
     53          7           0        7.842137    2.851558   -0.788419
     54          6           0        7.582821    3.960260    0.112323
     55          6           0        6.164681    4.229799    0.607931
     56          8           0        6.034828    5.051801    1.502163
     57          1           0        8.322985    2.050095   -0.414866
     58          1           0        7.885610    4.912302   -0.325552
     59          1           0        8.191132    3.812875    1.004755
     60          7           0        5.134596    3.535534    0.129786
     61          6           0        3.738371    3.770287    0.458033
     62          6           0        3.037160    2.590061    1.117026
     63          8           0        3.523334    1.457115    0.972226
     64          6           0        3.157375    4.075225   -0.915887
     65          6           0        1.695893    4.500096   -0.903387
     66          7           0        1.304816    5.773404   -0.962929
     67          8           0        0.780970    3.701219   -0.705371
     68          1           0        5.272261    2.936765   -0.670604
     69          1           0        3.618439    4.605586    1.148244
     70          1           0        3.069164    3.115456   -1.431215
     71          1           0        3.722581    4.821168   -1.467168
     72          1           0        1.933445    6.561538   -1.004997
     73          1           0        0.328191    5.945987   -1.134451
     74          7           0        1.928796    2.812988    1.807484
     75          6           0        1.137571    1.812036    2.504664
     76          6           0       -0.376449    1.947343    2.304579
     77          8           0       -1.014542    1.268196    3.103702
     78          1           0        1.630661    3.775645    1.885630
     79          1           0        1.416496    1.856715    3.549463
     80          1           0        1.417229    0.824879    2.154933
     81          7           0       -0.900760    2.763222    1.399516
     82          6           0       -2.325217    3.062325    1.327686
     83          6           0       -3.111439    2.080112    0.484825
     84          8           0       -2.703103    1.856238   -0.659789
     85          6           0       -2.451473    4.505686    0.842643
     86          6           0       -3.813208    5.142576    0.966940
     87          6           0       -4.786864    4.912897   -0.016849
     88          6           0       -4.012227    5.993343    2.060643
     89          6           0       -6.072740    5.435181    0.104157
     90          6           0       -5.288984    6.559032    2.156493
     91          6           0       -6.281295    6.326157    1.188254
     92          8           0       -7.423366    7.052028    1.362852
     93          1           0       -0.255722    3.281668    0.826506
     94          1           0       -2.665429    3.005710    2.354891
     95          1           0       -2.091541    4.570315   -0.191413
     96          1           0       -1.780623    5.062654    1.498271
     97          1           0       -4.447487    4.215221   -0.775645
     98          1           0       -3.265409    6.122694    2.828844
     99          1           0       -6.872416    5.376798   -0.616405
    100          1           0       -5.541694    7.181522    3.003809
    101          1           0       -7.263018    7.591080    2.148353
    102          7           0       -4.156728    1.443458    1.022825
    103          6           0       -5.088458    0.507431    0.413619
    104          6           0       -6.081098    1.102683   -0.564869
    105          8           0       -5.697367    2.026516   -1.284441
    106          6           0       -4.455668   -0.816554    0.000290
    107          6           0       -3.432917   -1.280759    1.028976
    108          6           0       -3.937356   -0.818954   -1.429902
    109          6           0       -3.872012   -1.387268    2.486800
    110          1           0       -4.311864    1.607386    2.008705
    111          1           0       -5.752425    0.196650    1.218829
    112          1           0       -5.187808   -1.629006    0.022505
    113          1           0       -2.505605   -0.710817    1.036715
    114          1           0       -3.076676   -2.236742    0.629615
    115          1           0       -2.870716   -0.593432   -1.409407
    116          1           0       -4.009316   -1.807537   -1.873776
    117          1           0       -4.460900   -0.117869   -2.087535
    118          1           0       -4.050233   -0.425315    2.953043
    119          1           0       -4.643218   -2.149691    2.601053
    120          1           0       -3.093064   -1.848079    3.095071
    121          7           0       -7.306114    0.588618   -0.751073
    122          6           0       -8.161697    0.935806   -1.873364
    123          6           0       -9.639685    0.776068   -1.512067
    124          8           0      -10.471709    0.890013   -2.416087
    125          6           0       -7.756587    0.257222   -3.179622
    126          8           0       -7.225829   -1.047543   -3.119750
    127          1           0       -7.537095   -0.189251   -0.165524
    128          1           0       -7.995165    1.994901   -2.008959
    129          1           0       -6.953041    0.848436   -3.605391
    130          1           0       -8.528247    0.294035   -3.956336
    131          1           0       -7.067325   -1.329227   -4.029327
    132          7           0      -10.020488    0.420571   -0.279870
    133          6           0      -11.350557    0.245540    0.255744
    134          6           0      -12.145798   -0.625494   -0.716569
    135          8           0      -13.264987   -0.206510   -0.995618
    136          6           0      -11.872681    1.618857    0.651203
    137          1           0       -9.247038    0.301119    0.346952
    138          1           0      -11.240709   -0.350755    1.158886
    139          1           0      -12.894694    1.538320    1.016309
    140          1           0      -11.206759    1.970887    1.432434
    141          1           0      -11.890145    2.327343   -0.175926
    142          7           0      -11.739442   -1.776730   -1.243853
    143          6           0      -10.509246   -2.520583   -1.039888
    144          6           0      -10.794292   -3.936928   -0.553970
    145          8           0      -11.829941   -4.470636   -0.947909
    146          6           0       -9.843069   -2.498389   -2.409821
    147          1           0      -12.463755   -2.267595   -1.757101
    148          1           0       -9.920006   -2.010170   -0.279510
    149          1           0      -10.162136   -3.295924   -3.078726
    150          1           0      -10.001456   -1.508721   -2.846593
    151          1           0       -8.785638   -2.594310   -2.164182
    152          7           0       -9.871155   -4.718022    0.007108
    153          6           0       -8.613539   -4.217906    0.518953
    154          6           0       -8.597845   -4.157710    2.035736
    155          8           0       -7.653046   -3.621640    2.623430
    156          6           0       -7.489407   -5.144214    0.043684
    157          6           0       -7.069427   -4.807615   -1.389780
    158          6           0       -5.792042   -5.504441   -1.826955
    159          8           0       -5.644158   -6.648275   -1.338003
    160          8           0       -4.945687   -4.904051   -2.527466
    161          1           0      -10.263968   -5.600575    0.325539
    162          1           0       -8.409630   -3.204855    0.174354
    163          1           0       -7.958264   -6.122974    0.045316
    164          1           0       -6.656832   -5.213408    0.738905
    165          1           0       -6.883176   -3.740507   -1.532226
    166          1           0       -7.909024   -4.979212   -2.065747
    167          7           0       -9.526269   -4.804606    2.737558
    168          6           0       -9.570764   -4.799486    4.177243
    169          1           0       -9.803217   -3.794069    4.529479
    170          1           0      -10.340241   -5.490796    4.519771
    171          1           0       -8.602646   -5.107309    4.571866
    172          1           0      -10.282976   -5.317614    2.309518
    173         20           0        4.430234   -0.915239    0.177066
    174          8           0        4.016336   -1.097877    2.800639
    175          1           0        4.202419   -1.865056    3.329232
    176          1           0        3.305328   -0.651585    3.261280
 ---------------------------------------------------------------------

 SCF Done:  E(RB3LYP) =  -5333.39794414     A.U. after   62 cycles

 The electronic state is 1-A.
 Alpha  occ. eigenvalues -- -145.44939 -19.21706 -19.15446 -19.15226 -19.13916
 Alpha  occ. eigenvalues --  -19.12611 -19.12161 -19.11579 -19.10416 -19.09968
 Alpha  occ. eigenvalues --  -19.09953 -19.09870 -19.09704 -19.09292 -19.09151
 Alpha  occ. eigenvalues --  -19.08474 -19.07704 -19.07447 -19.06987 -19.06528
 Alpha  occ. eigenvalues --  -19.06420 -19.04379 -18.95754 -18.95568 -15.50795
 Alpha  occ. eigenvalues --  -14.56268 -14.40424 -14.39692 -14.39618 -14.38025
 Alpha  occ. eigenvalues --  -14.37272 -14.35819 -14.35770 -14.35503 -14.35001
 Alpha  occ. eigenvalues --  -14.34528 -14.34380 -14.33782 -14.33247 -14.31021
 Alpha  occ. eigenvalues --  -12.64402 -12.64352 -12.64334 -10.33368 -10.33295
 Alpha  occ. eigenvalues --  -10.32440 -10.31539 -10.31206 -10.30482 -10.29465
 Alpha  occ. eigenvalues --  -10.28521 -10.28484 -10.28319 -10.27986 -10.27322
 Alpha  occ. eigenvalues --  -10.27093 -10.26910 -10.26781 -10.26705 -10.26610
 Alpha  occ. eigenvalues --  -10.26356 -10.26350 -10.25780 -10.25406 -10.25290
 Alpha  occ. eigenvalues --  -10.24562 -10.24426 -10.24289 -10.23994 -10.23178
 Alpha  occ. eigenvalues --  -10.23108 -10.23013 -10.22966 -10.22517 -10.22126
 Alpha  occ. eigenvalues --  -10.21790 -10.20896 -10.20885 -10.20804 -10.20537
 Alpha  occ. eigenvalues --  -10.20145 -10.19818 -10.19133 -10.18900 -10.18301
 Alpha  occ. eigenvalues --  -10.18263 -10.18123 -10.17939 -10.16112 -10.15902
 Alpha  occ. eigenvalues --  -10.15015 -10.14720 -10.14666 -10.14165 -10.12932
 Alpha  occ. eigenvalues --  -10.11659 -10.09651  -1.87491  -1.14945  -1.14645
 Alpha  occ. eigenvalues --   -1.14572  -1.11847  -1.07761  -1.07416  -1.06729
 Alpha  occ. eigenvalues --   -1.05846  -1.05711  -1.04900  -1.04460  -1.04391
 Alpha  occ. eigenvalues --   -1.04176  -1.03390  -1.03251  -1.02579  -1.01697
 Alpha  occ. eigenvalues --   -1.00859  -1.00541  -0.99717  -0.99628  -0.98540
 Alpha  occ. eigenvalues --   -0.98078  -0.96802  -0.96699  -0.96233  -0.94666
 Alpha  occ. eigenvalues --   -0.94212  -0.93526  -0.93443  -0.92763  -0.92178
 Alpha  occ. eigenvalues --   -0.91884  -0.91612  -0.90575  -0.90492  -0.90317
 Alpha  occ. eigenvalues --   -0.89604  -0.89009  -0.88443  -0.88097  -0.84333
 Alpha  occ. eigenvalues --   -0.84182  -0.81875  -0.81796  -0.80244  -0.79969
 Alpha  occ. eigenvalues --   -0.79373  -0.78194  -0.77342  -0.76563  -0.76258
 Alpha  occ. eigenvalues --   -0.76240  -0.74475  -0.74052  -0.74017  -0.73883
 Alpha  occ. eigenvalues --   -0.73364  -0.72285  -0.72240  -0.70818  -0.70450
 Alpha  occ. eigenvalues --   -0.70026  -0.69611  -0.69532  -0.68781  -0.67749
 Alpha  occ. eigenvalues --   -0.67194  -0.65524  -0.65155  -0.64707  -0.64505
 Alpha  occ. eigenvalues --   -0.64051  -0.63956  -0.62680  -0.62595  -0.62416
 Alpha  occ. eigenvalues --   -0.62326  -0.61998  -0.61734  -0.60935  -0.60700
 Alpha  occ. eigenvalues --   -0.60381  -0.59762  -0.59551  -0.59527  -0.58936
 Alpha  occ. eigenvalues --   -0.58465  -0.58190  -0.58126  -0.57778  -0.57602
 Alpha  occ. eigenvalues --   -0.57220  -0.56891  -0.56558  -0.55867  -0.55452
 Alpha  occ. eigenvalues --   -0.55279  -0.55034  -0.54906  -0.54622  -0.53753
 Alpha  occ. eigenvalues --   -0.53589  -0.53526  -0.53363  -0.53210  -0.52489
 Alpha  occ. eigenvalues --   -0.52167  -0.52141  -0.51945  -0.51630  -0.50727
 Alpha  occ. eigenvalues --   -0.50575  -0.50284  -0.50056  -0.49921  -0.49842
 Alpha  occ. eigenvalues --   -0.49684  -0.49210  -0.48967  -0.48708  -0.48701
 Alpha  occ. eigenvalues --   -0.48626  -0.48266  -0.47799  -0.47537  -0.47480
 Alpha  occ. eigenvalues --   -0.47134  -0.46934  -0.46508  -0.46178  -0.46123
 Alpha  occ. eigenvalues --   -0.45901  -0.45807  -0.45581  -0.45568  -0.45477
 Alpha  occ. eigenvalues --   -0.45117  -0.45065  -0.44895  -0.44715  -0.44431
 Alpha  occ. eigenvalues --   -0.44331  -0.44177  -0.44150  -0.43882  -0.43814
 Alpha  occ. eigenvalues --   -0.43575  -0.43451  -0.43420  -0.43173  -0.43005
 Alpha  occ. eigenvalues --   -0.42835  -0.42748  -0.42571  -0.42435  -0.42337
 Alpha  occ. eigenvalues --   -0.42271  -0.42243  -0.41792  -0.41698  -0.41392
 Alpha  occ. eigenvalues --   -0.41283  -0.40959  -0.40677  -0.40565  -0.40428
 Alpha  occ. eigenvalues --   -0.40356  -0.40278  -0.40105  -0.40086  -0.39935
 Alpha  occ. eigenvalues --   -0.39736  -0.39605  -0.39511  -0.39444  -0.39229
 Alpha  occ. eigenvalues --   -0.39206  -0.39170  -0.38909  -0.38698  -0.38593
 Alpha  occ. eigenvalues --   -0.38232  -0.38132  -0.38048  -0.37991  -0.37844
 Alpha  occ. eigenvalues --   -0.37756  -0.37686  -0.37647  -0.37169  -0.37060
 Alpha  occ. eigenvalues --   -0.36967  -0.36892  -0.36439  -0.36233  -0.36042
 Alpha  occ. eigenvalues --   -0.35644  -0.35311  -0.35215  -0.34620  -0.34480
 Alpha  occ. eigenvalues --   -0.34249  -0.33974  -0.33403  -0.33050  -0.32856
 Alpha  occ. eigenvalues --   -0.32616  -0.32370  -0.32325  -0.31754  -0.31722
 Alpha  occ. eigenvalues --   -0.31438  -0.31288  -0.31041  -0.31024  -0.30578
 Alpha  occ. eigenvalues --   -0.30407  -0.30265  -0.29828  -0.29703  -0.29638
 Alpha  occ. eigenvalues --   -0.29633  -0.29153  -0.28728  -0.28446  -0.28274
 Alpha  occ. eigenvalues --   -0.28112  -0.27916  -0.27360  -0.27091  -0.27083
 Alpha  occ. eigenvalues --   -0.26637  -0.26493  -0.26481  -0.26468  -0.25939
 Alpha  occ. eigenvalues --   -0.25800  -0.25481  -0.25391  -0.25302  -0.25168
 Alpha  occ. eigenvalues --   -0.24931  -0.24838  -0.24516  -0.24510  -0.24297
 Alpha  occ. eigenvalues --   -0.23747  -0.23663  -0.23231  -0.22661  -0.22597
 Alpha  occ. eigenvalues --   -0.22072  -0.21258  -0.21169  -0.20864  -0.20289
 Alpha  occ. eigenvalues --   -0.12974  -0.12450  -0.10552
 Alpha virt. eigenvalues --   -0.10035  -0.08059  -0.03921  -0.03378  -0.03110
 Alpha virt. eigenvalues --   -0.01946  -0.01858  -0.01764  -0.01298  -0.01093
 Alpha virt. eigenvalues --   -0.00808  -0.00043   0.00534   0.00907   0.01124

 Mulliken charges:
               1
     1  C    0.050674
     2  C    0.032052
     3  O   -0.322100
     4  H    0.012098
     5  H    0.044222
     6  H    0.023715
     7  N   -0.096262
     8  C    0.074598
     9  C    0.069341
    10  O   -0.281938
    11  C    0.168141
    12  C    0.024536
    13  O   -0.432769
    14  O   -0.394845
    15  H    0.133118
    16  H    0.023240
    17  H    0.017006
    18  H   -0.008965
    19  N   -0.124464
    20  C    0.074336
    21  C    0.071453
    22  O   -0.260749
    23  C    0.039281
    24  C    0.021228
    25  C   -0.011303
    26  C    0.064199
    27  N    0.109707
    28  H    0.143058
    29  H    0.033609
    30  H    0.025994
    31  H    0.001663
    32  H    0.017251
    33  H   -0.018312
    34  H    0.005758
    35  H    0.053166
    36  H    0.048176
    37  H    0.072280
    38  H    0.118634
    39  H    0.139530
    40  H    0.122204
    41  N   -0.148451
    42  C    0.077194
    43  C    0.084831
    44  O   -0.265829
    45  C    0.122522
    46  C    0.066636
    47  O   -0.440845
    48  O   -0.401912
    49  H    0.122558
    50  H    0.031701
    51  H   -0.004873
    52  H    0.040150
    53  N   -0.148246
    54  C    0.212758
    55  C    0.017689
    56  O   -0.295745
    57  H    0.138546
    58  H    0.037652
    59  H    0.031865
    60  N   -0.107970
    61  C    0.074868
    62  C    0.137963
    63  O   -0.383096
    64  C    0.132100
    65  C   -0.035992
    66  N   -0.036781
    67  O   -0.287615
    68  H    0.165133
    69  H    0.015634
    70  H    0.040892
    71  H    0.034764
    72  H    0.119749
    73  H    0.143481
    74  N   -0.124259
    75  C    0.218559
    76  C    0.020782
    77  O   -0.299923
    78  H    0.133558
    79  H    0.038520
    80  H    0.011872
    81  N   -0.105764
    82  C    0.174800
    83  C    0.096901
    84  O   -0.270746
    85  C    0.087953
    86  C   -0.087335
    87  C    0.040722
    88  C   -0.001734
    89  C   -0.009544
    90  C   -0.045027
    91  C    0.136184
    92  O   -0.185797
    93  H    0.125981
    94  H   -0.035264
    95  H    0.023675
    96  H   -0.034310
    97  H    0.026748
    98  H   -0.037437
    99  H   -0.013484
   100  H   -0.051318
   101  H    0.167877
   102  N   -0.108585
   103  C    0.152211
   104  C    0.077568
   105  O   -0.272716
   106  C   -0.086049
   107  C    0.009623
   108  C    0.078419
   109  C    0.035941
   110  H    0.126189
   111  H   -0.022795
   112  H    0.011237
   113  H   -0.016946
   114  H    0.003908
   115  H   -0.010897
   116  H    0.027095
   117  H    0.012887
   118  H   -0.017710
   119  H    0.027775
   120  H   -0.015058
   121  N   -0.163517
   122  C    0.167666
   123  C    0.037061
   124  O   -0.273934
   125  C    0.227210
   126  O   -0.296373
   127  H    0.121976
   128  H    0.034773
   129  H   -0.012294
   130  H    0.014983
   131  H    0.184316
   132  N   -0.134425
   133  C    0.040221
   134  C    0.041958
   135  O   -0.270332
   136  C    0.110182
   137  H    0.090530
   138  H    0.008561
   139  H    0.020696
   140  H   -0.015000
   141  H    0.034016
   142  N   -0.081341
   143  C    0.002748
   144  C    0.066558
   145  O   -0.289276
   146  C    0.075860
   147  H    0.131549
   148  H   -0.027809
   149  H    0.020939
   150  H    0.042974
   151  H    0.022135
   152  N   -0.098800
   153  C    0.061593
   154  C    0.050136
   155  O   -0.294387
   156  C    0.111654
   157  C   -0.012222
   158  C    0.078304
   159  O   -0.372183
   160  O   -0.356615
   161  H    0.122445
   162  H    0.006015
   163  H   -0.029781
   164  H    0.014581
   165  H   -0.006171
   166  H   -0.017222
   167  N   -0.148054
   168  C    0.138345
   169  H    0.018023
   170  H    0.008418
   171  H    0.035018
   172  H    0.103013
   173  Ca   1.383454
   174  O   -0.289311
   175  H    0.188226
   176  H    0.184734
 Sum of Mulliken charges =  -0.00000

 Dipole moment (field-independent basis, Debye):
    X=             59.6006    Y=              0.8589    Z=             13.1026  Tot=             61.0298
 Quadrupole moment (field-independent basis, Debye-Ang):
   XX=           -236.8146   YY=           -583.3555   ZZ=           -539.1205
   XY=           -307.2876   XZ=           -111.5050   YZ=            -21.5799

 ESP charges:
               1
     1  C   -0.438100
     2  C    0.839574
     3  O   -0.620907
     4  H    0.105390
     5  H    0.126307
     6  H    0.103403
     7  N   -0.778533
     8  C    0.315707
     9  C    0.568064
    10  O   -0.526932
    11  C   -0.224885
    12  C    0.850541
    13  O   -0.807291
    14  O   -0.818639
    15  H    0.377726
    16  H    0.038312
    17  H    0.079188
    18  H    0.058698
    19  N   -0.789467
    20  C    0.405211
    21  C    0.240493
    22  O   -0.519617
    23  C   -0.310345
    24  C    0.120569
    25  C   -0.201005
    26  C    0.233098
    27  N   -0.198299
    28  H    0.392253
    29  H    0.044017
    30  H    0.122643
    31  H    0.070924
    32  H    0.018038
    33  H   -0.008605
    34  H    0.044958
    35  H    0.110703
    36  H    0.031686
    37  H   -0.015556
    38  H    0.213164
    39  H    0.223957
    40  H    0.226544
    41  N    0.047756
    42  C   -0.391426
    43  C    0.577247
    44  O   -0.530518
    45  C   -0.172856
    46  C    0.737144
    47  O   -0.789599
    48  O   -0.733275
    49  H    0.189548
    50  H    0.199157
    51  H    0.062018
    52  H    0.114510
    53  N   -0.212750
    54  C   -0.376366
    55  C    0.766745
    56  O   -0.603610
    57  H    0.274856
    58  H    0.144698
    59  H    0.155717
    60  N   -0.656267
    61  C    0.419808
    62  C    0.410865
    63  O   -0.534090
    64  C   -0.380468
    65  C    0.761988
    66  N   -0.856365
    67  O   -0.606877
    68  H    0.340640
    69  H   -0.009031
    70  H    0.123152
    71  H    0.132628
    72  H    0.372464
    73  H    0.401275
    74  N   -0.337884
    75  C   -0.019568
    76  C    0.503474
    77  O   -0.567513
    78  H    0.246549
    79  H    0.084539
    80  H    0.061967
    81  N   -0.298040
    82  C    0.152807
    83  C    0.461155
    84  O   -0.484073
    85  C   -0.294048
    86  C    0.028586
    87  C   -0.138797
    88  C   -0.081827
    89  C   -0.264093
    90  C   -0.393990
    91  C    0.419312
    92  O   -0.544727
    93  H    0.215501
    94  H    0.032409
    95  H    0.139766
    96  H    0.065687
    97  H    0.162771
    98  H    0.130331
    99  H    0.183088
   100  H    0.148152
   101  H    0.393639
   102  N   -0.431066
   103  C   -0.077817
   104  C    0.581693
   105  O   -0.471237
   106  C    0.247914
   107  C    0.059847
   108  C   -0.357975
   109  C   -0.365118
   110  H    0.302412
   111  H    0.022908
   112  H    0.002758
   113  H    0.008885
   114  H    0.025426
   115  H    0.068607
   116  H    0.084241
   117  H    0.131824
   118  H    0.085521
   119  H    0.098288
   120  H    0.093464
   121  N   -0.490995
   122  C   -0.202550
   123  C    0.520330
   124  O   -0.494807
   125  C    0.281104
   126  O   -0.592345
   127  H    0.302958
   128  H    0.145758
   129  H    0.013148
   130  H   -0.001577
   131  H    0.403752
   132  N   -0.335512
   133  C    0.252045
   134  C    0.452682
   135  O   -0.523774
   136  C   -0.347014
   137  H    0.210040
   138  H    0.024213
   139  H    0.095891
   140  H    0.071201
   141  H    0.124358
   142  N   -0.643162
   143  C    0.814454
   144  C    0.014090
   145  O   -0.485039
   146  C   -0.409260
   147  H    0.332830
   148  H   -0.134505
   149  H    0.118521
   150  H    0.122162
   151  H    0.086343
   152  N    0.008277
   153  C   -0.753355
   154  C    0.647354
   155  O   -0.549377
   156  C    0.278936
   157  C   -0.217441
   158  C    0.693684
   159  O   -0.669490
   160  O   -0.659200
   161  H    0.248664
   162  H    0.255140
   163  H   -0.031166
   164  H    0.040499
   165  H    0.016923
   166  H    0.042240
   167  N   -0.292083
   168  C   -0.273997
   169  H    0.103010
   170  H    0.114422
   171  H    0.128555
   172  H    0.273523
   173  Ca   1.665044
   174  O   -0.856276
   175  H    0.432799
   176  H    0.430519
 Sum of ESP charges =  -0.00000

 Normal termination of Gaussian 16 at Wed Sep 18 11:31:30 2019.
