 Gaussian 16, Revision A.03,
 Gaussian 16:  ES64L-G16RevA.03 25-Dec-2016

 ----------------------------------------------------------------------
 #b3lyp/svp scf=(tight,noincore) Test #IOP(5/87=12) Density=Current Pop
 =(MK,readradii) iop(6/33=2) iop(6/42=6)
 ----------------------------------------------------------------------

 -----------------
 Ng-295_loop3_30.0
 -----------------
 Symbolic Z-matrix:
 Charge =  0 Multiplicity = 1

                         Standard orientation:
 ---------------------------------------------------------------------
 Center     Atomic      Atomic             Coordinates (Angstroms)
 Number     Number       Type             X           Y           Z
 ---------------------------------------------------------------------
      1          6           0       -7.820599    6.288719    3.349392
      2          6           0       -6.850091    5.651528    2.358080
      3          8           0       -6.124866    6.335455    1.644223
      4          1           0       -8.058921    5.572258    4.134937
      5          1           0       -7.360565    7.172717    3.791272
      6          1           0       -8.735701    6.575196    2.830289
      7          7           0       -6.987321    4.328016    2.259168
      8          6           0       -6.073684    3.577952    1.408303
      9          6           0       -6.525983    3.645635   -0.047631
     10          8           0       -7.679671    3.284033   -0.277080
     11          6           0       -5.926006    2.120433    1.841810
     12          6           0       -4.567864    1.580379    1.393824
     13          8           0       -3.835305    1.044025    2.257642
     14          8           0       -4.176439    1.637926    0.210153
     15          1           0       -7.812115    3.878656    2.607150
     16          1           0       -5.111704    4.078729    1.493260
     17          1           0       -6.762402    1.463995    1.580789
     18          1           0       -5.946974    2.103795    2.923560
     19          7           0       -5.654182    3.950750   -1.008708
     20          6           0       -5.864055    3.920717   -2.447857
     21          6           0       -6.319102    2.586470   -3.011610
     22          8           0       -6.837264    2.636329   -4.120494
     23          6           0       -4.568648    4.351350   -3.136532
     24          6           0       -3.520260    3.238524   -3.106519
     25          6           0       -2.235667    3.420521   -3.906831
     26          6           0       -1.186509    2.323247   -3.773583
     27          7           0       -1.580500    1.110439   -4.506228
     28          1           0       -4.713063    4.142702   -0.710463
     29          1           0       -6.601151    4.684918   -2.688245
     30          1           0       -4.161958    5.246236   -2.680589
     31          1           0       -4.748431    4.638194   -4.166434
     32          1           0       -3.901296    2.297712   -3.509239
     33          1           0       -3.196583    2.992634   -2.099359
     34          1           0       -1.784841    4.316496   -3.486253
     35          1           0       -2.441506    3.617112   -4.960720
     36          1           0       -1.085758    2.057733   -2.717244
     37          1           0       -0.215932    2.718362   -4.088328
     38          1           0       -2.392192    0.652234   -4.130857
     39          1           0       -1.721303    1.392611   -5.465005
     40          1           0       -0.843246    0.426646   -4.568552
     41          7           0       -6.154657    1.467357   -2.297926
     42          6           0       -6.576750    0.179087   -2.807826
     43          6           0       -7.340292   -0.601004   -1.748883
     44          8           0       -7.906922   -1.650822   -2.035962
     45          6           0       -5.411477   -0.666313   -3.302333
     46          6           0       -4.246280   -0.679709   -2.312264
     47          8           0       -3.159081   -0.151181   -2.647009
     48          8           0       -4.492127   -1.008823   -1.136235
     49          1           0       -5.378786    1.543776   -1.643950
     50          1           0       -7.195989    0.318190   -3.700795
     51          1           0       -5.021491   -0.240473   -4.227628
     52          1           0       -5.659286   -1.687073   -3.586483
     53          7           0       -7.671692    0.030146   -0.616133
     54          6           0       -8.438468   -0.594096    0.443572
     55          6           0       -7.691079   -1.723478    1.137984
     56          8           0       -8.424849   -2.447837    1.817312
     57          1           0       -7.325026    0.953156   -0.392583
     58          1           0       -9.283550   -1.120238    0.006066
     59          1           0       -8.778026    0.189913    1.118428
     60          7           0       -6.416971   -1.994659    0.853540
     61          6           0       -5.705696   -3.154588    1.343592
     62          6           0       -4.451060   -2.658500    2.053793
     63          8           0       -3.652033   -1.861244    1.571259
     64          6           0       -5.586101   -4.238301    0.271882
     65          6           0       -4.730209   -5.478639    0.498837
     66          7           0       -4.873470   -6.506040   -0.344979
     67          8           0       -3.851502   -5.535828    1.356218
     68          1           0       -5.909668   -1.342217    0.273916
     69          1           0       -6.289215   -3.612042    2.139482
     70          1           0       -5.050179   -3.676185   -0.478394
     71          1           0       -6.562789   -4.495348   -0.118001
     72          1           0       -5.669440   -6.520157   -0.965570
     73          1           0       -4.524892   -7.389207    0.006317
     74          7           0       -4.132228   -3.293262    3.178659
     75          6           0       -3.043285   -2.887338    4.041229
     76          6           0       -1.641575   -3.287316    3.606688
     77          8           0       -0.706469   -3.164610    4.392959
     78          1           0       -4.762075   -3.974863    3.559203
     79          1           0       -3.222852   -3.355239    5.012942
     80          1           0       -3.150282   -1.804122    4.088079
     81          7           0       -1.440141   -3.863128    2.415233
     82          6           0       -0.117056   -4.042811    1.866725
     83          6           0        0.402720   -2.695777    1.403227
     84          8           0       -0.245198   -1.901896    0.720836
     85          6           0       -0.117637   -5.019441    0.693570
     86          6           0        1.201916   -5.125851   -0.026747
     87          6           0        1.192070   -4.415009   -1.227375
     88          6           0        2.228161   -5.925905    0.505544
     89          6           0        2.359039   -4.494860   -1.990269
     90          6           0        3.396728   -5.885066   -0.262951
     91          6           0        3.464768   -5.216046   -1.503387
     92          8           0        4.598262   -5.238869   -2.261060
     93          1           0       -2.274351   -4.051046    1.877292
     94          1           0        0.619320   -4.449969    2.569628
     95          1           0       -0.929538   -4.732684    0.017118
     96          1           0       -0.356813   -6.024403    1.020137
     97          1           0        0.434225   -3.780461   -1.678618
     98          1           0        2.168697   -6.533365    1.396643
     99          1           0        2.440269   -4.032216   -2.960455
    100          1           0        4.253486   -6.527778   -0.084379
    101          1           0        5.231395   -5.884280   -1.954486
    102          7           0        1.691303   -2.496636    1.705544
    103          6           0        2.610068   -1.482631    1.232084
    104          6           0        3.018210   -1.459272   -0.237159
    105          8           0        2.220251   -1.541908   -1.156415
    106          6           0        2.193091   -0.132569    1.816433
    107          6           0        2.915315    1.055771    1.204845
    108          6           0        2.463513   -0.170882    3.317734
    109          6           0        2.364332    2.344660    1.789723
    110          1           0        2.109400   -3.203080    2.296080
    111          1           0        3.495125   -1.785229    1.784450
    112          1           0        1.121460   -0.061738    1.680089
    113          1           0        2.848706    1.053307    0.115002
    114          1           0        3.972147    0.882273    1.410042
    115          1           0        1.675128   -0.742798    3.820488
    116          1           0        3.409170   -0.687919    3.498020
    117          1           0        2.532702    0.791856    3.818283
    118          1           0        2.780502    3.155712    1.191729
    119          1           0        1.308906    2.301630    2.043344
    120          1           0        2.954261    2.438375    2.709832
    121          7           0        4.332681   -1.303287   -0.446767
    122          6           0        4.883046   -1.219244   -1.781883
    123          6           0        6.375194   -1.525228   -1.897072
    124          8           0        6.765926   -2.042012   -2.940941
    125          6           0        4.752655    0.237998   -2.216446
    126          8           0        5.323749    1.065038   -1.229403
    127          1           0        4.883436   -1.060973    0.361164
    128          1           0        4.319123   -1.903547   -2.404956
    129          1           0        3.698563    0.489892   -2.302705
    130          1           0        5.218106    0.458973   -3.178280
    131          1           0        4.973549    1.931955   -1.413566
    132          7           0        7.109009   -1.516126   -0.777370
    133          6           0        8.531613   -1.721500   -0.636939
    134          6           0        9.356051   -1.136056   -1.784222
    135          8           0       10.094511   -1.819884   -2.489740
    136          6           0        8.717802   -3.226781   -0.507465
    137          1           0        6.621083   -1.219788    0.059237
    138          1           0        8.877707   -1.203430    0.252061
    139          1           0        8.325455   -3.700841   -1.407593
    140          1           0        9.711112   -3.585997   -0.251537
    141          1           0        8.130920   -3.650448    0.319201
    142          7           0        9.218505    0.121338   -2.188625
    143          6           0        8.618795    1.264390   -1.510702
    144          6           0        9.561091    2.016650   -0.582971
    145          8           0       10.774929    2.063613   -0.706629
    146          6           0        8.003767    2.197339   -2.543632
    147          1           0        9.655212    0.373360   -3.060962
    148          1           0        7.897315    0.850079   -0.806492
    149          1           0        8.814394    2.793097   -2.972651
    150          1           0        7.596023    1.628358   -3.386725
    151          1           0        7.355155    2.935578   -2.086241
    152          7           0        9.111404    2.659685    0.504314
    153          6           0        7.794394    2.752738    1.080356
    154          6           0        7.817000    2.457817    2.569857
    155          8           0        7.087489    1.601605    3.069472
    156          6           0        7.169875    4.125094    0.818225
    157          6           0        5.812892    4.392848    1.451553
    158          6           0        5.148570    5.727523    1.115965
    159          8           0        5.238928    6.726087    1.858935
    160          8           0        4.578825    5.792334    0.011026
    161          1           0        9.766512    3.212180    1.044853
    162          1           0        7.121318    1.987438    0.680499
    163          1           0        7.080756    4.383135   -0.235138
    164          1           0        7.838168    4.889571    1.234709
    165          1           0        5.914348    4.408874    2.540061
    166          1           0        5.121283    3.616515    1.130021
    167          7           0        8.617943    3.155765    3.376056
    168          6           0        8.856304    2.910626    4.785733
    169          1           0        8.528724    1.902199    5.039187
    170          1           0        9.920823    3.010020    4.997615
    171          1           0        8.297973    3.633897    5.380221
    172          1           0        9.276708    3.829615    2.997432
    173         20           0       -2.264363   -0.374326   -0.195808
    174          8           0       -1.687269    2.185610   -0.324218
    175          1           0       -2.405730    2.643420    0.105227
    176          1           0       -1.005818    2.857932   -0.425744
 ---------------------------------------------------------------------

 SCF Done:  E(RB3LYP) =  -5333.46541094     A.U. after   26 cycles

 The electronic state is 1-A.
 Alpha  occ. eigenvalues -- -145.46368 -19.22339 -19.18210 -19.17465 -19.16706
 Alpha  occ. eigenvalues --  -19.16102 -19.15413 -19.15208 -19.14203 -19.13234
 Alpha  occ. eigenvalues --  -19.11797 -19.11564 -19.11095 -19.10700 -19.10644
 Alpha  occ. eigenvalues --  -19.10437 -19.10120 -19.09935 -19.07988 -19.07826
 Alpha  occ. eigenvalues --  -19.07631 -19.07251 -18.94628 -18.94441 -15.52151
 Alpha  occ. eigenvalues --  -14.54486 -14.40345 -14.39628 -14.39457 -14.39006
 Alpha  occ. eigenvalues --  -14.37733 -14.37597 -14.37581 -14.37502 -14.37029
 Alpha  occ. eigenvalues --  -14.36346 -14.36149 -14.34527 -14.33933 -14.33863
 Alpha  occ. eigenvalues --  -12.65758 -12.65734 -12.65703 -10.34482 -10.33846
 Alpha  occ. eigenvalues --  -10.33610 -10.33361 -10.33171 -10.31819 -10.30631
 Alpha  occ. eigenvalues --  -10.30444 -10.30034 -10.29692 -10.29370 -10.29241
 Alpha  occ. eigenvalues --  -10.28814 -10.28502 -10.27420 -10.27377 -10.27217
 Alpha  occ. eigenvalues --  -10.27172 -10.26987 -10.26739 -10.26690 -10.26524
 Alpha  occ. eigenvalues --  -10.26199 -10.26140 -10.26085 -10.25752 -10.25664
 Alpha  occ. eigenvalues --  -10.24868 -10.24826 -10.24182 -10.23816 -10.23775
 Alpha  occ. eigenvalues --  -10.23727 -10.23075 -10.22883 -10.22826 -10.22390
 Alpha  occ. eigenvalues --  -10.22235 -10.21939 -10.21929 -10.21364 -10.21163
 Alpha  occ. eigenvalues --  -10.21016 -10.20994 -10.20580 -10.19339 -10.18999
 Alpha  occ. eigenvalues --  -10.18871 -10.18690 -10.18142 -10.17426 -10.15105
 Alpha  occ. eigenvalues --  -10.14683 -10.10956  -1.88834  -1.16508  -1.16164
 Alpha  occ. eigenvalues --   -1.16054  -1.11113  -1.10489  -1.08664  -1.08275
 Alpha  occ. eigenvalues --   -1.08229  -1.07109  -1.06982  -1.06687  -1.05437
 Alpha  occ. eigenvalues --   -1.04900  -1.04827  -1.04536  -1.04157  -1.04000
 Alpha  occ. eigenvalues --   -1.03794  -1.02846  -1.02757  -1.01888  -1.01212
 Alpha  occ. eigenvalues --   -1.01085  -1.00807  -0.97408  -0.96504  -0.95988
 Alpha  occ. eigenvalues --   -0.95459  -0.94554  -0.94498  -0.94377  -0.94166
 Alpha  occ. eigenvalues --   -0.93952  -0.93358  -0.93194  -0.92192  -0.90998
 Alpha  occ. eigenvalues --   -0.90497  -0.89689  -0.89515  -0.88188  -0.88131
 Alpha  occ. eigenvalues --   -0.84742  -0.83089  -0.82405  -0.81741  -0.81123
 Alpha  occ. eigenvalues --   -0.80242  -0.79811  -0.79284  -0.77731  -0.77688
 Alpha  occ. eigenvalues --   -0.77403  -0.76805  -0.76704  -0.76333  -0.75418
 Alpha  occ. eigenvalues --   -0.74995  -0.74288  -0.73251  -0.71859  -0.71567
 Alpha  occ. eigenvalues --   -0.70857  -0.70327  -0.70295  -0.69319  -0.68730
 Alpha  occ. eigenvalues --   -0.68321  -0.67457  -0.66864  -0.66625  -0.66257
 Alpha  occ. eigenvalues --   -0.65777  -0.65490  -0.65205  -0.64846  -0.64206
 Alpha  occ. eigenvalues --   -0.63441  -0.62821  -0.62591  -0.62383  -0.62169
 Alpha  occ. eigenvalues --   -0.62002  -0.61422  -0.61335  -0.60914  -0.60651
 Alpha  occ. eigenvalues --   -0.60536  -0.60472  -0.59970  -0.59911  -0.59325
 Alpha  occ. eigenvalues --   -0.59201  -0.57991  -0.57922  -0.57708  -0.57516
 Alpha  occ. eigenvalues --   -0.57228  -0.56967  -0.56903  -0.56611  -0.56132
 Alpha  occ. eigenvalues --   -0.55666  -0.55263  -0.54773  -0.54188  -0.53564
 Alpha  occ. eigenvalues --   -0.53327  -0.52959  -0.52612  -0.52524  -0.52466
 Alpha  occ. eigenvalues --   -0.52350  -0.52190  -0.51935  -0.51835  -0.51479
 Alpha  occ. eigenvalues --   -0.51411  -0.51179  -0.51071  -0.50750  -0.50463
 Alpha  occ. eigenvalues --   -0.50182  -0.49961  -0.49870  -0.49782  -0.49366
 Alpha  occ. eigenvalues --   -0.49212  -0.49136  -0.48986  -0.48847  -0.48446
 Alpha  occ. eigenvalues --   -0.48253  -0.47791  -0.47378  -0.47304  -0.47211
 Alpha  occ. eigenvalues --   -0.46886  -0.46790  -0.46616  -0.46570  -0.46371
 Alpha  occ. eigenvalues --   -0.46159  -0.46024  -0.45956  -0.45778  -0.45616
 Alpha  occ. eigenvalues --   -0.45387  -0.45267  -0.45096  -0.45011  -0.44665
 Alpha  occ. eigenvalues --   -0.44642  -0.44502  -0.44368  -0.44033  -0.43914
 Alpha  occ. eigenvalues --   -0.43877  -0.43633  -0.43533  -0.43478  -0.43416
 Alpha  occ. eigenvalues --   -0.43210  -0.42843  -0.42604  -0.42491  -0.42160
 Alpha  occ. eigenvalues --   -0.42090  -0.42046  -0.41810  -0.41588  -0.41455
 Alpha  occ. eigenvalues --   -0.41274  -0.41233  -0.41219  -0.41085  -0.40801
 Alpha  occ. eigenvalues --   -0.40666  -0.40516  -0.40378  -0.40009  -0.39959
 Alpha  occ. eigenvalues --   -0.39716  -0.39639  -0.39444  -0.39350  -0.39302
 Alpha  occ. eigenvalues --   -0.39173  -0.39081  -0.38958  -0.38810  -0.38619
 Alpha  occ. eigenvalues --   -0.38509  -0.38493  -0.38374  -0.38014  -0.38009
 Alpha  occ. eigenvalues --   -0.37868  -0.37695  -0.37537  -0.37379  -0.37175
 Alpha  occ. eigenvalues --   -0.36950  -0.36745  -0.36712  -0.36556  -0.36464
 Alpha  occ. eigenvalues --   -0.36086  -0.36021  -0.35998  -0.35691  -0.35047
 Alpha  occ. eigenvalues --   -0.34657  -0.34337  -0.34189  -0.33885  -0.32888
 Alpha  occ. eigenvalues --   -0.32506  -0.32404  -0.32296  -0.32185  -0.31970
 Alpha  occ. eigenvalues --   -0.31757  -0.31240  -0.30581  -0.30561  -0.30492
 Alpha  occ. eigenvalues --   -0.30368  -0.30182  -0.29697  -0.29254  -0.28683
 Alpha  occ. eigenvalues --   -0.28548  -0.28492  -0.28350  -0.28027  -0.27813
 Alpha  occ. eigenvalues --   -0.27547  -0.27356  -0.27094  -0.26954  -0.26621
 Alpha  occ. eigenvalues --   -0.26323  -0.26313  -0.26035  -0.25875  -0.25830
 Alpha  occ. eigenvalues --   -0.25288  -0.25246  -0.24951  -0.24832  -0.24710
 Alpha  occ. eigenvalues --   -0.24450  -0.23797  -0.23609  -0.22675  -0.22160
 Alpha  occ. eigenvalues --   -0.12637  -0.12246  -0.09752
 Alpha virt. eigenvalues --   -0.08566  -0.06072  -0.04841  -0.04206  -0.03833
 Alpha virt. eigenvalues --   -0.03071  -0.02715  -0.02443  -0.02357  -0.02331
 Alpha virt. eigenvalues --   -0.01483  -0.01203  -0.00802  -0.00471  -0.00267

 Mulliken charges:
               1
     1  C    0.041316
     2  C    0.034728
     3  O   -0.282295
     4  H    0.004178
     5  H    0.039119
     6  H    0.047645
     7  N   -0.118871
     8  C    0.086977
     9  C    0.086566
    10  O   -0.308475
    11  C    0.130992
    12  C    0.082629
    13  O   -0.354248
    14  O   -0.464215
    15  H    0.121256
    16  H   -0.010317
    17  H   -0.011623
    18  H   -0.000235
    19  N   -0.089937
    20  C    0.145965
    21  C    0.048920
    22  O   -0.268865
    23  C    0.075726
    24  C   -0.051780
    25  C   -0.030396
    26  C    0.065650
    27  N    0.096026
    28  H    0.111904
    29  H    0.036735
    30  H    0.017354
    31  H    0.018018
    32  H   -0.006568
    33  H   -0.023787
    34  H    0.032656
    35  H    0.018926
    36  H    0.022795
    37  H    0.071054
    38  H    0.156865
    39  H    0.161184
    40  H    0.161979
    41  N   -0.189832
    42  C    0.111559
    43  C    0.070462
    44  O   -0.282453
    45  C    0.125996
    46  C    0.119948
    47  O   -0.475893
    48  O   -0.406066
    49  H    0.178798
    50  H    0.052521
    51  H   -0.030999
    52  H    0.036439
    53  N   -0.181307
    54  C    0.217207
    55  C    0.021036
    56  O   -0.302790
    57  H    0.146529
    58  H    0.046269
    59  H    0.046105
    60  N   -0.143182
    61  C    0.114595
    62  C    0.115584
    63  O   -0.351381
    64  C    0.105471
    65  C    0.000112
    66  N   -0.035751
    67  O   -0.287281
    68  H    0.167137
    69  H   -0.001661
    70  H    0.025965
    71  H    0.042415
    72  H    0.123754
    73  H    0.137857
    74  N   -0.135705
    75  C    0.209014
    76  C    0.027555
    77  O   -0.288708
    78  H    0.129409
    79  H    0.039798
    80  H    0.070994
    81  N   -0.112005
    82  C    0.115878
    83  C    0.161776
    84  O   -0.398046
    85  C    0.142564
    86  C   -0.071665
    87  C    0.050778
    88  C    0.008207
    89  C   -0.021093
    90  C   -0.034734
    91  C    0.131571
    92  O   -0.184899
    93  H    0.143809
    94  H   -0.001171
    95  H   -0.017388
    96  H    0.016623
    97  H   -0.034346
    98  H   -0.013364
    99  H   -0.027698
   100  H   -0.035846
   101  H    0.176411
   102  N   -0.109564
   103  C    0.147918
   104  C    0.110997
   105  O   -0.286863
   106  C   -0.128992
   107  C   -0.004171
   108  C    0.050269
   109  C    0.044671
   110  H    0.139690
   111  H   -0.030287
   112  H   -0.014894
   113  H   -0.014399
   114  H    0.007977
   115  H    0.021159
   116  H   -0.007558
   117  H    0.028765
   118  H    0.048784
   119  H    0.002697
   120  H    0.035344
   121  N   -0.147280
   122  C    0.099380
   123  C    0.088948
   124  O   -0.256648
   125  C    0.222506
   126  O   -0.308439
   127  H    0.135417
   128  H    0.036659
   129  H   -0.017362
   130  H    0.014158
   131  H    0.191142
   132  N   -0.138009
   133  C    0.045800
   134  C    0.061885
   135  O   -0.251633
   136  C    0.093929
   137  H    0.113472
   138  H    0.026804
   139  H    0.033414
   140  H    0.020731
   141  H   -0.029955
   142  N   -0.089211
   143  C    0.026067
   144  C    0.043902
   145  O   -0.263334
   146  C    0.060754
   147  H    0.124859
   148  H    0.004113
   149  H    0.012550
   150  H    0.022673
   151  H    0.029691
   152  N   -0.087790
   153  C    0.090493
   154  C    0.060964
   155  O   -0.291961
   156  C    0.027551
   157  C    0.079285
   158  C    0.007951
   159  O   -0.370877
   160  O   -0.421034
   161  H    0.105192
   162  H   -0.001351
   163  H   -0.008025
   164  H   -0.025077
   165  H   -0.024093
   166  H   -0.064309
   167  N   -0.159655
   168  C    0.122354
   169  H    0.034953
   170  H    0.015035
   171  H    0.037700
   172  H    0.113026
   173  Ca   1.342301
   174  O   -0.288787
   175  H    0.205701
   176  H    0.191493
 Sum of Mulliken charges =  -0.00000

 Dipole moment (field-independent basis, Debye):
    X=            -15.7131    Y=            -21.1450    Z=             -8.9346  Tot=             27.8180
 Quadrupole moment (field-independent basis, Debye-Ang):
   XX=           -764.4813   YY=           -635.6111   ZZ=           -515.0796
   XY=            -54.3735   XZ=             27.1701   YZ=            -45.6457

 ESP charges:
               1
     1  C   -0.431504
     2  C    0.772771
     3  O   -0.588456
     4  H    0.090513
     5  H    0.124264
     6  H    0.130323
     7  N   -0.731668
     8  C    0.273188
     9  C    0.618932
    10  O   -0.563936
    11  C   -0.139107
    12  C    0.622162
    13  O   -0.660527
    14  O   -0.691033
    15  H    0.363905
    16  H    0.020250
    17  H    0.050259
    18  H    0.057290
    19  N   -0.502849
    20  C    0.115105
    21  C    0.412956
    22  O   -0.532530
    23  C   -0.271150
    24  C    0.126804
    25  C   -0.215635
    26  C    0.023864
    27  N   -0.335249
    28  H    0.237561
    29  H    0.114826
    30  H    0.111759
    31  H    0.092175
    32  H    0.053669
    33  H    0.035497
    34  H    0.080282
    35  H    0.074868
    36  H    0.082504
    37  H    0.089332
    38  H    0.274463
    39  H    0.315350
    40  H    0.300848
    41  N   -0.209770
    42  C   -0.073766
    43  C    0.385717
    44  O   -0.513097
    45  C   -0.194819
    46  C    0.643147
    47  O   -0.715156
    48  O   -0.638462
    49  H    0.204856
    50  H    0.172361
    51  H    0.046916
    52  H    0.095973
    53  N   -0.025109
    54  C   -0.436988
    55  C    0.601920
    56  O   -0.545015
    57  H    0.083974
    58  H    0.198473
    59  H    0.180281
    60  N   -0.416938
    61  C    0.181262
    62  C    0.442909
    63  O   -0.563199
    64  C   -0.181712
    65  C    0.615390
    66  N   -0.751672
    67  O   -0.582007
    68  H    0.267935
    69  H   -0.014615
    70  H    0.064312
    71  H    0.112551
    72  H    0.342662
    73  H    0.376698
    74  N   -0.193417
    75  C   -0.496146
    76  C    0.780757
    77  O   -0.592771
    78  H    0.278168
    79  H    0.194711
    80  H    0.211605
    81  N   -0.531244
    82  C    0.092888
    83  C    0.485121
    84  O   -0.615004
    85  C   -0.148519
    86  C    0.038466
    87  C   -0.202829
    88  C   -0.125927
    89  C   -0.190379
    90  C   -0.308461
    91  C    0.352032
    92  O   -0.554780
    93  H    0.320129
    94  H    0.061368
    95  H    0.074790
    96  H    0.085735
    97  H    0.154534
    98  H    0.151270
    99  H    0.149530
   100  H    0.133469
   101  H    0.426368
   102  N   -0.146349
   103  C   -0.523023
   104  C    0.823480
   105  O   -0.545934
   106  C    0.168164
   107  C   -0.005415
   108  C   -0.170361
   109  C   -0.313606
   110  H    0.233063
   111  H    0.185331
   112  H    0.043729
   113  H    0.016137
   114  H    0.045320
   115  H    0.037601
   116  H    0.043933
   117  H    0.069056
   118  H    0.085221
   119  H    0.066605
   120  H    0.117533
   121  N   -0.531150
   122  C   -0.252135
   123  C    0.763260
   124  O   -0.536776
   125  C    0.089602
   126  O   -0.486809
   127  H    0.273320
   128  H    0.179269
   129  H    0.033077
   130  H    0.031223
   131  H    0.390547
   132  N   -0.530033
   133  C    0.293894
   134  C    0.502709
   135  O   -0.519817
   136  C   -0.433532
   137  H    0.289252
   138  H    0.042156
   139  H    0.142279
   140  H    0.118800
   141  H    0.086862
   142  N   -0.593700
   143  C    0.088276
   144  C    0.683645
   145  O   -0.582678
   146  C   -0.375150
   147  H    0.369106
   148  H    0.157851
   149  H    0.110113
   150  H    0.123889
   151  H    0.114443
   152  N   -0.554519
   153  C   -0.389646
   154  C    0.716467
   155  O   -0.564605
   156  C    0.348851
   157  C   -0.461200
   158  C    0.773829
   159  O   -0.697775
   160  O   -0.735443
   161  H    0.305717
   162  H    0.059539
   163  H   -0.004674
   164  H   -0.040893
   165  H    0.067854
   166  H    0.086926
   167  N   -0.381754
   168  C   -0.146991
   169  H    0.096297
   170  H    0.076302
   171  H    0.092955
   172  H    0.303994
   173  Ca   1.572928
   174  O   -0.822869
   175  H    0.411520
   176  H    0.426364
 Sum of ESP charges =   0.00000

 Normal termination of Gaussian 16 at Wed Sep 18 11:18:15 2019.
