 Gaussian 16, Revision A.03,
 Gaussian 16:  ES64L-G16RevA.03 25-Dec-2016

 ----------------------------------------------------------------------
 #b3lyp/svp scf=(tight,noincore) Test #IOP(5/87=12) Density=Current Pop
 =(MK,readradii) iop(6/33=2) iop(6/42=6)
 ----------------------------------------------------------------------

 -----------------
 Ng-293_loop3_73.0
 -----------------
 Symbolic Z-matrix:
 Charge =  0 Multiplicity = 1

                         Standard orientation:
 ---------------------------------------------------------------------
 Center     Atomic      Atomic             Coordinates (Angstroms)
 Number     Number       Type             X           Y           Z
 ---------------------------------------------------------------------
      1          6           0       -8.913512    2.584059    4.953993
      2          6           0       -9.727716    1.649948    4.068212
      3          8           0      -10.793199    2.139288    3.704491
      4          1           0       -9.166849    3.618420    4.720189
      5          1           0       -9.140619    2.382951    6.000673
      6          1           0       -7.850696    2.421818    4.774616
      7          7           0       -9.244720    0.512723    3.574113
      8          6           0       -9.862608   -0.422505    2.660788
      9          6           0       -9.259700   -0.357206    1.266213
     10          8           0       -8.273895    0.351692    1.096944
     11          6           0       -9.782263   -1.836807    3.232710
     12          6           0       -8.397460   -2.382124    3.547430
     13          8           0       -8.224873   -3.368364    4.294721
     14          8           0       -7.396037   -1.828746    3.031073
     15          1           0       -8.269641    0.308416    3.772053
     16          1           0      -10.925165   -0.174680    2.549183
     17          1           0      -10.255705   -2.526224    2.532955
     18          1           0      -10.394128   -1.911077    4.128145
     19          7           0       -9.955036   -1.073092    0.387400
     20          6           0       -9.804288   -1.256974   -1.046672
     21          6           0       -8.555216   -1.930463   -1.592504
     22          8           0       -8.663068   -2.691705   -2.548160
     23          6           0      -10.215320    0.022316   -1.766303
     24          6           0      -10.114448   -0.113924   -3.281876
     25          6           0      -10.760770    1.089951   -3.969083
     26          6           0      -10.788102    0.971522   -5.491491
     27          7           0      -10.959545    2.258998   -6.177502
     28          1           0      -10.734599   -1.555369    0.819361
     29          1           0      -10.585650   -1.967704   -1.322599
     30          1           0       -9.592142    0.842416   -1.427797
     31          1           0      -11.216864    0.316792   -1.437679
     32          1           0      -10.669226   -1.010159   -3.550921
     33          1           0       -9.055105   -0.027405   -3.526226
     34          1           0      -10.189659    1.995755   -3.747383
     35          1           0      -11.807007    1.043332   -3.691026
     36          1           0      -11.597843    0.297807   -5.782399
     37          1           0       -9.852701    0.504084   -5.761726
     38          1           0      -10.181342    2.890900   -6.077007
     39          1           0      -11.043002    2.063064   -7.171003
     40          1           0      -11.875017    2.603949   -5.927261
     41          7           0       -7.359461   -1.729699   -1.025348
     42          6           0       -6.066884   -2.073542   -1.586700
     43          6           0       -4.966450   -2.368667   -0.582387
     44          8           0       -4.903485   -1.764324    0.484480
     45          6           0       -5.765411   -1.014999   -2.639507
     46          6           0       -4.404398   -1.377733   -3.216974
     47          8           0       -4.335438   -2.206981   -4.154947
     48          8           0       -3.391795   -0.999954   -2.586405
     49          1           0       -7.266249   -1.062974   -0.275489
     50          1           0       -6.106255   -3.021691   -2.119301
     51          1           0       -5.739872   -0.026683   -2.181709
     52          1           0       -6.547691   -1.034069   -3.407475
     53          7           0       -4.239864   -3.450598   -0.907350
     54          6           0       -3.248028   -4.038461   -0.033464
     55          6           0       -1.972111   -3.216543    0.034250
     56          8           0       -1.909499   -2.002710   -0.142355
     57          1           0       -4.346815   -3.883914   -1.815424
     58          1           0       -3.000320   -5.027455   -0.409805
     59          1           0       -3.673905   -4.175333    0.955725
     60          7           0       -0.910190   -3.842105    0.548738
     61          6           0        0.222296   -3.093475    1.067513
     62          6           0        1.474935   -3.081572    0.192554
     63          8           0        2.047869   -2.010230   -0.007877
     64          6           0        0.547377   -3.582180    2.474883
     65          6           0       -0.531514   -3.425903    3.543046
     66          7           0       -0.163977   -3.692956    4.790203
     67          8           0       -1.611359   -2.878753    3.336016
     68          1           0       -0.977215   -4.813409    0.825643
     69          1           0       -0.043371   -2.036387    1.138829
     70          1           0        1.385579   -2.954377    2.785339
     71          1           0        0.854449   -4.627487    2.447691
     72          1           0        0.714745   -4.197134    4.843600
     73          1           0       -0.897373   -3.915519    5.442657
     74          7           0        1.842926   -4.191491   -0.443419
     75          6           0        3.050194   -4.283109   -1.234565
     76          6           0        4.358809   -4.137728   -0.470699
     77          8           0        4.360399   -4.252740    0.750641
     78          1           0        1.280057   -5.029766   -0.380388
     79          1           0        2.989314   -3.530104   -2.022142
     80          1           0        2.966674   -5.266086   -1.702839
     81          7           0        5.432114   -3.739015   -1.158263
     82          6           0        6.694715   -3.300462   -0.610806
     83          6           0        6.662494   -2.066831    0.282176
     84          8           0        7.611202   -1.764079    1.008601
     85          6           0        7.462474   -4.447411    0.053765
     86          6           0        7.757694   -5.752100   -0.631896
     87          6           0        8.542734   -6.627694    0.123053
     88          6           0        7.359618   -6.125541   -1.921887
     89          6           0        8.897549   -7.892002   -0.375478
     90          6           0        7.734421   -7.376338   -2.438248
     91          6           0        8.491646   -8.277191   -1.666319
     92          8           0        8.905665   -9.478144   -2.173862
     93          1           0        5.212042   -3.498071   -2.108481
     94          1           0        7.251828   -3.027536   -1.512436
     95          1           0        7.023813   -4.659768    1.027511
     96          1           0        8.459239   -4.052213    0.236734
     97          1           0        8.898170   -6.434990    1.127359
     98          1           0        6.710318   -5.488703   -2.509294
     99          1           0        9.489271   -8.567983    0.224285
    100          1           0        7.438694   -7.703960   -3.421767
    101          1           0        8.281244   -9.896520   -2.758978
    102          7           0        5.500877   -1.413739    0.304905
    103          6           0        5.160839   -0.151460    0.930626
    104          6           0        5.887683    1.058372    0.340282
    105          8           0        5.228299    2.054331    0.058539
    106          6           0        5.114800   -0.222771    2.456960
    107          6           0        4.404187   -1.492890    2.907655
    108          6           0        4.567277    1.112735    2.922408
    109          6           0        4.069891   -1.658190    4.387358
    110          1           0        4.840689   -1.794084   -0.358788
    111          1           0        4.114512    0.036078    0.679372
    112          1           0        6.146961   -0.313047    2.788462
    113          1           0        5.055064   -2.282920    2.539536
    114          1           0        3.476319   -1.713588    2.384534
    115          1           0        4.330074    1.023959    3.980072
    116          1           0        5.245278    1.950543    2.746928
    117          1           0        3.639344    1.326719    2.392077
    118          1           0        3.173498   -1.056975    4.567138
    119          1           0        3.938983   -2.726031    4.586806
    120          1           0        4.931974   -1.365148    4.986891
    121          7           0        7.192515    1.031305    0.111199
    122          6           0        7.992840    1.808283   -0.820082
    123          6           0        8.161456    3.295523   -0.575365
    124          8           0        8.596662    3.990685   -1.484400
    125          6           0        9.303823    1.062076   -1.048771
    126          8           0        9.259457   -0.332577   -1.246695
    127          1           0        7.591355    0.120406    0.322362
    128          1           0        7.452627    1.768382   -1.764316
    129          1           0        9.888485    1.246113   -0.153003
    130          1           0        9.814033    1.400511   -1.953342
    131          1           0        8.948239   -0.477840   -2.137448
    132          7           0        7.819869    3.873649    0.578969
    133          6           0        7.589708    5.287937    0.798094
    134          6           0        6.472699    5.823829   -0.087237
    135          8           0        6.581210    6.899893   -0.664482
    136          6           0        8.891180    6.058688    0.984673
    137          1           0        7.649070    3.338957    1.423678
    138          1           0        7.053887    5.311965    1.752305
    139          1           0        9.579053    5.950366    0.148254
    140          1           0        8.644544    7.112658    1.159081
    141          1           0        9.366332    5.643571    1.875745
    142          7           0        5.415830    5.037351   -0.308776
    143          6           0        4.290498    5.412736   -1.134375
    144          6           0        2.959777    5.669836   -0.434745
    145          8           0        2.742571    5.247538    0.695470
    146          6           0        4.326074    4.399260   -2.277398
    147          1           0        5.289464    4.099239    0.055748
    148          1           0        4.610471    6.383928   -1.503568
    149          1           0        5.146106    4.610023   -2.976273
    150          1           0        4.374054    3.400650   -1.858618
    151          1           0        3.405345    4.551268   -2.841003
    152          7           0        2.003893    6.280630   -1.133185
    153          6           0        0.803914    6.850546   -0.549109
    154          6           0        0.936355    7.891024    0.555954
    155          8           0       -0.029744    8.081180    1.293920
    156          6           0       -0.227898    5.762266   -0.242171
    157          6           0       -0.377651    4.942359   -1.530396
    158          6           0       -1.610689    4.050841   -1.384061
    159          8           0       -1.443832    2.923424   -0.867932
    160          8           0       -2.712735    4.543790   -1.696302
    161          1           0        2.181895    6.529699   -2.096502
    162          1           0        0.389453    7.449774   -1.367245
    163          1           0       -1.213638    6.185830   -0.078430
    164          1           0        0.060250    5.257125    0.673910
    165          1           0        0.468357    4.261535   -1.557783
    166          1           0       -0.540005    5.573194   -2.400907
    167          7           0        1.974390    8.720072    0.597957
    168          6           0        2.427557    9.610579    1.646068
    169          1           0        2.149901   10.634962    1.397634
    170          1           0        1.962580    9.327674    2.590139
    171          1           0        3.511372    9.541417    1.739655
    172          1           0        2.482097    8.785123   -0.269800
    173         20           0       -1.630367    0.441674   -1.319841
    174          8           0       -2.860377    0.659911    0.988654
    175          1           0       -3.166815   -0.013462    1.587457
    176          1           0       -3.647091    1.150037    0.752946
 ---------------------------------------------------------------------

 SCF Done:  E(RB3LYP) =  -5333.33398563     A.U. after   44 cycles

 The electronic state is 1-A.
 Alpha  occ. eigenvalues -- -145.45806 -19.16919 -19.15903 -19.14514 -19.14418
 Alpha  occ. eigenvalues --  -19.14139 -19.13814 -19.12268 -19.11283 -19.11138
 Alpha  occ. eigenvalues --  -19.09624 -19.07935 -19.07708 -19.07533 -19.07400
 Alpha  occ. eigenvalues --  -19.06192 -19.06064 -19.05421 -19.05036 -19.02478
 Alpha  occ. eigenvalues --  -19.02381 -19.01478 -18.96374 -18.95978 -15.51647
 Alpha  occ. eigenvalues --  -14.56703 -14.40814 -14.40458 -14.39765 -14.37769
 Alpha  occ. eigenvalues --  -14.36908 -14.36477 -14.35634 -14.34869 -14.34164
 Alpha  occ. eigenvalues --  -14.33659 -14.32796 -14.32460 -14.32426 -14.28965
 Alpha  occ. eigenvalues --  -12.65272 -12.65241 -12.65156 -10.33113 -10.32839
 Alpha  occ. eigenvalues --  -10.32780 -10.32356 -10.31043 -10.30432 -10.29925
 Alpha  occ. eigenvalues --  -10.28953 -10.28422 -10.27297 -10.27159 -10.26735
 Alpha  occ. eigenvalues --  -10.26597 -10.26505 -10.26470 -10.26144 -10.25972
 Alpha  occ. eigenvalues --  -10.25573 -10.25375 -10.24976 -10.24924 -10.24641
 Alpha  occ. eigenvalues --  -10.24473 -10.23770 -10.23265 -10.23240 -10.22920
 Alpha  occ. eigenvalues --  -10.22376 -10.22135 -10.21981 -10.21109 -10.21100
 Alpha  occ. eigenvalues --  -10.21072 -10.20925 -10.20664 -10.20600 -10.20595
 Alpha  occ. eigenvalues --  -10.20518 -10.20323 -10.20180 -10.20042 -10.19512
 Alpha  occ. eigenvalues --  -10.18301 -10.18042 -10.17795 -10.17516 -10.17417
 Alpha  occ. eigenvalues --  -10.17242 -10.16111 -10.15718 -10.14244 -10.13991
 Alpha  occ. eigenvalues --  -10.13623 -10.12247  -1.88123  -1.15708  -1.15485
 Alpha  occ. eigenvalues --   -1.14774  -1.12207  -1.07971  -1.07137  -1.06599
 Alpha  occ. eigenvalues --   -1.05564  -1.05472  -1.04630  -1.04181  -1.04136
 Alpha  occ. eigenvalues --   -1.03143  -1.01277  -1.01162  -1.00490  -1.00417
 Alpha  occ. eigenvalues --   -1.00362  -0.99256  -0.99040  -0.98303  -0.97571
 Alpha  occ. eigenvalues --   -0.97460  -0.97076  -0.95913  -0.95798  -0.94661
 Alpha  occ. eigenvalues --   -0.93643  -0.92364  -0.92207  -0.91545  -0.91043
 Alpha  occ. eigenvalues --   -0.90914  -0.90863  -0.89568  -0.89317  -0.88901
 Alpha  occ. eigenvalues --   -0.88113  -0.87734  -0.87587  -0.86501  -0.85695
 Alpha  occ. eigenvalues --   -0.83222  -0.82695  -0.81373  -0.80964  -0.80251
 Alpha  occ. eigenvalues --   -0.79057  -0.78036  -0.77181  -0.77042  -0.76010
 Alpha  occ. eigenvalues --   -0.75704  -0.75607  -0.75544  -0.74465  -0.73808
 Alpha  occ. eigenvalues --   -0.73566  -0.72774  -0.72029  -0.71050  -0.70754
 Alpha  occ. eigenvalues --   -0.70562  -0.70195  -0.68233  -0.67251  -0.67166
 Alpha  occ. eigenvalues --   -0.67084  -0.66523  -0.65699  -0.65194  -0.64612
 Alpha  occ. eigenvalues --   -0.64501  -0.63770  -0.63596  -0.63243  -0.62953
 Alpha  occ. eigenvalues --   -0.61992  -0.61916  -0.61096  -0.60570  -0.60511
 Alpha  occ. eigenvalues --   -0.60160  -0.60069  -0.59903  -0.59497  -0.58982
 Alpha  occ. eigenvalues --   -0.58573  -0.57891  -0.57361  -0.57026  -0.56772
 Alpha  occ. eigenvalues --   -0.56458  -0.56319  -0.56294  -0.56114  -0.55786
 Alpha  occ. eigenvalues --   -0.55573  -0.54903  -0.54803  -0.54525  -0.54098
 Alpha  occ. eigenvalues --   -0.53711  -0.53626  -0.53300  -0.52975  -0.52778
 Alpha  occ. eigenvalues --   -0.52616  -0.51673  -0.51470  -0.50945  -0.50366
 Alpha  occ. eigenvalues --   -0.50294  -0.50040  -0.49973  -0.49376  -0.49247
 Alpha  occ. eigenvalues --   -0.48896  -0.48825  -0.48669  -0.48093  -0.47991
 Alpha  occ. eigenvalues --   -0.47883  -0.47554  -0.46971  -0.46646  -0.46451
 Alpha  occ. eigenvalues --   -0.46320  -0.46145  -0.46105  -0.46028  -0.45857
 Alpha  occ. eigenvalues --   -0.45745  -0.45195  -0.45097  -0.44959  -0.44868
 Alpha  occ. eigenvalues --   -0.44733  -0.44488  -0.44288  -0.44213  -0.44016
 Alpha  occ. eigenvalues --   -0.43903  -0.43836  -0.43725  -0.43697  -0.43608
 Alpha  occ. eigenvalues --   -0.43237  -0.42808  -0.42725  -0.42599  -0.42439
 Alpha  occ. eigenvalues --   -0.42190  -0.42065  -0.41998  -0.41482  -0.41402
 Alpha  occ. eigenvalues --   -0.41307  -0.41069  -0.40943  -0.40852  -0.40749
 Alpha  occ. eigenvalues --   -0.40511  -0.40329  -0.40156  -0.40123  -0.39870
 Alpha  occ. eigenvalues --   -0.39758  -0.39683  -0.39594  -0.39414  -0.39403
 Alpha  occ. eigenvalues --   -0.39249  -0.39128  -0.39040  -0.39036  -0.38830
 Alpha  occ. eigenvalues --   -0.38743  -0.38620  -0.38602  -0.38411  -0.38243
 Alpha  occ. eigenvalues --   -0.37631  -0.37469  -0.37413  -0.37090  -0.36979
 Alpha  occ. eigenvalues --   -0.36858  -0.36840  -0.36658  -0.36515  -0.36371
 Alpha  occ. eigenvalues --   -0.36291  -0.35715  -0.35410  -0.35265  -0.35197
 Alpha  occ. eigenvalues --   -0.34993  -0.34686  -0.34656  -0.34620  -0.34501
 Alpha  occ. eigenvalues --   -0.34431  -0.34138  -0.34111  -0.33409  -0.33363
 Alpha  occ. eigenvalues --   -0.33266  -0.33101  -0.32782  -0.32661  -0.32636
 Alpha  occ. eigenvalues --   -0.32485  -0.32348  -0.32135  -0.31911  -0.31832
 Alpha  occ. eigenvalues --   -0.31355  -0.31267  -0.30683  -0.30584  -0.30422
 Alpha  occ. eigenvalues --   -0.29774  -0.29575  -0.29421  -0.29219  -0.28790
 Alpha  occ. eigenvalues --   -0.28434  -0.27576  -0.27477  -0.27128  -0.26773
 Alpha  occ. eigenvalues --   -0.26655  -0.26469  -0.25833  -0.25347  -0.25332
 Alpha  occ. eigenvalues --   -0.25305  -0.25176  -0.24288  -0.23957  -0.23822
 Alpha  occ. eigenvalues --   -0.23371  -0.23015  -0.22982  -0.22612  -0.22508
 Alpha  occ. eigenvalues --   -0.21662  -0.21534  -0.21490  -0.21375  -0.21025
 Alpha  occ. eigenvalues --   -0.20779  -0.19691  -0.18513  -0.18299  -0.17549
 Alpha  occ. eigenvalues --   -0.14221  -0.13452  -0.10621
 Alpha virt. eigenvalues --   -0.09707  -0.07224  -0.03643  -0.03493  -0.03134
 Alpha virt. eigenvalues --   -0.03101  -0.03050  -0.02209  -0.02059  -0.01188
 Alpha virt. eigenvalues --   -0.01106  -0.00616  -0.00344  -0.00270   0.00034

 Mulliken charges:
               1
     1  C    0.064696
     2  C   -0.005978
     3  O   -0.325997
     4  H    0.023341
     5  H    0.024280
     6  H    0.003377
     7  N   -0.095952
     8  C    0.122709
     9  C    0.088229
    10  O   -0.269373
    11  C    0.055468
    12  C    0.015928
    13  O   -0.346883
    14  O   -0.361004
    15  H    0.129165
    16  H   -0.012845
    17  H   -0.034889
    18  H   -0.008604
    19  N   -0.116783
    20  C    0.145699
    21  C    0.059652
    22  O   -0.299801
    23  C    0.005211
    24  C    0.029547
    25  C   -0.028003
    26  C    0.022775
    27  N    0.133296
    28  H    0.124311
    29  H   -0.003487
    30  H    0.019891
    31  H   -0.004474
    32  H    0.019013
    33  H    0.037329
    34  H    0.020087
    35  H    0.015949
    36  H    0.059932
    37  H    0.063372
    38  H    0.159036
    39  H    0.136506
    40  H    0.146445
    41  N   -0.093601
    42  C    0.055635
    43  C    0.117649
    44  O   -0.246627
    45  C    0.135627
    46  C    0.053816
    47  O   -0.356817
    48  O   -0.490264
    49  H    0.140196
    50  H   -0.007216
    51  H   -0.025049
    52  H   -0.003974
    53  N   -0.157682
    54  C    0.181945
    55  C    0.134890
    56  O   -0.341375
    57  H    0.139969
    58  H    0.001732
    59  H    0.083980
    60  N   -0.125140
    61  C    0.110934
    62  C    0.088637
    63  O   -0.286557
    64  C   -0.004435
    65  C    0.009109
    66  N   -0.018314
    67  O   -0.235478
    68  H    0.118125
    69  H    0.016208
    70  H    0.064056
    71  H    0.011078
    72  H    0.111806
    73  H    0.145650
    74  N   -0.116011
    75  C    0.186709
    76  C    0.043457
    77  O   -0.250752
    78  H    0.114547
    79  H    0.016456
    80  H    0.034262
    81  N   -0.154971
    82  C    0.140611
    83  C    0.078223
    84  O   -0.286588
    85  C    0.101717
    86  C    0.017084
    87  C   -0.025574
    88  C   -0.001828
    89  C   -0.025962
    90  C   -0.029830
    91  C    0.174654
    92  O   -0.219755
    93  H    0.123099
    94  H    0.000017
    95  H    0.033030
    96  H    0.040469
    97  H   -0.020133
    98  H   -0.070829
    99  H   -0.023008
   100  H   -0.050943
   101  H    0.177372
   102  N   -0.098828
   103  C    0.133906
   104  C    0.034583
   105  O   -0.277952
   106  C   -0.111443
   107  C    0.004949
   108  C    0.095652
   109  C    0.040563
   110  H    0.112815
   111  H    0.013578
   112  H   -0.005680
   113  H    0.008238
   114  H   -0.023957
   115  H    0.003871
   116  H    0.010437
   117  H    0.014592
   118  H    0.029983
   119  H    0.000238
   120  H    0.007432
   121  N   -0.105012
   122  C    0.088413
   123  C    0.078094
   124  O   -0.269128
   125  C    0.219099
   126  O   -0.297877
   127  H    0.138857
   128  H    0.002634
   129  H    0.010419
   130  H    0.024816
   131  H    0.157235
   132  N   -0.133545
   133  C    0.057517
   134  C    0.066633
   135  O   -0.269484
   136  C    0.102519
   137  H    0.121772
   138  H    0.009431
   139  H    0.038918
   140  H    0.021511
   141  H   -0.013211
   142  N   -0.158749
   143  C    0.073104
   144  C    0.083863
   145  O   -0.259304
   146  C    0.057267
   147  H    0.126645
   148  H   -0.000543
   149  H    0.027871
   150  H    0.021772
   151  H   -0.025049
   152  N   -0.135119
   153  C    0.058923
   154  C    0.070073
   155  O   -0.267966
   156  C    0.048778
   157  C    0.105159
   158  C    0.077961
   159  O   -0.507556
   160  O   -0.346292
   161  H    0.113494
   162  H    0.005592
   163  H    0.016885
   164  H    0.025203
   165  H   -0.045706
   166  H   -0.031022
   167  N   -0.139788
   168  C    0.135565
   169  H    0.016128
   170  H    0.042670
   171  H    0.022854
   172  H    0.100505
   173  Ca   1.417645
   174  O   -0.319137
   175  H    0.203733
   176  H    0.196750
 Sum of Mulliken charges =  -0.00000

 Dipole moment (field-independent basis, Debye):
    X=             -0.7670    Y=             -8.4545    Z=            -30.0301  Tot=             31.2069
 Quadrupole moment (field-independent basis, Debye-Ang):
   XX=           -442.0125   YY=           -566.6081   ZZ=           -463.7064
   XY=           -134.2760   XZ=            303.7228   YZ=            -38.8501

 ESP charges:
               1
     1  C   -0.430880
     2  C    0.759998
     3  O   -0.626316
     4  H    0.129363
     5  H    0.102957
     6  H    0.091989
     7  N   -0.643762
     8  C    0.452649
     9  C    0.402527
    10  O   -0.491754
    11  C   -0.435370
    12  C    0.748666
    13  O   -0.664441
    14  O   -0.654113
    15  H    0.320921
    16  H   -0.038529
    17  H    0.068770
    18  H    0.087888
    19  N   -0.506618
    20  C    0.072049
    21  C    0.504778
    22  O   -0.588687
    23  C    0.080727
    24  C   -0.087799
    25  C   -0.227926
    26  C    0.289796
    27  N   -0.471944
    28  H    0.292765
    29  H    0.076220
    30  H    0.026372
    31  H    0.001338
    32  H    0.042372
    33  H    0.111713
    34  H    0.068486
    35  H    0.073549
    36  H    0.039150
    37  H   -0.001984
    38  H    0.357459
    39  H    0.282516
    40  H    0.296434
    41  N   -0.322733
    42  C    0.109598
    43  C    0.495748
    44  O   -0.468657
    45  C   -0.422785
    46  C    0.811855
    47  O   -0.659205
    48  O   -0.891052
    49  H    0.257761
    50  H    0.058199
    51  H    0.084801
    52  H    0.100197
    53  N   -0.377216
    54  C   -0.200887
    55  C    0.800315
    56  O   -0.545430
    57  H    0.315860
    58  H    0.101987
    59  H    0.161026
    60  N   -0.932758
    61  C    0.376299
    62  C    0.377783
    63  O   -0.499928
    64  C   -0.320133
    65  C    0.649589
    66  N   -0.731726
    67  O   -0.492308
    68  H    0.398715
    69  H    0.051739
    70  H    0.145456
    71  H    0.049446
    72  H    0.323373
    73  H    0.371177
    74  N   -0.234348
    75  C   -0.383115
    76  C    0.816616
    77  O   -0.574714
    78  H    0.295494
    79  H    0.147324
    80  H    0.147562
    81  N   -0.825001
    82  C    0.514447
    83  C    0.011720
    84  O   -0.433234
    85  C   -0.196063
    86  C    0.116458
    87  C   -0.148494
    88  C   -0.219549
    89  C   -0.235827
    90  C   -0.256096
    91  C    0.333799
    92  O   -0.522929
    93  H    0.341271
    94  H    0.013789
    95  H    0.108267
    96  H    0.072850
    97  H    0.130428
    98  H    0.143291
    99  H    0.153098
   100  H    0.135452
   101  H    0.387093
   102  N   -0.061426
   103  C   -0.459940
   104  C    0.717749
   105  O   -0.520205
   106  C    0.318737
   107  C    0.230181
   108  C   -0.390122
   109  C   -0.511351
   110  H    0.221598
   111  H    0.135191
   112  H   -0.040229
   113  H    0.058350
   114  H   -0.081637
   115  H    0.083395
   116  H    0.108658
   117  H    0.105590
   118  H    0.137752
   119  H    0.114406
   120  H    0.113983
   121  N   -0.566304
   122  C   -0.002879
   123  C    0.389368
   124  O   -0.490993
   125  C    0.149497
   126  O   -0.573882
   127  H    0.401489
   128  H    0.089873
   129  H    0.077657
   130  H    0.034289
   131  H    0.401274
   132  N   -0.327529
   133  C    0.262748
   134  C    0.501204
   135  O   -0.515083
   136  C   -0.381573
   137  H    0.246218
   138  H    0.021600
   139  H    0.133414
   140  H    0.094911
   141  H    0.081068
   142  N   -0.580332
   143  C    0.685920
   144  C    0.124349
   145  O   -0.443366
   146  C   -0.172652
   147  H    0.213603
   148  H   -0.121575
   149  H    0.063116
   150  H    0.043746
   151  H   -0.043028
   152  N   -0.119849
   153  C   -0.421020
   154  C    0.542462
   155  O   -0.546607
   156  C    0.690017
   157  C   -0.315978
   158  C    0.649746
   159  O   -0.814758
   160  O   -0.622216
   161  H    0.201279
   162  H    0.112561
   163  H   -0.096916
   164  H   -0.086807
   165  H    0.007362
   166  H    0.045143
   167  N   -0.237549
   168  C   -0.108695
   169  H    0.053713
   170  H    0.104065
   171  H    0.067050
   172  H    0.209252
   173  Ca   1.633156
   174  O   -0.802773
   175  H    0.444550
   176  H    0.408960
 Sum of ESP charges =   0.00000

 Normal termination of Gaussian 16 at Tue Sep 17 18:49:45 2019.
