 Gaussian 16, Revision A.03,
 Gaussian 16:  ES64L-G16RevA.03 25-Dec-2016

 ----------------------------------------------------------------------
 #b3lyp/svp scf=(tight,noincore) Test #IOP(5/87=12) Density=Current Pop
 =(MK,readradii) iop(6/33=2) iop(6/42=6)
 ----------------------------------------------------------------------

 -----------------
 Ng-293_loop3_37.0
 -----------------
 Symbolic Z-matrix:
 Charge =  0 Multiplicity = 1

                         Standard orientation:
 ---------------------------------------------------------------------
 Center     Atomic      Atomic             Coordinates (Angstroms)
 Number     Number       Type             X           Y           Z
 ---------------------------------------------------------------------
      1          6           0        8.815559   -0.199281    4.744784
      2          6           0        8.679873    0.622173    3.472423
      3          8           0        7.713939    0.494880    2.714618
      4          1           0        8.968839   -1.247301    4.485599
      5          1           0        9.668240    0.159876    5.321078
      6          1           0        7.907824   -0.101270    5.339417
      7          7           0        9.668662    1.504676    3.280631
      8          6           0        9.842656    2.380737    2.144345
      9          6           0        9.675888    1.830449    0.729647
     10          8           0        9.238112    2.418761   -0.252566
     11          6           0        8.979680    3.638420    2.310196
     12          6           0        9.408211    4.932304    1.634382
     13          8           0        8.560571    5.825706    1.445600
     14          8           0       10.578041    5.081530    1.196969
     15          1           0       10.501150    1.437728    3.857156
     16          1           0       10.895379    2.635002    2.237737
     17          1           0        8.896481    3.762897    3.390975
     18          1           0        7.982769    3.279080    2.064343
     19          7           0        9.960043    0.524868    0.616447
     20          6           0        9.944902   -0.270229   -0.592392
     21          6           0        8.607204   -0.476152   -1.271405
     22          8           0        8.703055   -0.680928   -2.481768
     23          6           0       10.468213   -1.677678   -0.305807
     24          6           0       11.951721   -1.773476    0.026501
     25          6           0       12.500148   -3.188451   -0.116580
     26          6           0       14.026023   -3.171383   -0.224347
     27          7           0       14.558983   -2.496727    0.968461
     28          1           0       10.105518    0.047161    1.500039
     29          1           0       10.538903    0.215741   -1.374949
     30          1           0       10.368274   -2.177354   -1.264575
     31          1           0        9.870157   -2.151015    0.481645
     32          1           0       12.080699   -1.487402    1.070305
     33          1           0       12.505973   -1.032848   -0.547324
     34          1           0       12.246454   -3.574264   -1.108441
     35          1           0       12.164437   -3.789232    0.726842
     36          1           0       14.310784   -2.641819   -1.130478
     37          1           0       14.442031   -4.156063   -0.423202
     38          1           0       15.565972   -2.564180    0.934946
     39          1           0       14.323077   -1.511244    0.946720
     40          1           0       14.332744   -2.914688    1.859766
     41          7           0        7.446282   -0.347680   -0.623983
     42          6           0        6.188427   -0.229904   -1.336814
     43          6           0        5.204808    0.696485   -0.620156
     44          8           0        5.070548    0.647632    0.600085
     45          6           0        5.540308   -1.615636   -1.443525
     46          6           0        4.219159   -1.714374   -2.181167
     47          8           0        3.341956   -2.549079   -1.856846
     48          8           0        4.066827   -0.997881   -3.196417
     49          1           0        7.438865   -0.165846    0.371548
     50          1           0        6.372707    0.287977   -2.275611
     51          1           0        5.387298   -2.101051   -0.480892
     52          1           0        6.310095   -2.248715   -1.888991
     53          7           0        4.378700    1.448257   -1.344920
     54          6           0        3.304774    2.225929   -0.768718
     55          6           0        1.947900    1.558304   -0.844022
     56          8           0        1.781525    0.482953   -1.413968
     57          1           0        4.680665    1.506223   -2.306719
     58          1           0        3.258448    3.048967   -1.480801
     59          1           0        3.538751    2.538954    0.251659
     60          7           0        0.982940    2.177881   -0.157672
     61          6           0       -0.299235    1.550298    0.113747
     62          6           0       -1.553510    2.255792   -0.376430
     63          8           0       -2.666517    1.789102   -0.134946
     64          6           0       -0.379786    1.033495    1.544316
     65          6           0        0.743046    0.058256    1.886304
     66          7           0        0.851608   -1.026947    1.120112
     67          8           0        1.439965    0.237079    2.880702
     68          1           0        1.039200    3.182575   -0.068644
     69          1           0       -0.358118    0.662971   -0.505109
     70          1           0       -1.355187    0.571551    1.703690
     71          1           0       -0.344824    1.886147    2.212420
     72          1           0        0.196728   -1.120268    0.348475
     73          1           0        1.469875   -1.784984    1.341524
     74          7           0       -1.434433    3.376036   -1.085213
     75          6           0       -2.464386    4.275527   -1.563348
     76          6           0       -3.675825    4.443992   -0.652394
     77          8           0       -3.545508    4.513764    0.562616
     78          1           0       -0.481653    3.714595   -1.210467
     79          1           0       -2.859017    3.840507   -2.483686
     80          1           0       -2.089932    5.243370   -1.891926
     81          7           0       -4.889907    4.377785   -1.201415
     82          6           0       -6.143712    4.303031   -0.474171
     83          6           0       -6.315911    3.121224    0.472073
     84          8           0       -7.227579    3.104349    1.292547
     85          6           0       -6.441452    5.646116    0.184747
     86          6           0       -6.107098    6.812476   -0.709856
     87          6           0       -4.985765    7.601488   -0.427948
     88          6           0       -6.925696    7.069938   -1.807448
     89          6           0       -4.654755    8.619048   -1.329449
     90          6           0       -6.657549    8.143823   -2.661244
     91          6           0       -5.477835    8.895280   -2.438338
     92          8           0       -5.243759   10.001223   -3.198799
     93          1           0       -4.959399    4.131526   -2.176108
     94          1           0       -6.910238    4.198173   -1.247245
     95          1           0       -5.882520    5.685730    1.117659
     96          1           0       -7.487517    5.772757    0.482591
     97          1           0       -4.304878    7.385789    0.386464
     98          1           0       -7.779308    6.435451   -2.000772
     99          1           0       -3.788940    9.249673   -1.218199
    100          1           0       -7.350177    8.391285   -3.444781
    101          1           0       -6.055599   10.314107   -3.596190
    102          7           0       -5.332494    2.212293    0.466116
    103          6           0       -5.165005    0.948322    1.149947
    104          6           0       -6.237835   -0.071147    0.828829
    105          8           0       -5.881992   -1.179146    0.448943
    106          6           0       -5.010483    1.189458    2.657786
    107          6           0       -3.657649    1.812423    2.988020
    108          6           0       -5.177842   -0.098339    3.452562
    109          6           0       -3.588869    2.512100    4.344568
    110          1           0       -4.612019    2.296588   -0.237312
    111          1           0       -4.201062    0.554144    0.820801
    112          1           0       -5.838405    1.832388    2.947935
    113          1           0       -3.337907    2.553379    2.259906
    114          1           0       -2.893993    1.037777    2.902860
    115          1           0       -4.777885   -0.966636    2.940024
    116          1           0       -4.576900   -0.020270    4.361888
    117          1           0       -6.253278   -0.194791    3.648097
    118          1           0       -3.705185    1.746908    5.119908
    119          1           0       -2.604514    2.949513    4.521523
    120          1           0       -4.328881    3.302079    4.348451
    121          7           0       -7.532414    0.248085    0.934452
    122          6           0       -8.620266   -0.484077    0.308819
    123          6           0       -8.886709   -1.874493    0.857319
    124          8           0       -9.548245   -2.671981    0.201893
    125          6           0       -9.925641    0.306033    0.395555
    126          8           0       -9.705697    1.689771    0.173081
    127          1           0       -7.780509    1.180137    1.244820
    128          1           0       -8.422843   -0.704138   -0.737077
    129          1           0      -10.243579    0.109266    1.416338
    130          1           0      -10.771054   -0.019677   -0.199751
    131          1           0       -9.147654    1.770171   -0.614017
    132          7           0       -8.288974   -2.236670    2.001321
    133          6           0       -8.178319   -3.579499    2.514709
    134          6           0       -7.721704   -4.682488    1.572044
    135          8           0       -8.076597   -5.831040    1.831617
    136          6           0       -9.499474   -3.858134    3.222036
    137          1           0       -8.010144   -1.475068    2.616152
    138          1           0       -7.365017   -3.610250    3.247508
    139          1           0      -10.286852   -3.868211    2.473081
    140          1           0       -9.436567   -4.818925    3.751775
    141          1           0       -9.721002   -3.079072    3.949283
    142          7           0       -6.953538   -4.341732    0.532233
    143          6           0       -6.437573   -5.113461   -0.582897
    144          6           0       -4.927007   -5.256026   -0.516071
    145          8           0       -4.320198   -4.659409    0.367292
    146          6           0       -6.914732   -4.370719   -1.832879
    147          1           0       -6.635709   -3.384135    0.510067
    148          1           0       -6.765080   -6.151063   -0.627856
    149          1           0       -6.819370   -4.973702   -2.730942
    150          1           0       -7.979812   -4.142031   -1.712022
    151          1           0       -6.365776   -3.434657   -1.893988
    152          7           0       -4.227416   -6.018216   -1.360665
    153          6           0       -2.833408   -6.426387   -1.379088
    154          6           0       -2.325255   -7.156005   -0.137299
    155          8           0       -1.120583   -7.267806    0.066576
    156          6           0       -2.087161   -5.171238   -1.793835
    157          6           0       -0.757652   -5.386178   -2.527871
    158          6           0       -0.008597   -4.078207   -2.749741
    159          8           0        0.397092   -3.304841   -1.855861
    160          8           0        0.182876   -3.654403   -3.909667
    161          1           0       -4.727419   -6.497306   -2.091123
    162          1           0       -2.671778   -7.134788   -2.195326
    163          1           0       -1.947751   -4.491949   -0.959490
    164          1           0       -2.766937   -4.599193   -2.423810
    165          1           0       -1.063207   -5.794672   -3.483732
    166          1           0       -0.138078   -6.115580   -2.011538
    167          7           0       -3.198211   -7.585454    0.779009
    168          6           0       -2.966081   -7.999276    2.141568
    169          1           0       -2.749864   -9.067347    2.164024
    170          1           0       -2.118941   -7.448531    2.549751
    171          1           0       -3.854054   -7.796489    2.739571
    172          1           0       -4.171466   -7.371508    0.564529
    173         20           0        1.566447   -1.468138   -3.278019
    174          8           0        2.802263   -2.715946   -5.142190
    175          1           0        3.681639   -2.946745   -5.431895
    176          1           0        2.236983   -2.952732   -5.877915
 ---------------------------------------------------------------------

 SCF Done:  E(RB3LYP) =  -5333.37104597     A.U. after   34 cycles

 The electronic state is 1-A.
 Alpha  occ. eigenvalues -- -145.40033 -19.16764 -19.16242 -19.15563 -19.14011
 Alpha  occ. eigenvalues --  -19.13909 -19.12099 -19.10643 -19.09886 -19.08966
 Alpha  occ. eigenvalues --  -19.08334 -19.07833 -19.07323 -19.07216 -19.07110
 Alpha  occ. eigenvalues --  -19.06864 -19.06787 -19.06755 -19.05109 -19.04178
 Alpha  occ. eigenvalues --  -19.03906 -19.03651 -18.96381 -18.96031 -15.45978
 Alpha  occ. eigenvalues --  -14.56043 -14.40985 -14.40432 -14.38757 -14.35243
 Alpha  occ. eigenvalues --  -14.35187 -14.35144 -14.35019 -14.34718 -14.34600
 Alpha  occ. eigenvalues --  -14.33671 -14.33246 -14.33210 -14.33155 -14.32792
 Alpha  occ. eigenvalues --  -12.59565 -12.59545 -12.59487 -10.34083 -10.33277
 Alpha  occ. eigenvalues --  -10.33098 -10.31515 -10.29418 -10.28198 -10.28001
 Alpha  occ. eigenvalues --  -10.27590 -10.27517 -10.27280 -10.27134 -10.27118
 Alpha  occ. eigenvalues --  -10.26914 -10.26312 -10.26128 -10.26061 -10.25961
 Alpha  occ. eigenvalues --  -10.25888 -10.25686 -10.25615 -10.25017 -10.24873
 Alpha  occ. eigenvalues --  -10.24173 -10.23979 -10.23547 -10.23334 -10.23084
 Alpha  occ. eigenvalues --  -10.22877 -10.22624 -10.22074 -10.22055 -10.22043
 Alpha  occ. eigenvalues --  -10.21279 -10.20415 -10.20222 -10.20186 -10.20149
 Alpha  occ. eigenvalues --  -10.20038 -10.19914 -10.19849 -10.19653 -10.19343
 Alpha  occ. eigenvalues --  -10.19106 -10.17886 -10.17678 -10.16627 -10.16106
 Alpha  occ. eigenvalues --  -10.16078 -10.16060 -10.16012 -10.15866 -10.15681
 Alpha  occ. eigenvalues --  -10.14871 -10.11514  -1.82956  -1.11831  -1.10420
 Alpha  occ. eigenvalues --   -1.10363  -1.09961  -1.08093  -1.07372  -1.05741
 Alpha  occ. eigenvalues --   -1.05620  -1.03919  -1.03112  -1.02416  -1.02132
 Alpha  occ. eigenvalues --   -1.01993  -1.01790  -1.01372  -1.01048  -1.00471
 Alpha  occ. eigenvalues --   -1.00049  -0.99973  -0.99716  -0.99531  -0.99512
 Alpha  occ. eigenvalues --   -0.99505  -0.97799  -0.96190  -0.95484  -0.92612
 Alpha  occ. eigenvalues --   -0.92123  -0.91755  -0.91738  -0.91120  -0.91102
 Alpha  occ. eigenvalues --   -0.90706  -0.90382  -0.89758  -0.89639  -0.89112
 Alpha  occ. eigenvalues --   -0.89109  -0.88472  -0.88340  -0.87441  -0.85972
 Alpha  occ. eigenvalues --   -0.82321  -0.81979  -0.81180  -0.80176  -0.80113
 Alpha  occ. eigenvalues --   -0.78360  -0.77604  -0.77536  -0.77159  -0.76205
 Alpha  occ. eigenvalues --   -0.75747  -0.75503  -0.75095  -0.74511  -0.73963
 Alpha  occ. eigenvalues --   -0.73521  -0.72508  -0.71675  -0.71250  -0.70759
 Alpha  occ. eigenvalues --   -0.69845  -0.69800  -0.69345  -0.68136  -0.67672
 Alpha  occ. eigenvalues --   -0.66904  -0.65667  -0.65288  -0.65128  -0.64392
 Alpha  occ. eigenvalues --   -0.63806  -0.63734  -0.63280  -0.62983  -0.62144
 Alpha  occ. eigenvalues --   -0.61982  -0.61818  -0.61727  -0.61029  -0.60677
 Alpha  occ. eigenvalues --   -0.60374  -0.59479  -0.59212  -0.58856  -0.58658
 Alpha  occ. eigenvalues --   -0.58030  -0.57748  -0.57511  -0.56857  -0.56366
 Alpha  occ. eigenvalues --   -0.56299  -0.56028  -0.55857  -0.55676  -0.55460
 Alpha  occ. eigenvalues --   -0.55420  -0.55062  -0.54912  -0.54366  -0.54113
 Alpha  occ. eigenvalues --   -0.53750  -0.53373  -0.53144  -0.52719  -0.52531
 Alpha  occ. eigenvalues --   -0.52343  -0.51526  -0.51263  -0.50661  -0.50427
 Alpha  occ. eigenvalues --   -0.49989  -0.49567  -0.49237  -0.49117  -0.48994
 Alpha  occ. eigenvalues --   -0.48847  -0.48231  -0.48086  -0.47894  -0.47814
 Alpha  occ. eigenvalues --   -0.47675  -0.47460  -0.46991  -0.46810  -0.46621
 Alpha  occ. eigenvalues --   -0.46484  -0.46350  -0.46100  -0.46025  -0.45548
 Alpha  occ. eigenvalues --   -0.45468  -0.45385  -0.45300  -0.45176  -0.45116
 Alpha  occ. eigenvalues --   -0.44894  -0.44834  -0.44638  -0.44294  -0.44162
 Alpha  occ. eigenvalues --   -0.43988  -0.43796  -0.43615  -0.43471  -0.43313
 Alpha  occ. eigenvalues --   -0.43145  -0.43030  -0.42737  -0.42521  -0.42458
 Alpha  occ. eigenvalues --   -0.42326  -0.42122  -0.42109  -0.41700  -0.41590
 Alpha  occ. eigenvalues --   -0.41580  -0.41274  -0.41041  -0.40919  -0.40837
 Alpha  occ. eigenvalues --   -0.40822  -0.40226  -0.40153  -0.39884  -0.39807
 Alpha  occ. eigenvalues --   -0.39775  -0.39513  -0.39447  -0.39299  -0.39281
 Alpha  occ. eigenvalues --   -0.39042  -0.38935  -0.38839  -0.38729  -0.38629
 Alpha  occ. eigenvalues --   -0.38484  -0.38352  -0.38274  -0.37932  -0.37874
 Alpha  occ. eigenvalues --   -0.37733  -0.37470  -0.37185  -0.36990  -0.36929
 Alpha  occ. eigenvalues --   -0.36880  -0.36663  -0.36632  -0.36568  -0.36442
 Alpha  occ. eigenvalues --   -0.36325  -0.36136  -0.35919  -0.35789  -0.35769
 Alpha  occ. eigenvalues --   -0.35620  -0.35376  -0.35250  -0.35087  -0.34798
 Alpha  occ. eigenvalues --   -0.34680  -0.33782  -0.33708  -0.33645  -0.33531
 Alpha  occ. eigenvalues --   -0.33117  -0.33052  -0.32931  -0.32579  -0.32510
 Alpha  occ. eigenvalues --   -0.32297  -0.32164  -0.32008  -0.31782  -0.31606
 Alpha  occ. eigenvalues --   -0.31332  -0.31016  -0.30973  -0.30267  -0.30105
 Alpha  occ. eigenvalues --   -0.29351  -0.29144  -0.28126  -0.27985  -0.27525
 Alpha  occ. eigenvalues --   -0.27380  -0.27045  -0.26442  -0.26146  -0.25859
 Alpha  occ. eigenvalues --   -0.25748  -0.25240  -0.25113  -0.25055  -0.24965
 Alpha  occ. eigenvalues --   -0.24900  -0.24318  -0.24245  -0.23927  -0.23809
 Alpha  occ. eigenvalues --   -0.23627  -0.23394  -0.23200  -0.23097  -0.23091
 Alpha  occ. eigenvalues --   -0.22925  -0.22782  -0.22673  -0.22394  -0.22248
 Alpha  occ. eigenvalues --   -0.22086  -0.21736  -0.21150  -0.20475  -0.18657
 Alpha  occ. eigenvalues --   -0.14106  -0.13142  -0.10506
 Alpha virt. eigenvalues --   -0.09345  -0.06093  -0.03676  -0.03386  -0.03185
 Alpha virt. eigenvalues --   -0.02918  -0.02405  -0.02025  -0.01359  -0.01022
 Alpha virt. eigenvalues --   -0.00409   0.00186   0.00923   0.01287   0.01600

 Mulliken charges:
               1
     1  C    0.068307
     2  C    0.011017
     3  O   -0.264202
     4  H    0.018513
     5  H   -0.016441
     6  H    0.058575
     7  N   -0.139683
     8  C    0.060671
     9  C    0.084544
    10  O   -0.229846
    11  C    0.073070
    12  C    0.092086
    13  O   -0.343557
    14  O   -0.367952
    15  H    0.113520
    16  H   -0.021194
    17  H   -0.029692
    18  H    0.005871
    19  N   -0.139607
    20  C    0.145096
    21  C    0.079518
    22  O   -0.310446
    23  C   -0.000964
    24  C   -0.007847
    25  C    0.012113
    26  C    0.024783
    27  N    0.142740
    28  H    0.094245
    29  H    0.016740
    30  H    0.019478
    31  H    0.015527
    32  H   -0.035412
    33  H    0.007857
    34  H    0.045194
    35  H    0.036288
    36  H    0.064840
    37  H    0.063053
    38  H    0.106741
    39  H    0.145251
    40  H    0.115414
    41  N   -0.129186
    42  C    0.150973
    43  C    0.033581
    44  O   -0.267008
    45  C    0.135494
    46  C    0.085892
    47  O   -0.399298
    48  O   -0.475128
    49  H    0.144865
    50  H   -0.001115
    51  H    0.003116
    52  H    0.009388
    53  N   -0.125972
    54  C    0.217424
    55  C    0.100263
    56  O   -0.333036
    57  H    0.122688
    58  H    0.010298
    59  H    0.087033
    60  N   -0.150043
    61  C    0.064030
    62  C    0.078955
    63  O   -0.281490
    64  C    0.101321
    65  C   -0.015612
    66  N   -0.036424
    67  O   -0.231533
    68  H    0.134332
    69  H    0.013505
    70  H    0.067853
    71  H    0.008069
    72  H    0.120317
    73  H    0.151448
    74  N   -0.108343
    75  C    0.211494
    76  C    0.036945
    77  O   -0.252413
    78  H    0.105562
    79  H   -0.008049
    80  H    0.053689
    81  N   -0.133537
    82  C    0.101642
    83  C    0.071522
    84  O   -0.284831
    85  C    0.155666
    86  C   -0.031009
    87  C    0.013708
    88  C   -0.023381
    89  C   -0.030986
    90  C   -0.047255
    91  C    0.163658
    92  O   -0.204124
    93  H    0.120682
    94  H    0.002149
    95  H    0.006197
    96  H    0.023210
    97  H   -0.009316
    98  H   -0.033255
    99  H   -0.024648
   100  H   -0.041788
   101  H    0.175158
   102  N   -0.095779
   103  C    0.184822
   104  C    0.032302
   105  O   -0.257675
   106  C   -0.156791
   107  C   -0.015759
   108  C    0.105381
   109  C    0.049432
   110  H    0.117908
   111  H    0.012109
   112  H    0.000985
   113  H    0.016368
   114  H   -0.019025
   115  H    0.022834
   116  H    0.004000
   117  H   -0.011557
   118  H    0.000753
   119  H    0.003084
   120  H    0.015761
   121  N   -0.134862
   122  C    0.053912
   123  C    0.029623
   124  O   -0.274030
   125  C    0.269287
   126  O   -0.305542
   127  H    0.142876
   128  H    0.006357
   129  H   -0.011621
   130  H    0.020717
   131  H    0.165214
   132  N   -0.126136
   133  C    0.050700
   134  C    0.059295
   135  O   -0.283418
   136  C    0.074902
   137  H    0.129028
   138  H    0.028484
   139  H    0.028914
   140  H    0.022509
   141  H   -0.017494
   142  N   -0.111588
   143  C    0.104526
   144  C    0.028406
   145  O   -0.257755
   146  C    0.035994
   147  H    0.138970
   148  H    0.005900
   149  H   -0.005002
   150  H    0.050286
   151  H    0.018608
   152  N   -0.129362
   153  C    0.103254
   154  C    0.059121
   155  O   -0.267284
   156  C    0.000895
   157  C    0.141376
   158  C    0.112507
   159  O   -0.436213
   160  O   -0.461857
   161  H    0.104462
   162  H    0.010072
   163  H    0.027477
   164  H   -0.017783
   165  H   -0.036549
   166  H    0.029223
   167  N   -0.138038
   168  C    0.134414
   169  H    0.019569
   170  H    0.037957
   171  H    0.025384
   172  H    0.114276
   173  Ca   1.330199
   174  O   -0.280186
   175  H    0.184588
   176  H    0.168731
 Sum of Mulliken charges =  -0.00000

 Dipole moment (field-independent basis, Debye):
    X=             17.9159    Y=            -12.2063    Z=            -11.2132  Tot=             24.4071
 Quadrupole moment (field-independent basis, Debye-Ang):
   XX=           -164.3703   YY=           -645.1103   ZZ=           -499.8774
   XY=           -347.7726   XZ=             86.4505   YZ=            -48.3474

 ESP charges:
               1
     1  C   -0.532013
     2  C    0.808030
     3  O   -0.592706
     4  H    0.126982
     5  H    0.093994
     6  H    0.171609
     7  N   -0.633955
     8  C    0.410044
     9  C    0.488255
    10  O   -0.455195
    11  C   -0.425258
    12  C    0.710071
    13  O   -0.629583
    14  O   -0.655906
    15  H    0.314697
    16  H   -0.036126
    17  H    0.090108
    18  H    0.118798
    19  N   -0.662422
    20  C    0.272800
    21  C    0.522376
    22  O   -0.575376
    23  C   -0.439018
    24  C    0.449778
    25  C   -0.372676
    26  C    0.161527
    27  N   -0.309292
    28  H    0.236421
    29  H    0.068239
    30  H    0.092226
    31  H    0.135813
    32  H   -0.083231
    33  H   -0.055852
    34  H    0.127956
    35  H    0.102825
    36  H    0.063296
    37  H    0.055783
    38  H    0.231952
    39  H    0.248927
    40  H    0.267540
    41  N   -0.395723
    42  C    0.187511
    43  C    0.382180
    44  O   -0.426222
    45  C   -0.425221
    46  C    0.916580
    47  O   -0.716799
    48  O   -0.835004
    49  H    0.279252
    50  H    0.064632
    51  H    0.090544
    52  H    0.127765
    53  N   -0.301220
    54  C   -0.105161
    55  C    0.729932
    56  O   -0.662090
    57  H    0.258430
    58  H    0.065419
    59  H    0.130616
    60  N   -0.785959
    61  C    0.625001
    62  C    0.234932
    63  O   -0.387094
    64  C   -0.292318
    65  C    0.726365
    66  N   -0.728596
    67  O   -0.565645
    68  H    0.344490
    69  H   -0.058417
    70  H    0.037800
    71  H    0.060240
    72  H    0.313000
    73  H    0.380949
    74  N   -0.354019
    75  C    0.005790
    76  C    0.568815
    77  O   -0.494519
    78  H    0.251877
    79  H    0.033506
    80  H    0.096249
    81  N   -0.634515
    82  C    0.123116
    83  C    0.495369
    84  O   -0.523861
    85  C   -0.224308
    86  C    0.086865
    87  C   -0.171412
    88  C   -0.070223
    89  C   -0.252975
    90  C   -0.393592
    91  C    0.408892
    92  O   -0.568385
    93  H    0.337449
    94  H    0.077912
    95  H    0.139139
    96  H    0.079315
    97  H    0.151795
    98  H    0.120293
    99  H    0.158828
   100  H    0.165697
   101  H    0.416727
   102  N   -0.536679
   103  C    0.039061
   104  C    0.566107
   105  O   -0.548855
   106  C    0.245861
   107  C    0.313479
   108  C   -0.408290
   109  C   -0.463211
   110  H    0.303147
   111  H   -0.002032
   112  H   -0.009526
   113  H   -0.016308
   114  H   -0.025389
   115  H    0.097459
   116  H    0.093036
   117  H    0.060157
   118  H    0.083854
   119  H    0.107729
   120  H    0.103805
   121  N   -0.271005
   122  C   -0.304158
   123  C    0.547097
   124  O   -0.540509
   125  C    0.368503
   126  O   -0.590069
   127  H    0.249525
   128  H    0.125104
   129  H    0.022029
   130  H   -0.001662
   131  H    0.362421
   132  N   -0.448024
   133  C    0.340010
   134  C    0.530788
   135  O   -0.546072
   136  C   -0.333966
   137  H    0.258682
   138  H    0.008437
   139  H    0.106663
   140  H    0.074045
   141  H    0.068583
   142  N   -0.667451
   143  C    0.696349
   144  C    0.457673
   145  O   -0.497180
   146  C   -0.433856
   147  H    0.253141
   148  H   -0.084572
   149  H    0.058176
   150  H    0.135599
   151  H    0.116162
   152  N   -0.642636
   153  C    0.116678
   154  C    0.363001
   155  O   -0.483665
   156  C    0.251231
   157  C   -0.264580
   158  C    0.799233
   159  O   -0.765572
   160  O   -0.798138
   161  H    0.299232
   162  H    0.049515
   163  H   -0.005623
   164  H   -0.041631
   165  H    0.038045
   166  H    0.075063
   167  N   -0.218178
   168  C   -0.110250
   169  H    0.051593
   170  H    0.100858
   171  H    0.088229
   172  H    0.193234
   173  Ca   1.621479
   174  O   -0.840707
   175  H    0.445483
   176  H    0.402801
 Sum of ESP charges =  -0.00000

 Normal termination of Gaussian 16 at Tue Sep 17 10:19:58 2019.
