 Gaussian 16, Revision A.03,
 Gaussian 16:  ES64L-G16RevA.03 25-Dec-2016

 ----------------------------------------------------------------------
 #b3lyp/svp scf=(tight,noincore) Test #IOP(5/87=12) Density=Current Pop
 =(MK,readradii) iop(6/33=2) iop(6/42=6)
 ----------------------------------------------------------------------

 -----------------
 Ng-293_loop3_83.0
 -----------------
 Symbolic Z-matrix:
 Charge =  0 Multiplicity = 1

                         Standard orientation:
 ---------------------------------------------------------------------
 Center     Atomic      Atomic             Coordinates (Angstroms)
 Number     Number       Type             X           Y           Z
 ---------------------------------------------------------------------
      1          6           0       -0.164929    5.499955    5.739623
      2          6           0       -0.442109    4.917744    4.361834
      3          8           0        0.420111    4.765665    3.491346
      4          1           0        0.776564    6.048756    5.719292
      5          1           0       -0.972509    6.176601    6.018667
      6          1           0       -0.098404    4.693187    6.468791
      7          7           0       -1.704376    4.532882    4.173522
      8          6           0       -2.392045    3.961622    3.038589
      9          6           0       -2.441911    4.742098    1.738985
     10          8           0       -3.537477    4.984181    1.229346
     11          6           0       -2.020689    2.476654    2.978879
     12          6           0       -3.130921    1.637268    2.373803
     13          8           0       -4.225960    1.541710    2.957461
     14          8           0       -2.936393    1.131804    1.238917
     15          1           0       -2.280168    4.905638    4.914547
     16          1           0       -3.412924    3.914480    3.406942
     17          1           0       -1.824509    2.029590    3.952402
     18          1           0       -1.043787    2.359666    2.499948
     19          7           0       -1.279033    5.228970    1.292698
     20          6           0       -1.060795    6.306768    0.342264
     21          6           0       -1.111748    5.914952   -1.119613
     22          8           0       -0.861896    6.773988   -1.971336
     23          6           0       -0.067299    7.345072    0.861292
     24          6           0        1.365893    6.845758    0.765671
     25          6           0        2.313546    7.737070    1.575373
     26          6           0        3.558764    6.888410    1.832488
     27          7           0        4.420025    6.708386    0.651166
     28          1           0       -0.472578    4.781051    1.700126
     29          1           0       -2.002924    6.846952    0.351945
     30          1           0       -0.321510    7.412160    1.910947
     31          1           0       -0.180513    8.302587    0.345106
     32          1           0        1.728373    6.810356   -0.264647
     33          1           0        1.302482    5.873339    1.255753
     34          1           0        1.835851    7.873484    2.542274
     35          1           0        2.584960    8.710964    1.174918
     36          1           0        3.366022    5.946318    2.329894
     37          1           0        4.135936    7.564605    2.452271
     38          1           0        4.024258    6.089459   -0.033522
     39          1           0        4.607961    7.597861    0.204831
     40          1           0        5.260630    6.237340    0.951828
     41          7           0       -1.674861    4.755204   -1.455004
     42          6           0       -2.601372    4.646046   -2.563183
     43          6           0       -3.846306    3.953772   -2.019036
     44          8           0       -3.830937    3.351777   -0.948024
     45          6           0       -1.909343    3.897501   -3.696089
     46          6           0       -0.982342    2.713416   -3.450303
     47          8           0       -1.248061    1.807259   -2.629040
     48          8           0        0.011243    2.593325   -4.208898
     49          1           0       -1.848983    4.146859   -0.672701
     50          1           0       -2.977309    5.557518   -3.022301
     51          1           0       -1.362192    4.654857   -4.256480
     52          1           0       -2.616110    3.446712   -4.383673
     53          7           0       -4.910346    3.928399   -2.830624
     54          6           0       -6.142326    3.223745   -2.566260
     55          6           0       -5.873609    1.727421   -2.725651
     56          8           0       -6.143221    1.213745   -3.803031
     57          1           0       -4.896159    4.536673   -3.637842
     58          1           0       -6.988465    3.399929   -3.231924
     59          1           0       -6.480224    3.421999   -1.557737
     60          7           0       -5.425035    1.005822   -1.701846
     61          6           0       -4.917355   -0.350957   -1.741973
     62          6           0       -5.307972   -1.265192   -0.580511
     63          8           0       -5.893942   -2.332967   -0.649035
     64          6           0       -3.442186   -0.195504   -2.100877
     65          6           0       -2.719778   -1.494822   -2.423829
     66          7           0       -3.407416   -2.571627   -2.802968
     67          8           0       -1.493277   -1.589289   -2.397890
     68          1           0       -5.339281    1.542444   -0.853092
     69          1           0       -5.370117   -0.880402   -2.574797
     70          1           0       -2.842200    0.395115   -1.406554
     71          1           0       -3.383794    0.353632   -3.043183
     72          1           0       -4.403388   -2.665076   -2.963609
     73          1           0       -2.829316   -3.338887   -3.112181
     74          7           0       -4.854761   -0.859057    0.606988
     75          6           0       -4.964576   -1.563977    1.859756
     76          6           0       -3.890170   -2.633051    1.965740
     77          8           0       -3.147151   -2.663983    2.939735
     78          1           0       -4.455060    0.069360    0.571189
     79          1           0       -5.966269   -1.971539    1.997612
     80          1           0       -4.807468   -0.708786    2.526514
     81          7           0       -3.662281   -3.389808    0.890340
     82          6           0       -2.612446   -4.358710    0.680157
     83          6           0       -1.180455   -3.823676    0.649512
     84          8           0       -0.216848   -4.577370    0.647057
     85          6           0       -2.792029   -5.485215    1.695654
     86          6           0       -4.209128   -5.984423    1.827268
     87          6           0       -4.775152   -6.669940    0.746627
     88          6           0       -5.017729   -5.543759    2.886551
     89          6           0       -6.153428   -6.902280    0.704532
     90          6           0       -6.401509   -5.763099    2.843625
     91          6           0       -6.971261   -6.457894    1.762866
     92          8           0       -8.310806   -6.717151    1.765215
     93          1           0       -4.428667   -3.418157    0.227054
     94          1           0       -2.789322   -4.781436   -0.310458
     95          1           0       -2.465506   -5.100750    2.660936
     96          1           0       -2.236607   -6.395309    1.468199
     97          1           0       -4.189926   -6.991297   -0.095240
     98          1           0       -4.543802   -5.044283    3.712030
     99          1           0       -6.623882   -7.468106   -0.098908
    100          1           0       -6.936817   -5.440824    3.730296
    101          1           0       -8.718024   -6.250385    2.499520
    102          7           0       -1.042921   -2.498834    0.609768
    103          6           0        0.146910   -1.671441    0.499218
    104          6           0        1.240762   -1.957844   -0.517227
    105          8           0        1.425781   -1.136838   -1.414231
    106          6           0        0.702635   -1.287280    1.867571
    107          6           0        1.721520   -0.154281    1.773828
    108          6           0        1.340153   -2.479580    2.578902
    109          6           0        1.899503    0.619646    3.077422
    110          1           0       -1.878933   -2.004675    0.881596
    111          1           0       -0.303965   -0.773526    0.083695
    112          1           0       -0.130924   -0.873335    2.432928
    113          1           0        1.376362    0.543815    1.021413
    114          1           0        2.712245   -0.549489    1.544101
    115          1           0        0.677241   -3.315365    2.798928
    116          1           0        2.228387   -2.851529    2.067831
    117          1           0        1.676834   -2.099081    3.535179
    118          1           0        2.111654   -0.036895    3.916913
    119          1           0        2.711785    1.340259    2.954474
    120          1           0        1.021313    1.217325    3.322701
    121          7           0        2.047147   -2.995872   -0.316371
    122          6           0        2.981224   -3.509470   -1.301924
    123          6           0        4.190494   -4.314010   -0.838264
    124          8           0        4.869029   -4.932007   -1.644099
    125          6           0        2.176751   -4.174311   -2.405242
    126          8           0        1.577374   -5.351487   -1.929843
    127          1           0        1.623899   -3.748762    0.215247
    128          1           0        3.415014   -2.642622   -1.805214
    129          1           0        2.913658   -4.471612   -3.153226
    130          1           0        1.534877   -3.446580   -2.894634
    131          1           0        2.156369   -5.797048   -1.302515
    132          7           0        4.361886   -4.410730    0.486036
    133          6           0        5.612454   -4.738689    1.152836
    134          6           0        6.839952   -4.007169    0.616152
    135          8           0        7.543717   -3.612056    1.535881
    136          6           0        5.796029   -6.247175    1.247026
    137          1           0        3.783382   -3.753713    0.998834
    138          1           0        5.424768   -4.406936    2.172058
    139          1           0        4.931598   -6.788532    1.631981
    140          1           0        5.813368   -6.650660    0.233813
    141          1           0        6.795667   -6.427979    1.665876
    142          7           0        7.030833   -3.668777   -0.650242
    143          6           0        7.483594   -2.378446   -1.152091
    144          6           0        6.620809   -1.296077   -0.525449
    145          8           0        5.461652   -1.502964   -0.176087
    146          6           0        7.358799   -2.459519   -2.678673
    147          1           0        6.511341   -4.238334   -1.307458
    148          1           0        8.517350   -2.312955   -0.836560
    149          1           0        6.302469   -2.635798   -2.893129
    150          1           0        7.791664   -1.592427   -3.172008
    151          1           0        7.917200   -3.315222   -3.037783
    152          7           0        7.224752   -0.106041   -0.468295
    153          6           0        6.656447    1.117898    0.061708
    154          6           0        6.169512    1.003978    1.506047
    155          8           0        5.700274    1.993903    2.050992
    156          6           0        5.687234    1.800029   -0.899033
    157          6           0        4.336397    1.183284   -1.240594
    158          6           0        3.522640    1.901320   -2.308313
    159          8           0        4.052141    2.615898   -3.180727
    160          8           0        2.301422    1.646705   -2.174522
    161          1           0        8.131908   -0.066045   -0.917370
    162          1           0        7.498178    1.803779    0.042810
    163          1           0        6.301844    1.973816   -1.770384
    164          1           0        5.445484    2.797850   -0.534052
    165          1           0        3.779444    1.114851   -0.306185
    166          1           0        4.504934    0.138089   -1.500714
    167          7           0        6.329334   -0.104428    2.241230
    168          6           0        5.942696   -0.365440    3.608082
    169          1           0        4.906104   -0.061765    3.756420
    170          1           0        6.041833   -1.430824    3.817184
    171          1           0        6.586237    0.199303    4.282978
    172          1           0        6.643005   -0.891595    1.686903
    173         20           0        0.578963    0.146811   -3.523578
    174          8           0        0.112135   -2.130082   -4.646444
    175          1           0       -0.832656   -2.107504   -4.533922
    176          1           0        0.332779   -3.059494   -4.643355
 ---------------------------------------------------------------------

 SCF Done:  E(RB3LYP) =  -5333.44445331     A.U. after   20 cycles

 The electronic state is 1-A.
 Alpha  occ. eigenvalues -- -145.40793 -19.21187 -19.14607 -19.13123 -19.12359
 Alpha  occ. eigenvalues --  -19.12022 -19.11898 -19.11833 -19.10388 -19.10054
 Alpha  occ. eigenvalues --  -19.08728 -19.08281 -19.07969 -19.07768 -19.07231
 Alpha  occ. eigenvalues --  -19.07217 -19.06865 -19.06861 -19.04577 -19.04161
 Alpha  occ. eigenvalues --  -19.00952 -19.00572 -18.99384 -18.98977 -15.46628
 Alpha  occ. eigenvalues --  -14.55873 -14.37665 -14.36917 -14.36860 -14.35840
 Alpha  occ. eigenvalues --  -14.35116 -14.34757 -14.34381 -14.34185 -14.33624
 Alpha  occ. eigenvalues --  -14.33311 -14.33044 -14.32588 -14.31847 -14.30851
 Alpha  occ. eigenvalues --  -12.60237 -12.60217 -12.60149 -10.32332 -10.30742
 Alpha  occ. eigenvalues --  -10.30331 -10.30068 -10.29735 -10.28911 -10.28605
 Alpha  occ. eigenvalues --  -10.27508 -10.27071 -10.26210 -10.26093 -10.26074
 Alpha  occ. eigenvalues --  -10.25838 -10.25783 -10.25640 -10.25462 -10.25059
 Alpha  occ. eigenvalues --  -10.24159 -10.24083 -10.23974 -10.23867 -10.23832
 Alpha  occ. eigenvalues --  -10.23462 -10.22586 -10.22261 -10.22212 -10.22171
 Alpha  occ. eigenvalues --  -10.21744 -10.21663 -10.21643 -10.21408 -10.20914
 Alpha  occ. eigenvalues --  -10.20562 -10.20523 -10.20498 -10.20449 -10.18857
 Alpha  occ. eigenvalues --  -10.18755 -10.18393 -10.18005 -10.17411 -10.17259
 Alpha  occ. eigenvalues --  -10.17257 -10.17166 -10.16969 -10.16801 -10.16542
 Alpha  occ. eigenvalues --  -10.16365 -10.15909 -10.15861 -10.15336 -10.15165
 Alpha  occ. eigenvalues --  -10.13696 -10.12963  -1.83356  -1.11234  -1.10840
 Alpha  occ. eigenvalues --   -1.10761  -1.10459  -1.07243  -1.06053  -1.05128
 Alpha  occ. eigenvalues --   -1.04831  -1.04340  -1.03338  -1.03111  -1.02915
 Alpha  occ. eigenvalues --   -1.01933  -1.01749  -1.01640  -1.01618  -1.01399
 Alpha  occ. eigenvalues --   -1.00514  -1.00019  -0.99909  -0.99491  -0.99250
 Alpha  occ. eigenvalues --   -0.94890  -0.94683  -0.94480  -0.93804  -0.92971
 Alpha  occ. eigenvalues --   -0.92695  -0.92151  -0.91524  -0.91223  -0.90984
 Alpha  occ. eigenvalues --   -0.90845  -0.90450  -0.90196  -0.89759  -0.89172
 Alpha  occ. eigenvalues --   -0.88545  -0.88012  -0.87094  -0.85871  -0.83632
 Alpha  occ. eigenvalues --   -0.82960  -0.80506  -0.80492  -0.80061  -0.78576
 Alpha  occ. eigenvalues --   -0.77816  -0.77361  -0.76895  -0.76588  -0.76142
 Alpha  occ. eigenvalues --   -0.75972  -0.74461  -0.72837  -0.72597  -0.71963
 Alpha  occ. eigenvalues --   -0.71736  -0.71609  -0.71301  -0.71180  -0.69640
 Alpha  occ. eigenvalues --   -0.69375  -0.69130  -0.68877  -0.67730  -0.67602
 Alpha  occ. eigenvalues --   -0.66785  -0.66196  -0.64730  -0.64597  -0.63853
 Alpha  occ. eigenvalues --   -0.63650  -0.62106  -0.61962  -0.61432  -0.60969
 Alpha  occ. eigenvalues --   -0.60916  -0.60596  -0.60091  -0.59910  -0.59676
 Alpha  occ. eigenvalues --   -0.59174  -0.59017  -0.58491  -0.58333  -0.57881
 Alpha  occ. eigenvalues --   -0.57834  -0.56631  -0.56453  -0.56090  -0.55987
 Alpha  occ. eigenvalues --   -0.55472  -0.55222  -0.55212  -0.55060  -0.54795
 Alpha  occ. eigenvalues --   -0.54615  -0.54200  -0.53314  -0.53220  -0.53130
 Alpha  occ. eigenvalues --   -0.53065  -0.52659  -0.52296  -0.51574  -0.51284
 Alpha  occ. eigenvalues --   -0.51255  -0.50694  -0.49879  -0.49673  -0.49606
 Alpha  occ. eigenvalues --   -0.49219  -0.49109  -0.48223  -0.48111  -0.48021
 Alpha  occ. eigenvalues --   -0.47766  -0.47658  -0.47596  -0.47417  -0.47005
 Alpha  occ. eigenvalues --   -0.46833  -0.46649  -0.46502  -0.46233  -0.46103
 Alpha  occ. eigenvalues --   -0.46041  -0.46010  -0.45478  -0.45441  -0.45248
 Alpha  occ. eigenvalues --   -0.45195  -0.44806  -0.44748  -0.44590  -0.44375
 Alpha  occ. eigenvalues --   -0.44223  -0.44038  -0.43981  -0.43773  -0.43533
 Alpha  occ. eigenvalues --   -0.43480  -0.43325  -0.43151  -0.42954  -0.42751
 Alpha  occ. eigenvalues --   -0.42687  -0.42341  -0.42130  -0.41780  -0.41723
 Alpha  occ. eigenvalues --   -0.41626  -0.41601  -0.41354  -0.41145  -0.41022
 Alpha  occ. eigenvalues --   -0.40989  -0.40751  -0.40573  -0.40384  -0.40062
 Alpha  occ. eigenvalues --   -0.39970  -0.39930  -0.39870  -0.39803  -0.39692
 Alpha  occ. eigenvalues --   -0.39486  -0.39446  -0.39205  -0.39072  -0.38973
 Alpha  occ. eigenvalues --   -0.38878  -0.38852  -0.38673  -0.38582  -0.38502
 Alpha  occ. eigenvalues --   -0.38396  -0.38310  -0.38097  -0.37887  -0.37464
 Alpha  occ. eigenvalues --   -0.37379  -0.37296  -0.37191  -0.37137  -0.36881
 Alpha  occ. eigenvalues --   -0.36725  -0.36602  -0.36513  -0.36319  -0.36134
 Alpha  occ. eigenvalues --   -0.35869  -0.35680  -0.35589  -0.35538  -0.35139
 Alpha  occ. eigenvalues --   -0.34865  -0.34643  -0.34533  -0.34476  -0.34154
 Alpha  occ. eigenvalues --   -0.34093  -0.33998  -0.33924  -0.33544  -0.33297
 Alpha  occ. eigenvalues --   -0.33164  -0.33047  -0.32737  -0.32376  -0.32193
 Alpha  occ. eigenvalues --   -0.31765  -0.31372  -0.30994  -0.30706  -0.30465
 Alpha  occ. eigenvalues --   -0.30241  -0.29755  -0.29552  -0.29465  -0.29280
 Alpha  occ. eigenvalues --   -0.29128  -0.28626  -0.28368  -0.28131  -0.27521
 Alpha  occ. eigenvalues --   -0.27390  -0.26805  -0.26576  -0.26552  -0.26136
 Alpha  occ. eigenvalues --   -0.26099  -0.25656  -0.25490  -0.25078  -0.24801
 Alpha  occ. eigenvalues --   -0.24538  -0.24527  -0.24251  -0.24110  -0.24097
 Alpha  occ. eigenvalues --   -0.24007  -0.23764  -0.23474  -0.22846  -0.22597
 Alpha  occ. eigenvalues --   -0.22127  -0.21999  -0.21818  -0.21610  -0.21083
 Alpha  occ. eigenvalues --   -0.20332  -0.19931  -0.19041  -0.17461  -0.17264
 Alpha  occ. eigenvalues --   -0.16627  -0.16554  -0.14550
 Alpha virt. eigenvalues --   -0.07812  -0.04275  -0.02223  -0.01953  -0.00804
 Alpha virt. eigenvalues --   -0.00678  -0.00188   0.00014   0.00719   0.00927
 Alpha virt. eigenvalues --    0.01007   0.01269   0.01580   0.01650   0.01816

 Mulliken charges:
               1
     1  C    0.042874
     2  C    0.027142
     3  O   -0.334833
     4  H    0.012226
     5  H    0.022091
     6  H    0.056199
     7  N   -0.107727
     8  C    0.067263
     9  C    0.093671
    10  O   -0.244249
    11  C    0.121578
    12  C    0.087409
    13  O   -0.381638
    14  O   -0.411092
    15  H    0.113591
    16  H    0.006863
    17  H   -0.016339
    18  H   -0.008762
    19  N   -0.189710
    20  C    0.114144
    21  C    0.050766
    22  O   -0.303704
    23  C    0.097496
    24  C   -0.047407
    25  C   -0.002186
    26  C    0.020448
    27  N    0.070655
    28  H    0.146659
    29  H    0.025024
    30  H   -0.001589
    31  H    0.011813
    32  H    0.019435
    33  H    0.027583
    34  H    0.038114
    35  H    0.018944
    36  H    0.111106
    37  H    0.039783
    38  H    0.202678
    39  H    0.188857
    40  H    0.200717
    41  N   -0.075655
    42  C    0.131543
    43  C    0.064221
    44  O   -0.243966
    45  C    0.115320
    46  C    0.097437
    47  O   -0.421103
    48  O   -0.424747
    49  H    0.155248
    50  H   -0.003550
    51  H    0.017553
    52  H   -0.010596
    53  N   -0.142587
    54  C    0.226897
    55  C   -0.003652
    56  O   -0.301335
    57  H    0.117990
    58  H    0.025225
    59  H    0.016666
    60  N   -0.113009
    61  C    0.128112
    62  C    0.035194
    63  O   -0.297208
    64  C    0.118945
    65  C   -0.028740
    66  N   -0.040110
    67  O   -0.342214
    68  H    0.150667
    69  H   -0.019629
    70  H    0.094369
    71  H    0.028685
    72  H    0.137032
    73  H    0.109922
    74  N   -0.159477
    75  C    0.263902
    76  C    0.002411
    77  O   -0.280114
    78  H    0.131033
    79  H    0.017116
    80  H    0.040799
    81  N   -0.159648
    82  C    0.120203
    83  C    0.082415
    84  O   -0.307116
    85  C    0.154553
    86  C   -0.055613
    87  C   -0.018312
    88  C    0.014770
    89  C   -0.024884
    90  C   -0.061044
    91  C    0.187506
    92  O   -0.196905
    93  H    0.139779
    94  H   -0.001841
    95  H   -0.000454
    96  H    0.000752
    97  H   -0.041206
    98  H   -0.017404
    99  H   -0.028612
   100  H   -0.038684
   101  H    0.172195
   102  N   -0.100944
   103  C    0.161535
   104  C    0.138861
   105  O   -0.361238
   106  C   -0.082167
   107  C   -0.015201
   108  C    0.094232
   109  C    0.021076
   110  H    0.151528
   111  H    0.025769
   112  H    0.011444
   113  H    0.033842
   114  H    0.006981
   115  H    0.031688
   116  H   -0.053995
   117  H   -0.017908
   118  H   -0.005876
   119  H    0.013688
   120  H    0.003436
   121  N   -0.136158
   122  C    0.039749
   123  C    0.056275
   124  O   -0.300651
   125  C    0.267321
   126  O   -0.304142
   127  H    0.142492
   128  H    0.029389
   129  H   -0.011433
   130  H   -0.044963
   131  H    0.173515
   132  N   -0.112090
   133  C    0.061412
   134  C    0.060901
   135  O   -0.288760
   136  C    0.065642
   137  H    0.151081
   138  H    0.015103
   139  H    0.015402
   140  H    0.007251
   141  H    0.031440
   142  N   -0.116867
   143  C    0.066896
   144  C    0.066625
   145  O   -0.287444
   146  C    0.073168
   147  H    0.133633
   148  H    0.004523
   149  H    0.029283
   150  H    0.019328
   151  H    0.031559
   152  N   -0.130123
   153  C    0.126409
   154  C    0.051113
   155  O   -0.313526
   156  C    0.076735
   157  C    0.041751
   158  C    0.075927
   159  O   -0.361231
   160  O   -0.444328
   161  H    0.122215
   162  H   -0.006056
   163  H   -0.034234
   164  H   -0.054231
   165  H   -0.000477
   166  H   -0.006466
   167  N   -0.128616
   168  C    0.136383
   169  H    0.032214
   170  H    0.027058
   171  H    0.017927
   172  H    0.113414
   173  Ca   1.357029
   174  O   -0.308160
   175  H    0.181523
   176  H    0.206580
 Sum of Mulliken charges =  -0.00000

 Dipole moment (field-independent basis, Debye):
    X=             18.2367    Y=             12.2031    Z=              0.0898  Tot=             21.9431
 Quadrupole moment (field-independent basis, Debye-Ang):
   XX=           -527.3551   YY=           -431.3289   ZZ=           -535.7429
   XY=             77.7458   XZ=             18.5229   YZ=             80.0436

 ESP charges:
               1
     1  C   -0.421691
     2  C    0.689714
     3  O   -0.579145
     4  H    0.107313
     5  H    0.095736
     6  H    0.135330
     7  N   -0.603976
     8  C    0.237238
     9  C    0.421837
    10  O   -0.526327
    11  C   -0.238038
    12  C    0.714037
    13  O   -0.676437
    14  O   -0.745195
    15  H    0.317655
    16  H    0.059251
    17  H    0.064670
    18  H    0.059065
    19  N   -0.345982
    20  C    0.023397
    21  C    0.474502
    22  O   -0.546954
    23  C   -0.205881
    24  C    0.031661
    25  C   -0.120264
    26  C    0.087049
    27  N   -0.334385
    28  H    0.273725
    29  H    0.125255
    30  H    0.074747
    31  H    0.075978
    32  H    0.031670
    33  H    0.037927
    34  H    0.068232
    35  H    0.072113
    36  H    0.082117
    37  H    0.036953
    38  H    0.335388
    39  H    0.321458
    40  H    0.315480
    41  N   -0.374417
    42  C    0.260769
    43  C    0.243809
    44  O   -0.254900
    45  C   -0.132922
    46  C    0.783913
    47  O   -0.772008
    48  O   -0.779339
    49  H    0.210002
    50  H    0.004533
    51  H    0.059947
    52  H   -0.017221
    53  N   -0.271201
    54  C   -0.207129
    55  C    0.666325
    56  O   -0.586519
    57  H    0.266285
    58  H    0.120178
    59  H    0.097005
    60  N   -0.511387
    61  C    0.082236
    62  C    0.523632
    63  O   -0.595570
    64  C   -0.377971
    65  C    0.564574
    66  N   -0.678546
    67  O   -0.650441
    68  H    0.249277
    69  H    0.076520
    70  H    0.197333
    71  H    0.185181
    72  H    0.339657
    73  H    0.336560
    74  N   -0.255051
    75  C   -0.227806
    76  C    0.608798
    77  O   -0.565842
    78  H    0.300277
    79  H    0.121537
    80  H    0.125742
    81  N   -0.406258
    82  C    0.095883
    83  C    0.534018
    84  O   -0.595395
    85  C   -0.194163
    86  C    0.017249
    87  C   -0.137450
    88  C   -0.095009
    89  C   -0.283100
    90  C   -0.385661
    91  C    0.449194
    92  O   -0.561764
    93  H    0.281917
    94  H    0.055699
    95  H    0.090412
    96  H    0.073550
    97  H    0.131269
    98  H    0.148773
    99  H    0.156219
   100  H    0.156074
   101  H    0.405018
   102  N   -0.294438
   103  C   -0.455550
   104  C    1.010040
   105  O   -0.763137
   106  C    0.172495
   107  C    0.255223
   108  C   -0.347827
   109  C   -0.323351
   110  H    0.315559
   111  H    0.159030
   112  H    0.054712
   113  H   -0.036034
   114  H   -0.010222
   115  H    0.119450
   116  H    0.051961
   117  H    0.063282
   118  H    0.058063
   119  H    0.079247
   120  H    0.071284
   121  N   -0.499276
   122  C   -0.556363
   123  C    0.672952
   124  O   -0.528020
   125  C    0.459296
   126  O   -0.661103
   127  H    0.361098
   128  H    0.222579
   129  H   -0.052825
   130  H    0.025056
   131  H    0.436100
   132  N   -0.400752
   133  C    0.123169
   134  C    0.615896
   135  O   -0.555701
   136  C   -0.443203
   137  H    0.259815
   138  H    0.099119
   139  H    0.135491
   140  H    0.116522
   141  H    0.121694
   142  N   -0.547538
   143  C    0.286821
   144  C    0.551386
   145  O   -0.457165
   146  C   -0.302722
   147  H    0.264070
   148  H   -0.009456
   149  H    0.085336
   150  H    0.076768
   151  H    0.109987
   152  N   -0.567809
   153  C    0.073621
   154  C    0.291981
   155  O   -0.508249
   156  C    0.062108
   157  C   -0.103685
   158  C    0.683116
   159  O   -0.683573
   160  O   -0.731257
   161  H    0.320968
   162  H    0.084593
   163  H   -0.007759
   164  H   -0.037635
   165  H    0.057719
   166  H   -0.013084
   167  N   -0.091883
   168  C   -0.063302
   169  H    0.050783
   170  H    0.067489
   171  H    0.054607
   172  H    0.085763
   173  Ca   1.632773
   174  O   -0.799822
   175  H    0.405484
   176  H    0.420716
 Sum of ESP charges =   0.00000

 Normal termination of Gaussian 16 at Tue Sep 17 23:51:03 2019.
