 Gaussian 16, Revision A.03,
 Gaussian 16:  ES64L-G16RevA.03 25-Dec-2016

 ----------------------------------------------------------------------
 #b3lyp/svp scf=(tight,noincore) Test #IOP(5/87=12) Density=Current Pop
 =(MK,readradii) iop(6/33=2) iop(6/42=6)
 ----------------------------------------------------------------------

 ----------------
 Ng-295_loop3_4.0
 ----------------
 Symbolic Z-matrix:
 Charge =  0 Multiplicity = 1

                         Standard orientation:
 ---------------------------------------------------------------------
 Center     Atomic      Atomic             Coordinates (Angstroms)
 Number     Number       Type             X           Y           Z
 ---------------------------------------------------------------------
      1          6           0        5.728510   -4.548661    5.856020
      2          6           0        4.924883   -3.865565    4.765532
      3          8           0        3.885133   -3.315372    5.128860
      4          1           0        5.065927   -5.165799    6.462615
      5          1           0        6.495783   -5.176765    5.403070
      6          1           0        6.200401   -3.794964    6.486328
      7          7           0        5.305765   -3.904983    3.487926
      8          6           0        4.467337   -3.367925    2.426791
      9          6           0        4.806064   -4.084550    1.126517
     10          8           0        5.967473   -4.460482    0.990856
     11          6           0        4.779938   -1.894455    2.244954
     12          6           0        3.965553   -1.256100    1.130332
     13          8           0        2.994626   -0.520981    1.439202
     14          8           0        4.279391   -1.409315   -0.063876
     15          1           0        6.125165   -4.443107    3.270884
     16          1           0        3.423444   -3.451234    2.723349
     17          1           0        5.821873   -1.860592    1.924917
     18          1           0        4.690781   -1.354993    3.194760
     19          7           0        3.809376   -4.264148    0.250471
     20          6           0        3.880833   -5.005644   -0.996437
     21          6           0        4.699437   -4.442110   -2.145009
     22          8           0        5.063070   -5.203123   -3.030181
     23          6           0        2.459730   -5.287071   -1.482095
     24          6           0        1.988048   -6.506974   -0.700844
     25          6           0        0.685126   -6.989523   -1.317966
     26          6           0       -0.057618   -7.806374   -0.259814
     27          7           0       -1.265378   -8.386446   -0.871152
     28          1           0        2.873742   -4.078785    0.564204
     29          1           0        4.414416   -5.942512   -0.848221
     30          1           0        2.404332   -5.434975   -2.563000
     31          1           0        1.839077   -4.394013   -1.385976
     32          1           0        1.794909   -6.255111    0.343696
     33          1           0        2.753341   -7.282334   -0.673567
     34          1           0        0.968665   -7.599782   -2.181731
     35          1           0        0.060057   -6.167491   -1.672442
     36          1           0       -0.267807   -7.071419    0.514113
     37          1           0        0.647892   -8.534567    0.145882
     38          1           0       -1.963618   -7.710792   -1.141251
     39          1           0       -0.946714   -8.921448   -1.666342
     40          1           0       -1.819953   -8.979386   -0.274689
     41          7           0        4.993981   -3.137163   -2.225982
     42          6           0        5.862565   -2.450874   -3.164475
     43          6           0        7.068116   -1.878944   -2.429327
     44          8           0        7.978639   -1.347870   -3.061472
     45          6           0        5.125657   -1.518602   -4.125118
     46          6           0        3.997689   -0.788047   -3.418734
     47          8           0        4.112259    0.298502   -2.803279
     48          8           0        2.896884   -1.374763   -3.377602
     49          1           0        4.468858   -2.543755   -1.596210
     50          1           0        6.291327   -3.278881   -3.726584
     51          1           0        4.660502   -2.153576   -4.878669
     52          1           0        5.856403   -0.827927   -4.554513
     53          7           0        7.023412   -1.947163   -1.097881
     54          6           0        7.970921   -1.403198   -0.150290
     55          6           0        7.840111    0.104279    0.067661
     56          8           0        8.658717    0.767443    0.702561
     57          1           0        6.138921   -2.225625   -0.680468
     58          1           0        8.939015   -1.689523   -0.556507
     59          1           0        8.012339   -1.801032    0.862978
     60          7           0        6.735839    0.646651   -0.437328
     61          6           0        6.383970    2.039423   -0.210670
     62          6           0        5.026054    2.225175    0.435596
     63          8           0        3.997952    1.840120   -0.120137
     64          6           0        6.460146    2.646032   -1.609534
     65          6           0        6.563653    4.158302   -1.604358
     66          7           0        5.500132    4.826524   -2.058344
     67          8           0        7.580774    4.716242   -1.186067
     68          1           0        6.070849    0.149250   -1.029511
     69          1           0        7.198057    2.549314    0.300186
     70          1           0        5.529229    2.406783   -2.118408
     71          1           0        7.321612    2.285715   -2.183249
     72          1           0        4.810210    4.187334   -2.417989
     73          1           0        5.429942    5.835631   -2.111969
     74          7           0        4.979755    2.816381    1.639146
     75          6           0        3.973814    2.563184    2.648092
     76          6           0        2.513672    2.989040    2.575748
     77          8           0        1.767659    2.832876    3.537557
     78          1           0        5.814869    3.145809    2.098125
     79          1           0        4.242145    2.865256    3.654895
     80          1           0        3.814676    1.518079    2.928682
     81          7           0        2.125099    3.592941    1.447070
     82          6           0        0.714771    3.810680    1.195544
     83          6           0       -0.075308    2.547982    0.909419
     84          8           0        0.450471    1.599507    0.316079
     85          6           0        0.420057    4.878287    0.151532
     86          6           0        0.992951    6.246664    0.450425
     87          6           0        2.225725    6.606203   -0.094368
     88          6           0        0.277538    7.052677    1.346822
     89          6           0        2.726411    7.839217    0.355066
     90          6           0        0.799813    8.281099    1.778570
     91          6           0        2.093475    8.619986    1.336081
     92          8           0        2.731473    9.680449    1.907464
     93          1           0        2.767797    3.709769    0.674677
     94          1           0        0.271635    4.173497    2.120959
     95          1           0       -0.653057    4.905330   -0.045943
     96          1           0        0.800273    4.580751   -0.833713
     97          1           0        2.774295    5.910804   -0.702966
     98          1           0       -0.672468    6.708253    1.712691
     99          1           0        3.644990    8.275996    0.006018
    100          1           0        0.317120    8.924641    2.503664
    101          1           0        2.138698   10.180132    2.467673
    102          7           0       -1.357155    2.560603    1.275079
    103          6           0       -2.391717    1.600562    0.951190
    104          6           0       -2.679291    1.346433   -0.521264
    105          8           0       -2.191915    2.098034   -1.365338
    106          6           0       -2.318877    0.293540    1.729962
    107          6           0       -2.187168    0.495255    3.240612
    108          6           0       -1.240560   -0.714859    1.374343
    109          6           0       -3.332560    1.287988    3.864352
    110          1           0       -1.634151    3.438268    1.681623
    111          1           0       -3.348878    1.984400    1.300206
    112          1           0       -3.285694   -0.212426    1.619678
    113          1           0       -1.232175    0.937670    3.511275
    114          1           0       -2.174407   -0.507643    3.652235
    115          1           0       -0.317443   -0.506928    1.915749
    116          1           0       -1.557990   -1.677347    1.779504
    117          1           0       -1.169126   -0.880441    0.294538
    118          1           0       -4.219254    0.807590    3.472063
    119          1           0       -3.433769    1.229289    4.954724
    120          1           0       -3.392348    2.320605    3.534613
    121          7           0       -3.618092    0.492158   -0.914029
    122          6           0       -4.186838    0.390178   -2.249031
    123          6           0       -5.387031    1.302892   -2.469685
    124          8           0       -5.790337    1.494825   -3.611178
    125          6           0       -4.588756   -1.068497   -2.440159
    126          8           0       -5.679199   -1.465325   -1.632780
    127          1           0       -4.092939    0.005334   -0.168628
    128          1           0       -3.369609    0.633419   -2.931652
    129          1           0       -3.706935   -1.663746   -2.226922
    130          1           0       -4.833402   -1.225906   -3.489526
    131          1           0       -5.742898   -2.398482   -1.830164
    132          7           0       -6.038806    1.882440   -1.459431
    133          6           0       -7.071628    2.897593   -1.513672
    134          6           0       -8.271637    2.693688   -2.428058
    135          8           0       -8.571011    3.572812   -3.236585
    136          6           0       -6.417186    4.266982   -1.692219
    137          1           0       -5.751569    1.613876   -0.530201
    138          1           0       -7.544499    2.914639   -0.534793
    139          1           0       -6.104217    4.627328   -0.713904
    140          1           0       -5.566317    4.277103   -2.363724
    141          1           0       -7.023301    5.074670   -2.098992
    142          7           0       -9.106792    1.649206   -2.373522
    143          6           0       -8.791156    0.338601   -1.828924
    144          6           0       -9.938274   -0.250384   -1.029538
    145          8           0      -11.100635   -0.163569   -1.430636
    146          6           0       -8.466991   -0.598172   -2.988051
    147          1           0       -9.958666    1.704673   -2.896336
    148          1           0       -7.885957    0.477816   -1.235011
    149          1           0       -9.231259   -0.563944   -3.771583
    150          1           0       -7.549477   -0.244800   -3.463757
    151          1           0       -8.378346   -1.613467   -2.616274
    152          7           0       -9.803786   -0.969447    0.090266
    153          6           0       -8.658125   -1.239576    0.925665
    154          6           0       -8.834317   -0.651911    2.322127
    155          8           0       -7.813017   -0.334195    2.943579
    156          6           0       -8.518408   -2.753818    0.844735
    157          6           0       -7.347868   -3.299400    1.657618
    158          6           0       -7.339721   -4.806064    1.414109
    159          8           0       -6.698638   -5.310925    0.473190
    160          8           0       -8.138761   -5.533209    2.041003
    161          1           0      -10.652927   -1.454877    0.378393
    162          1           0       -7.744817   -0.822301    0.507394
    163          1           0       -8.374258   -2.950954   -0.217272
    164          1           0       -9.443576   -3.252205    1.145192
    165          1           0       -7.462266   -3.193356    2.734357
    166          1           0       -6.463634   -2.830727    1.235746
    167          7           0      -10.072915   -0.603496    2.821759
    168          6           0      -10.433714   -0.301133    4.191321
    169          1           0      -10.036022   -1.072498    4.849896
    170          1           0      -10.016987    0.666380    4.472618
    171          1           0      -11.519107   -0.269537    4.282998
    172          1           0      -10.769969   -1.090338    2.278159
    173         20           0        2.077815    0.009044   -1.061484
    174          8           0        1.425293    2.137057   -2.353913
    175          1           0        2.044316    2.777150   -2.714319
    176          1           0        0.567243    2.559535   -2.448050
 ---------------------------------------------------------------------

 SCF Done:  E(RB3LYP) =  -5333.42545645     A.U. after   45 cycles

 The electronic state is 1-A.
 Alpha  occ. eigenvalues -- -145.43812 -19.20370 -19.18355 -19.17083 -19.15552
 Alpha  occ. eigenvalues --  -19.14226 -19.13343 -19.13243 -19.11444 -19.11044
 Alpha  occ. eigenvalues --  -19.11002 -19.10024 -19.09670 -19.09074 -19.09073
 Alpha  occ. eigenvalues --  -19.08444 -19.08308 -19.08111 -19.07645 -19.07624
 Alpha  occ. eigenvalues --  -19.07573 -19.07456 -18.97338 -18.96870 -15.49538
 Alpha  occ. eigenvalues --  -14.57816 -14.40936 -14.39806 -14.39617 -14.39577
 Alpha  occ. eigenvalues --  -14.37879 -14.37692 -14.36714 -14.36488 -14.35205
 Alpha  occ. eigenvalues --  -14.34867 -14.34478 -14.34189 -14.34154 -14.33631
 Alpha  occ. eigenvalues --  -12.63172 -12.63114 -12.63086 -10.35680 -10.33597
 Alpha  occ. eigenvalues --  -10.32441 -10.32427 -10.31773 -10.30439 -10.30351
 Alpha  occ. eigenvalues --  -10.29299 -10.28989 -10.28817 -10.28604 -10.28301
 Alpha  occ. eigenvalues --  -10.28301 -10.27469 -10.27437 -10.27422 -10.27157
 Alpha  occ. eigenvalues --  -10.27110 -10.27090 -10.27040 -10.27011 -10.26746
 Alpha  occ. eigenvalues --  -10.26733 -10.26582 -10.26580 -10.25663 -10.25067
 Alpha  occ. eigenvalues --  -10.25042 -10.24750 -10.24141 -10.23172 -10.22974
 Alpha  occ. eigenvalues --  -10.22939 -10.22681 -10.22356 -10.22170 -10.22063
 Alpha  occ. eigenvalues --  -10.21979 -10.21849 -10.21761 -10.21558 -10.21250
 Alpha  occ. eigenvalues --  -10.21198 -10.20128 -10.20048 -10.19925 -10.19438
 Alpha  occ. eigenvalues --  -10.19245 -10.18092 -10.18022 -10.17331 -10.16856
 Alpha  occ. eigenvalues --  -10.16078 -10.12481  -1.86176  -1.13769  -1.13492
 Alpha  occ. eigenvalues --   -1.13359  -1.13148  -1.08026  -1.07178  -1.06903
 Alpha  occ. eigenvalues --   -1.06802  -1.06402  -1.06036  -1.05457  -1.05436
 Alpha  occ. eigenvalues --   -1.04490  -1.04385  -1.03363  -1.02674  -1.02518
 Alpha  occ. eigenvalues --   -1.01862  -1.01848  -1.01669  -1.01027  -1.00784
 Alpha  occ. eigenvalues --   -1.00642  -0.97591  -0.96841  -0.96243  -0.95595
 Alpha  occ. eigenvalues --   -0.94926  -0.94411  -0.93863  -0.92979  -0.92616
 Alpha  occ. eigenvalues --   -0.92272  -0.91966  -0.91951  -0.91548  -0.91292
 Alpha  occ. eigenvalues --   -0.90865  -0.90510  -0.90145  -0.89931  -0.87787
 Alpha  occ. eigenvalues --   -0.86081  -0.84636  -0.82122  -0.81359  -0.80970
 Alpha  occ. eigenvalues --   -0.80639  -0.79329  -0.78331  -0.77961  -0.77359
 Alpha  occ. eigenvalues --   -0.77067  -0.76684  -0.76633  -0.76225  -0.75366
 Alpha  occ. eigenvalues --   -0.75089  -0.74092  -0.73592  -0.73482  -0.72775
 Alpha  occ. eigenvalues --   -0.72224  -0.71591  -0.69917  -0.69103  -0.68493
 Alpha  occ. eigenvalues --   -0.68088  -0.67933  -0.66966  -0.66845  -0.66491
 Alpha  occ. eigenvalues --   -0.65818  -0.65581  -0.65244  -0.64887  -0.64662
 Alpha  occ. eigenvalues --   -0.64267  -0.63580  -0.62993  -0.62951  -0.62224
 Alpha  occ. eigenvalues --   -0.61781  -0.61300  -0.60508  -0.59917  -0.59787
 Alpha  occ. eigenvalues --   -0.59706  -0.59612  -0.59489  -0.59196  -0.59120
 Alpha  occ. eigenvalues --   -0.58184  -0.58084  -0.57595  -0.57558  -0.57485
 Alpha  occ. eigenvalues --   -0.57363  -0.57127  -0.56768  -0.56654  -0.55796
 Alpha  occ. eigenvalues --   -0.55603  -0.55326  -0.54703  -0.53612  -0.53153
 Alpha  occ. eigenvalues --   -0.53064  -0.52774  -0.52665  -0.52568  -0.52360
 Alpha  occ. eigenvalues --   -0.51997  -0.51671  -0.51299  -0.51215  -0.51121
 Alpha  occ. eigenvalues --   -0.50526  -0.50346  -0.50092  -0.49997  -0.49834
 Alpha  occ. eigenvalues --   -0.49169  -0.48697  -0.48470  -0.48392  -0.48120
 Alpha  occ. eigenvalues --   -0.47985  -0.47899  -0.47776  -0.47473  -0.47423
 Alpha  occ. eigenvalues --   -0.47280  -0.47195  -0.47051  -0.46817  -0.46687
 Alpha  occ. eigenvalues --   -0.46361  -0.46197  -0.46013  -0.45756  -0.45667
 Alpha  occ. eigenvalues --   -0.45650  -0.45553  -0.45491  -0.45445  -0.45058
 Alpha  occ. eigenvalues --   -0.45025  -0.44769  -0.44696  -0.44638  -0.44522
 Alpha  occ. eigenvalues --   -0.44234  -0.44061  -0.43720  -0.43589  -0.43437
 Alpha  occ. eigenvalues --   -0.43301  -0.43147  -0.43094  -0.42930  -0.42835
 Alpha  occ. eigenvalues --   -0.42721  -0.42638  -0.42537  -0.42258  -0.42211
 Alpha  occ. eigenvalues --   -0.41650  -0.41612  -0.41531  -0.41416  -0.41370
 Alpha  occ. eigenvalues --   -0.41072  -0.41064  -0.40926  -0.40603  -0.40488
 Alpha  occ. eigenvalues --   -0.40130  -0.40095  -0.39822  -0.39509  -0.39445
 Alpha  occ. eigenvalues --   -0.39359  -0.39347  -0.38934  -0.38914  -0.38812
 Alpha  occ. eigenvalues --   -0.38676  -0.38621  -0.38560  -0.38439  -0.38315
 Alpha  occ. eigenvalues --   -0.38083  -0.38021  -0.37891  -0.37742  -0.37534
 Alpha  occ. eigenvalues --   -0.37248  -0.37019  -0.36771  -0.36729  -0.36658
 Alpha  occ. eigenvalues --   -0.36440  -0.36371  -0.36044  -0.35992  -0.35968
 Alpha  occ. eigenvalues --   -0.35739  -0.35715  -0.35549  -0.35497  -0.35219
 Alpha  occ. eigenvalues --   -0.35162  -0.34829  -0.34285  -0.34216  -0.32361
 Alpha  occ. eigenvalues --   -0.32174  -0.32089  -0.31797  -0.31573  -0.31100
 Alpha  occ. eigenvalues --   -0.30870  -0.30761  -0.30438  -0.29809  -0.28821
 Alpha  occ. eigenvalues --   -0.28771  -0.28642  -0.28533  -0.28158  -0.28017
 Alpha  occ. eigenvalues --   -0.27946  -0.27910  -0.27885  -0.27543  -0.27054
 Alpha  occ. eigenvalues --   -0.26872  -0.26778  -0.26416  -0.26242  -0.25953
 Alpha  occ. eigenvalues --   -0.25803  -0.25680  -0.25439  -0.25383  -0.25003
 Alpha  occ. eigenvalues --   -0.24884  -0.24759  -0.24509  -0.24450  -0.23683
 Alpha  occ. eigenvalues --   -0.23373  -0.23033  -0.22848  -0.22554  -0.22294
 Alpha  occ. eigenvalues --   -0.15247  -0.14599  -0.11659
 Alpha virt. eigenvalues --   -0.10151  -0.06617  -0.04671  -0.04372  -0.03983
 Alpha virt. eigenvalues --   -0.03932  -0.03484  -0.03214  -0.03031  -0.02355
 Alpha virt. eigenvalues --   -0.01744  -0.01665  -0.01190  -0.00603   0.00009

 Mulliken charges:
               1
     1  C    0.084550
     2  C   -0.006636
     3  O   -0.305336
     4  H    0.039883
     5  H   -0.012550
     6  H    0.047326
     7  N   -0.111225
     8  C    0.071446
     9  C    0.068299
    10  O   -0.275683
    11  C    0.179912
    12  C    0.068101
    13  O   -0.405293
    14  O   -0.414231
    15  H    0.124511
    16  H    0.001756
    17  H   -0.012199
    18  H    0.026639
    19  N   -0.093128
    20  C    0.100897
    21  C    0.061598
    22  O   -0.285057
    23  C    0.010243
    24  C    0.010996
    25  C   -0.037428
    26  C    0.026611
    27  N    0.139719
    28  H    0.113011
    29  H    0.022355
    30  H    0.039060
    31  H   -0.002346
    32  H   -0.005104
    33  H    0.033521
    34  H    0.037190
    35  H    0.028811
    36  H    0.078666
    37  H    0.080413
    38  H    0.153499
    39  H    0.147279
    40  H    0.151710
    41  N   -0.175298
    42  C    0.085183
    43  C    0.040612
    44  O   -0.269425
    45  C    0.217480
    46  C    0.049452
    47  O   -0.404082
    48  O   -0.433310
    49  H    0.148981
    50  H    0.031059
    51  H   -0.000896
    52  H    0.018879
    53  N   -0.175475
    54  C    0.200957
    55  C    0.033440
    56  O   -0.283298
    57  H    0.151026
    58  H    0.032482
    59  H    0.042950
    60  N   -0.157119
    61  C    0.119324
    62  C    0.146166
    63  O   -0.328504
    64  C    0.068711
    65  C   -0.039023
    66  N   -0.045400
    67  O   -0.259112
    68  H    0.159970
    69  H    0.019025
    70  H   -0.000990
    71  H    0.052674
    72  H    0.111708
    73  H    0.133953
    74  N   -0.106618
    75  C    0.170909
    76  C    0.039846
    77  O   -0.281285
    78  H    0.146552
    79  H    0.023304
    80  H    0.051302
    81  N   -0.109573
    82  C    0.088506
    83  C    0.164901
    84  O   -0.377710
    85  C    0.114616
    86  C    0.006353
    87  C    0.020984
    88  C    0.011549
    89  C   -0.007816
    90  C   -0.028562
    91  C    0.143734
    92  O   -0.183495
    93  H    0.124371
    94  H   -0.001901
    95  H   -0.001100
    96  H   -0.052171
    97  H   -0.056660
    98  H   -0.036135
    99  H   -0.019095
   100  H   -0.033272
   101  H    0.175875
   102  N   -0.080424
   103  C    0.154774
   104  C    0.052956
   105  O   -0.282128
   106  C   -0.168837
   107  C    0.008787
   108  C    0.083438
   109  C    0.021294
   110  H    0.133353
   111  H    0.017225
   112  H    0.005562
   113  H    0.027190
   114  H    0.003944
   115  H    0.050522
   116  H   -0.001237
   117  H   -0.036411
   118  H    0.014799
   119  H    0.031019
   120  H   -0.007316
   121  N   -0.162176
   122  C    0.122865
   123  C    0.103500
   124  O   -0.264758
   125  C    0.207721
   126  O   -0.293877
   127  H    0.128598
   128  H    0.039616
   129  H   -0.012694
   130  H    0.023007
   131  H    0.188029
   132  N   -0.117113
   133  C    0.033010
   134  C    0.067592
   135  O   -0.260298
   136  C    0.078542
   137  H    0.110344
   138  H    0.024611
   139  H   -0.020445
   140  H    0.022734
   141  H    0.030426
   142  N   -0.090582
   143  C    0.036274
   144  C    0.062935
   145  O   -0.298350
   146  C    0.077338
   147  H    0.125024
   148  H   -0.013665
   149  H    0.011848
   150  H    0.028357
   151  H    0.003632
   152  N   -0.103724
   153  C    0.097856
   154  C    0.083973
   155  O   -0.293478
   156  C   -0.009594
   157  C    0.139654
   158  C   -0.011585
   159  O   -0.398726
   160  O   -0.372240
   161  H    0.122451
   162  H   -0.007226
   163  H   -0.005647
   164  H   -0.011058
   165  H   -0.010990
   166  H   -0.075226
   167  N   -0.143713
   168  C    0.132698
   169  H    0.035750
   170  H    0.031260
   171  H    0.019556
   172  H    0.107668
   173  Ca   1.305813
   174  O   -0.303834
   175  H    0.192002
   176  H    0.196503
 Sum of Mulliken charges =  -0.00000

 Dipole moment (field-independent basis, Debye):
    X=              4.6161    Y=             -8.7595    Z=              2.4383  Tot=             10.1972
 Quadrupole moment (field-independent basis, Debye-Ang):
   XX=           -907.1454   YY=           -369.4956   ZZ=           -609.2095
   XY=            -62.8204   XZ=             15.5946   YZ=             60.3180

 ESP charges:
               1
     1  C   -0.448581
     2  C    0.691822
     3  O   -0.566525
     4  H    0.137917
     5  H    0.083103
     6  H    0.144777
     7  N   -0.569339
     8  C    0.094487
     9  C    0.466065
    10  O   -0.464997
    11  C   -0.125798
    12  C    0.760150
    13  O   -0.760525
    14  O   -0.826078
    15  H    0.331594
    16  H    0.047372
    17  H    0.043827
    18  H    0.097692
    19  N   -0.368018
    20  C   -0.121721
    21  C    0.523471
    22  O   -0.560738
    23  C   -0.150622
    24  C    0.089601
    25  C   -0.023017
    26  C    0.090189
    27  N   -0.373434
    28  H    0.272287
    29  H    0.129747
    30  H    0.103753
    31  H    0.065779
    32  H   -0.019260
    33  H    0.040330
    34  H    0.020909
    35  H    0.018758
    36  H    0.074434
    37  H    0.059354
    38  H    0.307990
    39  H    0.286926
    40  H    0.307675
    41  N   -0.273590
    42  C    0.166044
    43  C    0.354407
    44  O   -0.512078
    45  C   -0.392499
    46  C    0.852590
    47  O   -0.735789
    48  O   -0.791274
    49  H    0.269561
    50  H    0.087059
    51  H    0.123860
    52  H    0.106057
    53  N    0.008939
    54  C   -0.341338
    55  C    0.515037
    56  O   -0.547065
    57  H   -0.082851
    58  H    0.152862
    59  H    0.172502
    60  N   -0.144590
    61  C   -0.020760
    62  C    0.558537
    63  O   -0.504846
    64  C   -0.276376
    65  C    0.702187
    66  N   -0.852584
    67  O   -0.550164
    68  H    0.221474
    69  H    0.077755
    70  H    0.045915
    71  H    0.136470
    72  H    0.365180
    73  H    0.398226
    74  N   -0.554181
    75  C    0.015386
    76  C    0.534755
    77  O   -0.535424
    78  H    0.349978
    79  H    0.079163
    80  H    0.100477
    81  N   -0.410375
    82  C    0.112337
    83  C    0.398548
    84  O   -0.432199
    85  C   -0.067011
    86  C    0.013097
    87  C   -0.172040
    88  C   -0.076220
    89  C   -0.239670
    90  C   -0.342571
    91  C    0.402808
    92  O   -0.542709
    93  H    0.252077
    94  H    0.049599
    95  H    0.038424
    96  H    0.021481
    97  H    0.140320
    98  H    0.115036
    99  H    0.153101
   100  H    0.161585
   101  H    0.410858
   102  N   -0.404398
   103  C    0.067693
   104  C    0.399562
   105  O   -0.516775
   106  C    0.266193
   107  C   -0.030023
   108  C   -0.510707
   109  C   -0.271183
   110  H    0.299961
   111  H    0.051962
   112  H    0.006780
   113  H    0.037483
   114  H    0.046530
   115  H    0.151446
   116  H    0.113117
   117  H    0.074185
   118  H    0.063098
   119  H    0.101693
   120  H    0.051464
   121  N   -0.229568
   122  C   -0.217273
   123  C    0.525884
   124  O   -0.497190
   125  C    0.144491
   126  O   -0.535539
   127  H    0.206915
   128  H    0.172389
   129  H    0.025059
   130  H    0.039033
   131  H    0.396617
   132  N   -0.297798
   133  C    0.140457
   134  C    0.688777
   135  O   -0.547995
   136  C   -0.364689
   137  H    0.208578
   138  H    0.052175
   139  H    0.071386
   140  H    0.122642
   141  H    0.110025
   142  N   -0.838724
   143  C    0.543903
   144  C    0.510095
   145  O   -0.570062
   146  C   -0.236804
   147  H    0.385581
   148  H   -0.044768
   149  H    0.063440
   150  H    0.089805
   151  H    0.037226
   152  N   -0.612467
   153  C   -0.378812
   154  C    0.688300
   155  O   -0.566834
   156  C    0.293515
   157  C   -0.446881
   158  C    0.710599
   159  O   -0.704080
   160  O   -0.670901
   161  H    0.349747
   162  H    0.153292
   163  H    0.029953
   164  H   -0.006275
   165  H    0.127196
   166  H    0.054737
   167  N   -0.373106
   168  C   -0.194588
   169  H    0.104670
   170  H    0.104233
   171  H    0.103820
   172  H    0.306173
   173  Ca   1.605424
   174  O   -0.888843
   175  H    0.441847
   176  H    0.440287
 Sum of ESP charges =   0.00000

 Normal termination of Gaussian 16 at Wed Sep 18 11:27:39 2019.
