 Gaussian 16, Revision A.03,
 Gaussian 16:  ES64L-G16RevA.03 25-Dec-2016

 ----------------------------------------------------------------------
 #b3lyp/svp scf=(tight,noincore) Test #IOP(5/87=12) Density=Current Pop
 =(MK,readradii) iop(6/33=2) iop(6/42=6)
 ----------------------------------------------------------------------

 ----------------
 Ng-295_loop3_7.0
 ----------------
 Symbolic Z-matrix:
 Charge =  0 Multiplicity = 1

                         Standard orientation:
 ---------------------------------------------------------------------
 Center     Atomic      Atomic             Coordinates (Angstroms)
 Number     Number       Type             X           Y           Z
 ---------------------------------------------------------------------
      1          6           0       -7.615053   -6.319876   -3.823299
      2          6           0       -6.805644   -5.751108   -2.669193
      3          8           0       -6.167243   -6.522330   -1.950611
      4          1           0       -7.042617   -6.231055   -4.746552
      5          1           0       -7.833620   -7.370639   -3.631280
      6          1           0       -8.548543   -5.765581   -3.921401
      7          7           0       -6.946568   -4.427790   -2.522322
      8          6           0       -6.431197   -3.638154   -1.420747
      9          6           0       -7.541246   -3.318981   -0.444366
     10          8           0       -8.612803   -2.851870   -0.827997
     11          6           0       -5.778274   -2.432696   -2.112457
     12          6           0       -5.175788   -1.439659   -1.130628
     13          8           0       -5.615301   -1.240200    0.020825
     14          8           0       -4.334716   -0.639128   -1.574077
     15          1           0       -7.398490   -3.990981   -3.315017
     16          1           0       -5.728028   -4.206762   -0.821968
     17          1           0       -6.552861   -1.874967   -2.631354
     18          1           0       -5.031682   -2.741671   -2.839048
     19          7           0       -7.247379   -3.621622    0.818666
     20          6           0       -8.130605   -3.529488    1.969416
     21          6           0       -8.673043   -2.113343    2.107961
     22          8           0       -9.716937   -1.996486    2.742886
     23          6           0       -7.353159   -3.965876    3.210925
     24          6           0       -6.094352   -3.132179    3.458415
     25          6           0       -5.551572   -3.397029    4.861499
     26          6           0       -4.320369   -2.546534    5.174226
     27          7           0       -4.652904   -1.118629    5.314256
     28          1           0       -6.384346   -4.125384    1.000866
     29          1           0       -8.989666   -4.150447    1.715204
     30          1           0       -7.007899   -4.993671    3.086690
     31          1           0       -8.053719   -3.827342    4.033071
     32          1           0       -6.430331   -2.098492    3.368923
     33          1           0       -5.360798   -3.321727    2.686359
     34          1           0       -5.388804   -4.467413    4.943862
     35          1           0       -6.268596   -3.038926    5.598682
     36          1           0       -3.516302   -2.709321    4.458841
     37          1           0       -3.971271   -2.872547    6.155473
     38          1           0       -4.001567   -0.727990    5.979810
     39          1           0       -4.631696   -0.518956    4.503550
     40          1           0       -5.594584   -0.960246    5.650638
     41          7           0       -8.082499   -1.051447    1.538721
     42          6           0       -8.293910    0.359430    1.797237
     43          6           0       -8.338173    1.199243    0.527570
     44          8           0       -8.728433    2.364964    0.600314
     45          6           0       -7.319745    0.830937    2.857560
     46          6           0       -5.879243    0.750559    2.371871
     47          8           0       -5.534591    1.691618    1.623925
     48          8           0       -5.062753   -0.100914    2.795589
     49          1           0       -7.292795   -1.325411    0.973114
     50          1           0       -9.311261    0.504362    2.161779
     51          1           0       -7.381189    0.223715    3.758952
     52          1           0       -7.606566    1.837641    3.171373
     53          7           0       -7.937787    0.714447   -0.645147
     54          6           0       -7.974976    1.355652   -1.948056
     55          6           0       -6.770086    2.235128   -2.253284
     56          8           0       -6.416949    2.456193   -3.414673
     57          1           0       -7.555960   -0.217554   -0.636016
     58          1           0       -8.813397    2.039984   -1.988521
     59          1           0       -8.107172    0.589757   -2.718854
     60          7           0       -6.055129    2.832366   -1.307428
     61          6           0       -4.945037    3.732691   -1.576895
     62          6           0       -3.713090    2.961821   -1.997569
     63          8           0       -3.159041    2.168194   -1.232268
     64          6           0       -4.735880    4.699617   -0.414481
     65          6           0       -3.681831    5.784183   -0.551229
     66          7           0       -3.930701    6.965889    0.015634
     67          8           0       -2.642514    5.540674   -1.152414
     68          1           0       -6.320674    2.805693   -0.329178
     69          1           0       -5.205859    4.339639   -2.445967
     70          1           0       -4.478758    4.193273    0.517562
     71          1           0       -5.642163    5.256298   -0.154947
     72          1           0       -4.761823    7.017870    0.584084
     73          1           0       -3.300853    7.754835    0.092810
     74          7           0       -3.230078    3.309577   -3.193339
     75          6           0       -2.181119    2.676965   -3.961575
     76          6           0       -0.771376    2.888461   -3.421027
     77          8           0        0.208229    2.433301   -4.006779
     78          1           0       -3.666269    4.157327   -3.537949
     79          1           0       -2.200831    3.055867   -4.984143
     80          1           0       -2.411941    1.613734   -4.059867
     81          7           0       -0.577285    3.520767   -2.260072
     82          6           0        0.724571    3.874675   -1.738997
     83          6           0        1.396927    2.654382   -1.118817
     84          8           0        0.702849    1.859875   -0.490554
     85          6           0        0.445188    5.002693   -0.743548
     86          6           0        1.710686    5.356359    0.002867
     87          6           0        1.860035    4.712214    1.232896
     88          6           0        2.757860    5.916069   -0.729766
     89          6           0        3.129664    4.705046    1.828707
     90          6           0        4.017926    5.926050   -0.130155
     91          6           0        4.194454    5.271980    1.107800
     92          8           0        5.466798    5.321265    1.613579
     93          1           0       -1.377636    3.846531   -1.744498
     94          1           0        1.289176    4.294618   -2.581594
     95          1           0       -0.347647    4.720359   -0.043690
     96          1           0        0.098832    5.856939   -1.312407
     97          1           0        1.092618    4.345483    1.903925
     98          1           0        2.551473    6.257893   -1.739004
     99          1           0        3.255446    4.364756    2.838698
    100          1           0        4.820450    6.427961   -0.638722
    101          1           0        6.122835    5.669105    1.010651
    102          7           0        2.678591    2.499224   -1.456256
    103          6           0        3.490558    1.392283   -0.996264
    104          6           0        3.691466    1.297147    0.517370
    105          8           0        2.790667    1.402499    1.353768
    106          6           0        3.013332    0.125484   -1.690579
    107          6           0        3.295076   -1.191145   -0.987082
    108          6           0        3.581608   -0.026955   -3.098565
    109          6           0        2.742634   -2.490626   -1.565318
    110          1           0        3.124819    3.211068   -2.019423
    111          1           0        4.490915    1.604745   -1.384909
    112          1           0        1.940455    0.108632   -1.893438
    113          1           0        2.825914   -1.026318   -0.017072
    114          1           0        4.361260   -1.360460   -0.855619
    115          1           0        2.985870   -0.731863   -3.679600
    116          1           0        3.572164    0.915699   -3.639596
    117          1           0        4.610022   -0.390040   -3.029763
    118          1           0        3.421035   -3.028754   -2.218840
    119          1           0        2.428881   -3.047855   -0.682394
    120          1           0        1.849525   -2.372082   -2.189901
    121          7           0        4.938169    0.945017    0.822877
    122          6           0        5.412824    0.712458    2.171958
    123          6           0        6.859856    1.022634    2.518930
    124          8           0        7.279189    0.977203    3.673787
    125          6           0        5.077108   -0.714468    2.608851
    126          8           0        5.321783   -1.614723    1.550799
    127          1           0        5.494765    0.568153    0.082422
    128          1           0        4.901698    1.322424    2.922219
    129          1           0        3.987881   -0.791964    2.638490
    130          1           0        5.728689   -0.978132    3.438384
    131          1           0        5.370806   -2.522050    1.874148
    132          7           0        7.698208    1.305154    1.511781
    133          6           0        9.079324    1.725442    1.617029
    134          6           0       10.121176    0.812996    2.251448
    135          8           0       11.037450    1.304667    2.917255
    136          6           0        9.232611    3.189161    2.028526
    137          1           0        7.312934    1.128020    0.604925
    138          1           0        9.391597    1.827698    0.573176
    139          1           0        8.722883    3.862418    1.339032
    140          1           0        9.047189    3.423321    3.083887
    141          1           0       10.276383    3.423814    1.859477
    142          7           0       10.150315   -0.512118    2.094527
    143          6           0        9.452960   -1.492391    1.290003
    144          6           0       10.365675   -2.313779    0.399288
    145          8           0       11.589641   -2.259342    0.496983
    146          6           0        8.631932   -2.388263    2.214085
    147          1           0       10.982499   -0.917711    2.492854
    148          1           0        8.794910   -0.929082    0.618175
    149          1           0        8.038712   -1.725017    2.833113
    150          1           0        7.986922   -3.094716    1.673914
    151          1           0        9.343205   -2.934634    2.838160
    152          7           0        9.852198   -3.172255   -0.492150
    153          6           0        8.563139   -3.117967   -1.138973
    154          6           0        8.614484   -2.817328   -2.629436
    155          8           0        7.654203   -2.200374   -3.093470
    156          6           0        7.917304   -4.489231   -0.944212
    157          6           0        6.412614   -4.442689   -1.151440
    158          6           0        5.867347   -5.769654   -0.640413
    159          8           0        5.758767   -5.951226    0.589766
    160          8           0        5.473859   -6.608369   -1.476968
    161          1           0       10.600108   -3.663466   -0.971984
    162          1           0        8.000966   -2.308080   -0.682525
    163          1           0        8.091832   -4.816829    0.078539
    164          1           0        8.389280   -5.268076   -1.557187
    165          1           0        6.170169   -4.344706   -2.203590
    166          1           0        6.052341   -3.520873   -0.692029
    167          7           0        9.695854   -3.234311   -3.289257
    168          6           0        9.778635   -3.067705   -4.727307
    169          1           0        9.373641   -2.094080   -5.003601
    170          1           0       10.820243   -3.129885   -5.041117
    171          1           0        9.202935   -3.852504   -5.218437
    172          1           0       10.302892   -3.863416   -2.764631
    173         20           0       -3.349500    0.192027    0.732845
    174          8           0       -2.794552   -2.356055    0.786817
    175          1           0       -2.701826   -2.900112    0.001957
    176          1           0       -2.654175   -2.963532    1.513085
 ---------------------------------------------------------------------

 SCF Done:  E(RB3LYP) =  -5333.40864265     A.U. after   45 cycles

 The electronic state is 1-A.
 Alpha  occ. eigenvalues -- -145.47188 -19.24004 -19.16351 -19.16030 -19.14181
 Alpha  occ. eigenvalues --  -19.13811 -19.13671 -19.12325 -19.11891 -19.11503
 Alpha  occ. eigenvalues --  -19.10781 -19.10603 -19.10249 -19.10192 -19.10161
 Alpha  occ. eigenvalues --  -19.09546 -19.09369 -19.08865 -19.08516 -19.07816
 Alpha  occ. eigenvalues --  -19.07783 -19.06784 -18.96978 -18.96881 -15.53019
 Alpha  occ. eigenvalues --  -14.55148 -14.39837 -14.38705 -14.38457 -14.37082
 Alpha  occ. eigenvalues --  -14.37033 -14.37030 -14.36346 -14.36293 -14.35863
 Alpha  occ. eigenvalues --  -14.35505 -14.34859 -14.34004 -14.33441 -14.32828
 Alpha  occ. eigenvalues --  -12.66606 -12.66589 -12.66580 -10.34831 -10.33408
 Alpha  occ. eigenvalues --  -10.33072 -10.31956 -10.30696 -10.30075 -10.29969
 Alpha  occ. eigenvalues --  -10.29929 -10.29686 -10.29170 -10.28420 -10.28388
 Alpha  occ. eigenvalues --  -10.28346 -10.27789 -10.27469 -10.26900 -10.26836
 Alpha  occ. eigenvalues --  -10.26718 -10.26699 -10.26392 -10.26152 -10.25873
 Alpha  occ. eigenvalues --  -10.25761 -10.25230 -10.25072 -10.24766 -10.24544
 Alpha  occ. eigenvalues --  -10.24183 -10.23545 -10.23298 -10.23138 -10.23039
 Alpha  occ. eigenvalues --  -10.22784 -10.22645 -10.22621 -10.21882 -10.21247
 Alpha  occ. eigenvalues --  -10.20534 -10.19997 -10.19799 -10.19582 -10.19563
 Alpha  occ. eigenvalues --  -10.19180 -10.19163 -10.19013 -10.16965 -10.16956
 Alpha  occ. eigenvalues --  -10.16842 -10.16153 -10.15288 -10.15177 -10.14971
 Alpha  occ. eigenvalues --  -10.14324 -10.10571  -1.89645  -1.16987  -1.16979
 Alpha  occ. eigenvalues --   -1.16785  -1.11383  -1.09772  -1.09475  -1.06829
 Alpha  occ. eigenvalues --   -1.06680  -1.06117  -1.05525  -1.04726  -1.04474
 Alpha  occ. eigenvalues --   -1.03912  -1.03514  -1.03081  -1.02596  -1.02511
 Alpha  occ. eigenvalues --   -1.02038  -1.01562  -1.01000  -1.00441  -1.00181
 Alpha  occ. eigenvalues --   -1.00013  -0.99416  -0.96175  -0.95410  -0.95244
 Alpha  occ. eigenvalues --   -0.94799  -0.94293  -0.94101  -0.93405  -0.93266
 Alpha  occ. eigenvalues --   -0.92649  -0.92341  -0.91799  -0.91612  -0.91312
 Alpha  occ. eigenvalues --   -0.91018  -0.89902  -0.89665  -0.89329  -0.85727
 Alpha  occ. eigenvalues --   -0.84065  -0.81912  -0.81335  -0.81318  -0.80780
 Alpha  occ. eigenvalues --   -0.80568  -0.78744  -0.78023  -0.77711  -0.76481
 Alpha  occ. eigenvalues --   -0.76234  -0.75916  -0.75589  -0.75414  -0.74887
 Alpha  occ. eigenvalues --   -0.73703  -0.73133  -0.72838  -0.71532  -0.70797
 Alpha  occ. eigenvalues --   -0.70494  -0.69821  -0.69441  -0.69317  -0.68716
 Alpha  occ. eigenvalues --   -0.67941  -0.66051  -0.65772  -0.65397  -0.65159
 Alpha  occ. eigenvalues --   -0.64439  -0.64004  -0.63780  -0.63411  -0.62968
 Alpha  occ. eigenvalues --   -0.62787  -0.62446  -0.62009  -0.61417  -0.61248
 Alpha  occ. eigenvalues --   -0.60822  -0.60737  -0.60448  -0.60302  -0.59818
 Alpha  occ. eigenvalues --   -0.59684  -0.58636  -0.58558  -0.57979  -0.57801
 Alpha  occ. eigenvalues --   -0.57609  -0.57296  -0.57144  -0.56789  -0.56576
 Alpha  occ. eigenvalues --   -0.56425  -0.56178  -0.55518  -0.55393  -0.55140
 Alpha  occ. eigenvalues --   -0.54462  -0.53952  -0.53567  -0.53397  -0.52952
 Alpha  occ. eigenvalues --   -0.52788  -0.52407  -0.52224  -0.52032  -0.51783
 Alpha  occ. eigenvalues --   -0.51688  -0.51545  -0.51189  -0.51063  -0.50907
 Alpha  occ. eigenvalues --   -0.50745  -0.50174  -0.50155  -0.49969  -0.49482
 Alpha  occ. eigenvalues --   -0.49470  -0.48631  -0.48537  -0.48458  -0.48320
 Alpha  occ. eigenvalues --   -0.47989  -0.47595  -0.47474  -0.47404  -0.47271
 Alpha  occ. eigenvalues --   -0.46804  -0.46671  -0.46421  -0.46383  -0.46354
 Alpha  occ. eigenvalues --   -0.46296  -0.45840  -0.45813  -0.45444  -0.45206
 Alpha  occ. eigenvalues --   -0.45191  -0.45114  -0.44941  -0.44893  -0.44784
 Alpha  occ. eigenvalues --   -0.44487  -0.44231  -0.44190  -0.44110  -0.43840
 Alpha  occ. eigenvalues --   -0.43730  -0.43362  -0.43306  -0.43145  -0.43075
 Alpha  occ. eigenvalues --   -0.42947  -0.42795  -0.42765  -0.42180  -0.41951
 Alpha  occ. eigenvalues --   -0.41863  -0.41670  -0.41601  -0.41437  -0.41314
 Alpha  occ. eigenvalues --   -0.41229  -0.41116  -0.40989  -0.40757  -0.40694
 Alpha  occ. eigenvalues --   -0.40463  -0.40321  -0.40238  -0.40199  -0.40024
 Alpha  occ. eigenvalues --   -0.39902  -0.39865  -0.39778  -0.39715  -0.39486
 Alpha  occ. eigenvalues --   -0.39420  -0.39151  -0.38836  -0.38721  -0.38664
 Alpha  occ. eigenvalues --   -0.38632  -0.38324  -0.38025  -0.37648  -0.37574
 Alpha  occ. eigenvalues --   -0.37434  -0.37390  -0.37135  -0.37072  -0.36873
 Alpha  occ. eigenvalues --   -0.36650  -0.36414  -0.36119  -0.35930  -0.35675
 Alpha  occ. eigenvalues --   -0.35515  -0.35261  -0.35091  -0.34710  -0.34125
 Alpha  occ. eigenvalues --   -0.33775  -0.33635  -0.33441  -0.33330  -0.33043
 Alpha  occ. eigenvalues --   -0.32820  -0.32745  -0.32587  -0.32541  -0.31930
 Alpha  occ. eigenvalues --   -0.31908  -0.30859  -0.30724  -0.30423  -0.30402
 Alpha  occ. eigenvalues --   -0.30086  -0.29839  -0.29833  -0.29310  -0.29281
 Alpha  occ. eigenvalues --   -0.29091  -0.28989  -0.28538  -0.28131  -0.27794
 Alpha  occ. eigenvalues --   -0.27741  -0.27225  -0.27090  -0.26908  -0.26872
 Alpha  occ. eigenvalues --   -0.26807  -0.26467  -0.26389  -0.26073  -0.26015
 Alpha  occ. eigenvalues --   -0.25874  -0.25785  -0.25736  -0.25554  -0.25443
 Alpha  occ. eigenvalues --   -0.24781  -0.24771  -0.24400  -0.24019  -0.23801
 Alpha  occ. eigenvalues --   -0.23130  -0.22990  -0.22592  -0.22431  -0.21607
 Alpha  occ. eigenvalues --   -0.14166  -0.13999  -0.11461
 Alpha virt. eigenvalues --   -0.10471  -0.08336  -0.05593  -0.04138  -0.02626
 Alpha virt. eigenvalues --   -0.02541  -0.02454  -0.01430  -0.01349  -0.01236
 Alpha virt. eigenvalues --   -0.00785  -0.00627  -0.00246   0.00099   0.00496

 Mulliken charges:
               1
     1  C    0.026709
     2  C    0.017429
     3  O   -0.287627
     4  H    0.040032
     5  H    0.041008
     6  H    0.019122
     7  N   -0.126321
     8  C    0.141338
     9  C    0.069604
    10  O   -0.271232
    11  C    0.086468
    12  C    0.047493
    13  O   -0.423599
    14  O   -0.391762
    15  H    0.126750
    16  H   -0.037515
    17  H    0.028079
    18  H    0.030308
    19  N   -0.148880
    20  C    0.156167
    21  C    0.009640
    22  O   -0.273600
    23  C    0.057290
    24  C   -0.040061
    25  C   -0.018381
    26  C    0.102276
    27  N    0.089281
    28  H    0.123256
    29  H    0.035929
    30  H    0.019088
    31  H    0.024304
    32  H    0.009973
    33  H   -0.018587
    34  H    0.046139
    35  H    0.009606
    36  H    0.040712
    37  H    0.053027
    38  H    0.165240
    39  H    0.141225
    40  H    0.167621
    41  N   -0.174746
    42  C    0.124384
    43  C    0.049902
    44  O   -0.304071
    45  C    0.162352
    46  C    0.123686
    47  O   -0.377043
    48  O   -0.464105
    49  H    0.184651
    50  H    0.037858
    51  H   -0.052240
    52  H    0.032906
    53  N   -0.143641
    54  C    0.243434
    55  C    0.030678
    56  O   -0.302190
    57  H    0.120647
    58  H    0.042119
    59  H    0.040014
    60  N   -0.117765
    61  C    0.104093
    62  C    0.161859
    63  O   -0.367849
    64  C    0.059772
    65  C    0.007400
    66  N   -0.035956
    67  O   -0.265715
    68  H    0.147862
    69  H   -0.012314
    70  H    0.042135
    71  H    0.013271
    72  H    0.121153
    73  H    0.139499
    74  N   -0.133360
    75  C    0.216070
    76  C    0.021678
    77  O   -0.298507
    78  H    0.135753
    79  H    0.036406
    80  H    0.060191
    81  N   -0.111839
    82  C    0.092970
    83  C    0.143720
    84  O   -0.290443
    85  C    0.120027
    86  C   -0.031118
    87  C    0.030028
    88  C   -0.031453
    89  C   -0.012995
    90  C   -0.039402
    91  C    0.170671
    92  O   -0.207819
    93  H    0.142791
    94  H   -0.015118
    95  H   -0.013157
    96  H   -0.002635
    97  H   -0.028090
    98  H   -0.023607
    99  H   -0.026159
   100  H   -0.042963
   101  H    0.174162
   102  N   -0.116679
   103  C    0.165124
   104  C    0.084470
   105  O   -0.267356
   106  C   -0.107327
   107  C   -0.002331
   108  C    0.057765
   109  C    0.042734
   110  H    0.127782
   111  H   -0.041331
   112  H    0.008733
   113  H   -0.000255
   114  H    0.018748
   115  H    0.013139
   116  H   -0.014491
   117  H    0.009376
   118  H    0.042982
   119  H    0.005174
   120  H   -0.021860
   121  N   -0.129766
   122  C    0.084435
   123  C    0.064834
   124  O   -0.270592
   125  C    0.239156
   126  O   -0.346038
   127  H    0.139115
   128  H    0.036763
   129  H   -0.002072
   130  H    0.025101
   131  H    0.195157
   132  N   -0.114892
   133  C    0.015790
   134  C    0.086389
   135  O   -0.270786
   136  C    0.086535
   137  H    0.097897
   138  H    0.013986
   139  H   -0.029172
   140  H    0.042322
   141  H    0.012230
   142  N   -0.084162
   143  C    0.025844
   144  C    0.052098
   145  O   -0.266632
   146  C    0.060407
   147  H    0.125389
   148  H   -0.014076
   149  H    0.021883
   150  H    0.043488
   151  H    0.009709
   152  N   -0.093076
   153  C    0.051156
   154  C    0.069435
   155  O   -0.277651
   156  C    0.019331
   157  C    0.087808
   158  C    0.038510
   159  O   -0.375136
   160  O   -0.345229
   161  H    0.103860
   162  H    0.005014
   163  H    0.006948
   164  H   -0.018170
   165  H   -0.020184
   166  H   -0.037193
   167  N   -0.153806
   168  C    0.140322
   169  H    0.038507
   170  H    0.014719
   171  H    0.034380
   172  H    0.115715
   173  Ca   1.262159
   174  O   -0.301968
   175  H    0.208058
   176  H    0.176365
 Sum of Mulliken charges =  -0.00000

 Dipole moment (field-independent basis, Debye):
    X=            -26.6410    Y=             16.6165    Z=             12.5698  Tot=             33.8209
 Quadrupole moment (field-independent basis, Debye-Ang):
   XX=           -747.8740   YY=           -608.9673   ZZ=           -475.7162
   XY=             75.3894   XZ=           -130.0562   YZ=            -41.7742

 ESP charges:
               1
     1  C   -0.433363
     2  C    0.741323
     3  O   -0.584862
     4  H    0.114698
     5  H    0.132683
     6  H    0.098258
     7  N   -0.637390
     8  C    0.259740
     9  C    0.527382
    10  O   -0.502592
    11  C   -0.362429
    12  C    0.703567
    13  O   -0.571153
    14  O   -0.680236
    15  H    0.327876
    16  H    0.007410
    17  H    0.144580
    18  H    0.119443
    19  N   -0.378481
    20  C    0.098335
    21  C    0.562409
    22  O   -0.571991
    23  C   -0.448909
    24  C    0.290410
    25  C   -0.231618
    26  C    0.056587
    27  N   -0.267929
    28  H    0.257809
    29  H    0.113006
    30  H    0.133714
    31  H    0.122405
    32  H    0.089614
    33  H   -0.001277
    34  H    0.099846
    35  H    0.064118
    36  H    0.053086
    37  H    0.069027
    38  H    0.278165
    39  H    0.262500
    40  H    0.301181
    41  N    0.004347
    42  C   -0.069997
    43  C    0.561375
    44  O   -0.567421
    45  C   -0.070093
    46  C    0.722523
    47  O   -0.683085
    48  O   -0.784772
    49  H   -0.553875
    50  H    0.121764
    51  H   -0.004816
    52  H    0.073702
    53  N   -0.272940
    54  C   -0.265691
    55  C    0.736610
    56  O   -0.624165
    57  H    0.342328
    58  H    0.143258
    59  H    0.132263
    60  N   -0.548272
    61  C    0.084296
    62  C    0.651979
    63  O   -0.600517
    64  C   -0.331601
    65  C    0.711578
    66  N   -0.815074
    67  O   -0.574331
    68  H    0.331157
    69  H    0.065512
    70  H    0.107454
    71  H    0.115789
    72  H    0.352282
    73  H    0.404585
    74  N   -0.237406
    75  C   -0.279593
    76  C    0.655460
    77  O   -0.597059
    78  H    0.241515
    79  H    0.142660
    80  H    0.151490
    81  N   -0.452038
    82  C    0.164624
    83  C    0.594243
    84  O   -0.572732
    85  C   -0.077095
    86  C   -0.096567
    87  C   -0.165667
    88  C   -0.066492
    89  C   -0.185425
    90  C   -0.352213
    91  C    0.415498
    92  O   -0.589691
    93  H    0.203122
    94  H    0.015349
    95  H    0.072171
    96  H    0.060654
    97  H    0.140021
    98  H    0.115586
    99  H    0.152616
   100  H    0.150941
   101  H    0.414409
   102  N   -0.336957
   103  C   -0.545237
   104  C    0.911309
   105  O   -0.544977
   106  C    0.316276
   107  C   -0.055306
   108  C   -0.287444
   109  C   -0.367606
   110  H    0.280208
   111  H    0.183208
   112  H    0.048409
   113  H    0.044821
   114  H    0.086965
   115  H    0.089741
   116  H    0.061546
   117  H    0.051524
   118  H    0.140982
   119  H    0.094420
   120  H    0.062515
   121  N   -0.777715
   122  C    0.134877
   123  C    0.600877
   124  O   -0.524974
   125  C   -0.159705
   126  O   -0.492391
   127  H    0.333042
   128  H    0.086268
   129  H    0.108511
   130  H    0.091776
   131  H    0.410346
   132  N   -0.588283
   133  C    0.336918
   134  C    0.528260
   135  O   -0.535640
   136  C   -0.312631
   137  H    0.320373
   138  H    0.013301
   139  H    0.073564
   140  H    0.109621
   141  H    0.072854
   142  N   -0.644268
   143  C    0.404370
   144  C    0.461552
   145  O   -0.553319
   146  C   -0.261154
   147  H    0.340465
   148  H   -0.027202
   149  H    0.101944
   150  H    0.063456
   151  H    0.081059
   152  N   -0.370827
   153  C   -0.549305
   154  C    0.753529
   155  O   -0.553742
   156  C    0.270563
   157  C   -0.316139
   158  C    0.705559
   159  O   -0.665861
   160  O   -0.644623
   161  H    0.258233
   162  H    0.191761
   163  H   -0.000069
   164  H   -0.012069
   165  H    0.076153
   166  H    0.030841
   167  N   -0.452238
   168  C   -0.135226
   169  H    0.094951
   170  H    0.086897
   171  H    0.089730
   172  H    0.341961
   173  Ca   1.479387
   174  O   -0.823218
   175  H    0.437184
   176  H    0.404540
 Sum of ESP charges =  -0.00000

 Normal termination of Gaussian 16 at Wed Sep 18 11:24:26 2019.
