 Gaussian 16, Revision A.03,
 Gaussian 16:  ES64L-G16RevA.03 25-Dec-2016

 ----------------------------------------------------------------------
 #b3lyp/svp scf=(tight,noincore) Test #IOP(5/87=12) Density=Current Pop
 =(MK,readradii) iop(6/33=2) iop(6/42=6)
 ----------------------------------------------------------------------

 -----------------
 Ng-293_loop3_36.0
 -----------------
 Symbolic Z-matrix:
 Charge =  0 Multiplicity = 1

                         Standard orientation:
 ---------------------------------------------------------------------
 Center     Atomic      Atomic             Coordinates (Angstroms)
 Number     Number       Type             X           Y           Z
 ---------------------------------------------------------------------
      1          6           0        8.669648    2.585827    5.106264
      2          6           0        8.667254    2.409602    3.601659
      3          8           0        7.719650    1.859276    3.030180
      4          1           0        7.928921    3.335282    5.384895
      5          1           0        8.423239    1.637430    5.583912
      6          1           0        9.657329    2.912165    5.432746
      7          7           0        9.679300    2.912164    2.890185
      8          6           0        9.737714    3.250612    1.483117
      9          6           0        9.954286    2.166151    0.433002
     10          8           0        9.978972    2.517687   -0.739138
     11          6           0        8.540766    4.124648    1.142122
     12          6           0        8.067982    5.159722    2.157355
     13          8           0        8.771831    6.179226    2.278219
     14          8           0        7.003718    4.943303    2.775581
     15          1           0       10.514068    3.117763    3.422530
     16          1           0       10.592058    3.921410    1.430906
     17          1           0        7.756793    3.402053    0.885521
     18          1           0        8.825204    4.693635    0.256940
     19          7           0       10.114887    0.894640    0.798472
     20          6           0       10.267233   -0.153108   -0.193099
     21          6           0        9.040415   -0.480000   -1.028239
     22          8           0        9.216611   -0.913119   -2.162154
     23          6           0       10.808982   -1.398372    0.500605
     24          6           0       11.347789   -2.382470   -0.535658
     25          6           0       11.957707   -3.631802    0.081650
     26          6           0       12.265984   -4.717127   -0.944184
     27          7           0       11.036997   -5.304726   -1.500349
     28          1           0       10.190314    0.616290    1.768076
     29          1           0       10.901016    0.160299   -1.014741
     30          1           0        9.953970   -1.784128    1.051464
     31          1           0       11.671409   -1.094660    1.100837
     32          1           0       12.130498   -1.909094   -1.143920
     33          1           0       10.569919   -2.633252   -1.255676
     34          1           0       11.333886   -4.120314    0.842966
     35          1           0       12.926668   -3.379294    0.516569
     36          1           0       12.884217   -5.502059   -0.506498
     37          1           0       12.852432   -4.260505   -1.738460
     38          1           0       10.409523   -5.530208   -0.740589
     39          1           0       10.620404   -4.636780   -2.135407
     40          1           0       11.157717   -6.134482   -2.072302
     41          7           0        7.827745   -0.183126   -0.568460
     42          6           0        6.494482   -0.541155   -1.019153
     43          6           0        5.503579    0.460588   -0.436981
     44          8           0        5.866351    1.341621    0.341144
     45          6           0        6.204504   -1.962688   -0.534637
     46          6           0        4.950906   -2.481354   -1.205442
     47          8           0        4.640344   -2.132893   -2.367649
     48          8           0        4.271471   -3.372536   -0.643783
     49          1           0        7.809289    0.348593    0.282089
     50          1           0        6.380595   -0.489821   -2.098687
     51          1           0        6.200725   -1.989728    0.557725
     52          1           0        7.049868   -2.573303   -0.853869
     53          7           0        4.229717    0.345636   -0.810961
     54          6           0        3.033960    0.837816   -0.152764
     55          6           0        1.746238    0.159651   -0.585041
     56          8           0        1.813216   -0.799737   -1.349887
     57          1           0        4.075818   -0.253564   -1.610132
     58          1           0        2.932054    1.924885   -0.215189
     59          1           0        3.130345    0.753561    0.929923
     60          7           0        0.598734    0.689965   -0.148919
     61          6           0       -0.709028    0.217830   -0.539365
     62          6           0       -1.515016    1.334212   -1.191035
     63          8           0       -2.716026    1.139973   -1.385833
     64          6           0       -1.334817   -0.380321    0.715587
     65          6           0       -0.696388   -1.624771    1.320114
     66          7           0       -1.459678   -2.716636    1.445889
     67          8           0        0.495227   -1.733563    1.597276
     68          1           0        0.716079    1.472479    0.490065
     69          1           0       -0.608873   -0.544203   -1.311295
     70          1           0       -2.366519   -0.674126    0.516163
     71          1           0       -1.359984    0.425841    1.444744
     72          1           0       -2.393663   -2.684098    1.041399
     73          1           0       -1.067790   -3.589801    1.767459
     74          7           0       -0.957320    2.470104   -1.617796
     75          6           0       -1.703128    3.550982   -2.242673
     76          6           0       -2.739231    4.146683   -1.298305
     77          8           0       -2.414098    4.253999   -0.117258
     78          1           0        0.006739    2.687506   -1.449792
     79          1           0       -2.158679    3.188676   -3.162623
     80          1           0       -0.942438    4.299210   -2.482057
     81          7           0       -3.927237    4.479343   -1.787057
     82          6           0       -5.187052    4.803236   -1.148260
     83          6           0       -5.877765    3.733220   -0.327967
     84          8           0       -7.044580    3.875659    0.010787
     85          6           0       -4.995622    6.072289   -0.314618
     86          6           0       -4.172773    7.161917   -0.957837
     87          6           0       -2.795458    7.367052   -0.748976
     88          6           0       -4.745020    7.766304   -2.073969
     89          6           0       -1.969443    8.103404   -1.606172
     90          6           0       -3.940635    8.464056   -2.978516
     91          6           0       -2.581208    8.730946   -2.699897
     92          8           0       -1.881279    9.596003   -3.484036
     93          1           0       -4.072895    4.159192   -2.735101
     94          1           0       -5.878276    4.988748   -1.969962
     95          1           0       -4.450647    5.720839    0.563439
     96          1           0       -5.926915    6.495668    0.046552
     97          1           0       -2.356142    6.843601    0.093699
     98          1           0       -5.753920    7.494337   -2.362853
     99          1           0       -0.897874    8.231318   -1.522035
    100          1           0       -4.364634    9.027413   -3.795250
    101          1           0       -2.434732   10.044548   -4.124815
    102          7           0       -5.093215    2.688990   -0.025202
    103          6           0       -5.302823    1.526168    0.815697
    104          6           0       -6.426234    0.657956    0.262655
    105          8           0       -6.170414   -0.437755   -0.211236
    106          6           0       -5.499004    1.945685    2.267599
    107          6           0       -4.466429    2.899563    2.861994
    108          6           0       -5.655815    0.731573    3.183209
    109          6           0       -4.746823    3.658371    4.153927
    110          1           0       -4.208259    2.686295   -0.501169
    111          1           0       -4.389969    0.929264    0.855710
    112          1           0       -6.456711    2.439538    2.393321
    113          1           0       -4.205325    3.616414    2.090793
    114          1           0       -3.588455    2.291766    3.070426
    115          1           0       -5.646860    1.024561    4.230624
    116          1           0       -6.654122    0.299723    3.091619
    117          1           0       -4.798709    0.074287    3.044488
    118          1           0       -4.799022    2.914918    4.950641
    119          1           0       -3.911393    4.332660    4.350372
    120          1           0       -5.619515    4.295829    4.062509
    121          7           0       -7.679672    1.125577    0.375903
    122          6           0       -8.820332    0.472059   -0.219670
    123          6           0       -9.152317   -0.817770    0.518793
    124          8           0       -9.820264   -1.678887   -0.032680
    125          6           0      -10.040889    1.376318   -0.280969
    126          8           0       -9.863635    2.467757   -1.158717
    127          1           0       -7.865676    2.023442    0.789114
    128          1           0       -8.516700    0.174515   -1.228766
    129          1           0      -10.258161    1.725252    0.729148
    130          1           0      -10.893686    0.772544   -0.598766
    131          1           0       -9.049044    2.208851   -1.592202
    132          7           0       -8.632631   -1.082508    1.717851
    133          6           0       -8.577405   -2.368063    2.398439
    134          6           0       -8.097188   -3.517752    1.528148
    135          8           0       -8.627981   -4.625699    1.603064
    136          6           0       -9.940089   -2.653232    3.021071
    137          1           0       -8.070528   -0.366425    2.165585
    138          1           0       -7.935986   -2.342555    3.275724
    139          1           0       -9.824520   -3.644334    3.463633
    140          1           0      -10.120755   -1.945340    3.827451
    141          1           0      -10.689987   -2.640200    2.229501
    142          7           0       -7.125221   -3.267631    0.654295
    143          6           0       -6.631413   -4.279755   -0.258316
    144          6           0       -5.136476   -4.503469   -0.068269
    145          8           0       -4.377233   -3.637343    0.344496
    146          6           0       -7.130604   -4.041141   -1.679855
    147          1           0       -6.810975   -2.307252    0.564174
    148          1           0       -7.108889   -5.211455    0.049826
    149          1           0       -6.654181   -3.167277   -2.121989
    150          1           0       -6.893652   -4.947584   -2.248727
    151          1           0       -8.208431   -3.941657   -1.612828
    152          7           0       -4.633302   -5.666031   -0.469724
    153          6           0       -3.271219   -6.158416   -0.397007
    154          6           0       -2.751047   -6.332908    1.017586
    155          8           0       -1.550821   -6.216583    1.282590
    156          6           0       -2.334193   -5.610324   -1.461891
    157          6           0       -1.014362   -6.299677   -1.809077
    158          6           0       -0.043325   -5.606719   -2.758390
    159          8           0       -0.388425   -5.322655   -3.928353
    160          8           0        1.139623   -5.502220   -2.395602
    161          1           0       -5.352506   -6.327776   -0.746383
    162          1           0       -3.379176   -7.221342   -0.644864
    163          1           0       -2.035483   -4.581399   -1.239666
    164          1           0       -2.920923   -5.544057   -2.377728
    165          1           0       -1.189691   -7.232135   -2.337360
    166          1           0       -0.432624   -6.545657   -0.926085
    167          7           0       -3.697658   -6.622109    1.909600
    168          6           0       -3.455456   -6.631528    3.346176
    169          1           0       -4.262325   -6.102375    3.853187
    170          1           0       -3.416775   -7.661390    3.702559
    171          1           0       -2.507461   -6.137002    3.559177
    172          1           0       -4.638988   -6.557298    1.579303
    173         20           0        2.201057   -3.122070   -2.670813
    174          8           0        1.383649   -3.649648   -0.220119
    175          1           0        1.254816   -4.462228    0.254029
    176          1           0        1.114634   -2.964639    0.396074
 ---------------------------------------------------------------------

 SCF Done:  E(RB3LYP) =  -5333.40818388     A.U. after   50 cycles

 The electronic state is 1-A.
 Alpha  occ. eigenvalues -- -145.45142 -19.17113 -19.16099 -19.14184 -19.14010
 Alpha  occ. eigenvalues --  -19.12930 -19.12635 -19.12517 -19.12212 -19.11643
 Alpha  occ. eigenvalues --  -19.11520 -19.10673 -19.10230 -19.09095 -19.08271
 Alpha  occ. eigenvalues --  -19.08204 -19.08170 -19.06110 -19.05631 -19.05080
 Alpha  occ. eigenvalues --  -19.03167 -19.02962 -18.94856 -18.94691 -15.50949
 Alpha  occ. eigenvalues --  -14.55748 -14.40847 -14.40531 -14.39603 -14.37871
 Alpha  occ. eigenvalues --  -14.37591 -14.37479 -14.36700 -14.36530 -14.36355
 Alpha  occ. eigenvalues --  -14.34635 -14.34586 -14.33998 -14.33147 -14.30197
 Alpha  occ. eigenvalues --  -12.64564 -12.64539 -12.64471 -10.34231 -10.33573
 Alpha  occ. eigenvalues --  -10.33184 -10.32107 -10.31109 -10.31025 -10.30946
 Alpha  occ. eigenvalues --  -10.29948 -10.29324 -10.29322 -10.29016 -10.27973
 Alpha  occ. eigenvalues --  -10.27484 -10.27022 -10.26903 -10.26867 -10.26444
 Alpha  occ. eigenvalues --  -10.26028 -10.25932 -10.25453 -10.25339 -10.25191
 Alpha  occ. eigenvalues --  -10.24886 -10.24828 -10.24793 -10.24140 -10.23927
 Alpha  occ. eigenvalues --  -10.23649 -10.23502 -10.23383 -10.23262 -10.22704
 Alpha  occ. eigenvalues --  -10.22637 -10.22403 -10.22091 -10.20874 -10.20475
 Alpha  occ. eigenvalues --  -10.20260 -10.19953 -10.19934 -10.19750 -10.19679
 Alpha  occ. eigenvalues --  -10.19650 -10.19232 -10.19026 -10.18787 -10.18324
 Alpha  occ. eigenvalues --  -10.18245 -10.17735 -10.17367 -10.15361 -10.14436
 Alpha  occ. eigenvalues --  -10.14212 -10.08214  -1.87462  -1.14950  -1.14689
 Alpha  occ. eigenvalues --   -1.14254  -1.11326  -1.08647  -1.07651  -1.06353
 Alpha  occ. eigenvalues --   -1.05982  -1.05819  -1.05164  -1.05040  -1.04951
 Alpha  occ. eigenvalues --   -1.04125  -1.03070  -1.02836  -1.02249  -1.02077
 Alpha  occ. eigenvalues --   -1.01775  -1.01005  -0.99681  -0.99197  -0.98566
 Alpha  occ. eigenvalues --   -0.98318  -0.96976  -0.96018  -0.95999  -0.95163
 Alpha  occ. eigenvalues --   -0.94858  -0.94467  -0.93000  -0.92560  -0.91549
 Alpha  occ. eigenvalues --   -0.91446  -0.91127  -0.91075  -0.90746  -0.89960
 Alpha  occ. eigenvalues --   -0.89081  -0.88507  -0.87952  -0.86426  -0.85940
 Alpha  occ. eigenvalues --   -0.83846  -0.83353  -0.81567  -0.81367  -0.80451
 Alpha  occ. eigenvalues --   -0.79537  -0.79327  -0.77984  -0.77569  -0.77528
 Alpha  occ. eigenvalues --   -0.76281  -0.75688  -0.75479  -0.75023  -0.74695
 Alpha  occ. eigenvalues --   -0.74321  -0.73760  -0.72388  -0.72044  -0.71336
 Alpha  occ. eigenvalues --   -0.71193  -0.70106  -0.69351  -0.68305  -0.68038
 Alpha  occ. eigenvalues --   -0.67030  -0.66852  -0.66633  -0.66117  -0.65421
 Alpha  occ. eigenvalues --   -0.64887  -0.64589  -0.64217  -0.63595  -0.63536
 Alpha  occ. eigenvalues --   -0.63101  -0.62222  -0.61774  -0.61078  -0.60917
 Alpha  occ. eigenvalues --   -0.60768  -0.60321  -0.60070  -0.60062  -0.59745
 Alpha  occ. eigenvalues --   -0.59417  -0.58854  -0.58612  -0.58049  -0.57925
 Alpha  occ. eigenvalues --   -0.57475  -0.57337  -0.56781  -0.56237  -0.55807
 Alpha  occ. eigenvalues --   -0.55608  -0.55504  -0.55436  -0.55036  -0.54800
 Alpha  occ. eigenvalues --   -0.54187  -0.54096  -0.53288  -0.53253  -0.52536
 Alpha  occ. eigenvalues --   -0.52511  -0.52296  -0.52228  -0.51310  -0.51086
 Alpha  occ. eigenvalues --   -0.50692  -0.50640  -0.50404  -0.50033  -0.49908
 Alpha  occ. eigenvalues --   -0.49746  -0.49359  -0.49196  -0.49042  -0.48950
 Alpha  occ. eigenvalues --   -0.48606  -0.48209  -0.48122  -0.48002  -0.47891
 Alpha  occ. eigenvalues --   -0.47715  -0.47522  -0.47396  -0.47104  -0.46726
 Alpha  occ. eigenvalues --   -0.46712  -0.46285  -0.46032  -0.45842  -0.45499
 Alpha  occ. eigenvalues --   -0.45432  -0.45287  -0.45184  -0.45077  -0.44785
 Alpha  occ. eigenvalues --   -0.44521  -0.44450  -0.44305  -0.44225  -0.44069
 Alpha  occ. eigenvalues --   -0.43967  -0.43881  -0.43685  -0.43657  -0.43342
 Alpha  occ. eigenvalues --   -0.43268  -0.43141  -0.43030  -0.42958  -0.42590
 Alpha  occ. eigenvalues --   -0.42218  -0.42075  -0.41906  -0.41668  -0.41601
 Alpha  occ. eigenvalues --   -0.41569  -0.41378  -0.41267  -0.41149  -0.41043
 Alpha  occ. eigenvalues --   -0.40701  -0.40599  -0.40408  -0.40338  -0.40172
 Alpha  occ. eigenvalues --   -0.40108  -0.40077  -0.39955  -0.39831  -0.39678
 Alpha  occ. eigenvalues --   -0.39577  -0.39467  -0.39385  -0.39323  -0.39021
 Alpha  occ. eigenvalues --   -0.38981  -0.38875  -0.38737  -0.38642  -0.38433
 Alpha  occ. eigenvalues --   -0.38127  -0.37897  -0.37891  -0.37369  -0.37300
 Alpha  occ. eigenvalues --   -0.37131  -0.36872  -0.36769  -0.36767  -0.36511
 Alpha  occ. eigenvalues --   -0.36307  -0.36068  -0.35978  -0.35866  -0.35395
 Alpha  occ. eigenvalues --   -0.35071  -0.34596  -0.34386  -0.34323  -0.34188
 Alpha  occ. eigenvalues --   -0.34106  -0.33724  -0.33621  -0.33240  -0.32956
 Alpha  occ. eigenvalues --   -0.32865  -0.32485  -0.32114  -0.31903  -0.31866
 Alpha  occ. eigenvalues --   -0.31120  -0.30720  -0.30410  -0.30161  -0.29964
 Alpha  occ. eigenvalues --   -0.29750  -0.29615  -0.29412  -0.29178  -0.28893
 Alpha  occ. eigenvalues --   -0.28520  -0.28433  -0.27764  -0.27662  -0.27556
 Alpha  occ. eigenvalues --   -0.27277  -0.27204  -0.26986  -0.26654  -0.26531
 Alpha  occ. eigenvalues --   -0.25953  -0.25741  -0.25608  -0.25592  -0.25381
 Alpha  occ. eigenvalues --   -0.25061  -0.24813  -0.24659  -0.24602  -0.23951
 Alpha  occ. eigenvalues --   -0.23653  -0.23194  -0.23152  -0.22766  -0.22516
 Alpha  occ. eigenvalues --   -0.21776  -0.21560  -0.19448  -0.18904  -0.18732
 Alpha  occ. eigenvalues --   -0.12254  -0.11708  -0.09627
 Alpha virt. eigenvalues --   -0.08746  -0.07197  -0.03665  -0.02939  -0.02767
 Alpha virt. eigenvalues --   -0.02579  -0.02487  -0.02222  -0.01878  -0.01445
 Alpha virt. eigenvalues --   -0.01172  -0.00609  -0.00417  -0.00256   0.00180

 Mulliken charges:
               1
     1  C    0.085679
     2  C    0.008714
     3  O   -0.284093
     4  H    0.071258
     5  H    0.002663
     6  H   -0.030091
     7  N   -0.149222
     8  C    0.114191
     9  C    0.065035
    10  O   -0.266838
    11  C    0.070769
    12  C    0.030562
    13  O   -0.366569
    14  O   -0.354028
    15  H    0.102904
    16  H   -0.004643
    17  H   -0.001865
    18  H   -0.011332
    19  N   -0.108836
    20  C    0.122651
    21  C    0.025485
    22  O   -0.308581
    23  C    0.066759
    24  C   -0.042304
    25  C    0.006882
    26  C    0.041489
    27  N    0.121182
    28  H    0.117747
    29  H    0.010488
    30  H    0.013289
    31  H    0.014432
    32  H    0.016006
    33  H   -0.014743
    34  H    0.015889
    35  H    0.040663
    36  H    0.056206
    37  H    0.056445
    38  H    0.140155
    39  H    0.159466
    40  H    0.121674
    41  N   -0.091809
    42  C    0.061139
    43  C    0.041741
    44  O   -0.220277
    45  C    0.150838
    46  C    0.065268
    47  O   -0.477209
    48  O   -0.354513
    49  H    0.139721
    50  H    0.031996
    51  H    0.008580
    52  H   -0.007262
    53  N   -0.134990
    54  C    0.204852
    55  C    0.107446
    56  O   -0.380160
    57  H    0.123671
    58  H    0.026464
    59  H    0.060912
    60  N   -0.146915
    61  C    0.128206
    62  C    0.072031
    63  O   -0.292491
    64  C    0.060272
    65  C    0.024996
    66  N   -0.049721
    67  O   -0.303043
    68  H    0.144786
    69  H    0.037447
    70  H    0.053319
    71  H    0.026424
    72  H    0.144449
    73  H    0.140298
    74  N   -0.104066
    75  C    0.223231
    76  C    0.024540
    77  O   -0.283470
    78  H    0.117476
    79  H    0.010588
    80  H    0.043655
    81  N   -0.116009
    82  C    0.098719
    83  C    0.071290
    84  O   -0.274078
    85  C    0.131646
    86  C   -0.036927
    87  C    0.028995
    88  C   -0.013959
    89  C   -0.032640
    90  C   -0.043134
    91  C    0.133185
    92  O   -0.190309
    93  H    0.127997
    94  H    0.014251
    95  H    0.009963
    96  H    0.024260
    97  H   -0.007059
    98  H   -0.023768
    99  H   -0.014325
   100  H   -0.043235
   101  H    0.175376
   102  N   -0.134888
   103  C    0.209333
   104  C    0.067062
   105  O   -0.254548
   106  C   -0.117827
   107  C   -0.001204
   108  C    0.086738
   109  C    0.041473
   110  H    0.140140
   111  H   -0.002760
   112  H   -0.020224
   113  H    0.006869
   114  H   -0.023535
   115  H   -0.000173
   116  H   -0.033171
   117  H    0.015344
   118  H    0.011676
   119  H    0.019216
   120  H    0.014369
   121  N   -0.151153
   122  C    0.040933
   123  C    0.037435
   124  O   -0.266711
   125  C    0.268996
   126  O   -0.274758
   127  H    0.147175
   128  H    0.023338
   129  H   -0.013417
   130  H    0.019656
   131  H    0.151410
   132  N   -0.120689
   133  C    0.048693
   134  C    0.058689
   135  O   -0.281873
   136  C    0.081656
   137  H    0.115980
   138  H    0.020566
   139  H    0.018556
   140  H   -0.011720
   141  H    0.039959
   142  N   -0.133784
   143  C    0.065204
   144  C    0.066501
   145  O   -0.276700
   146  C    0.085534
   147  H    0.130800
   148  H    0.001819
   149  H    0.028900
   150  H   -0.006502
   151  H    0.050253
   152  N   -0.132826
   153  C    0.098308
   154  C    0.054486
   155  O   -0.279862
   156  C    0.089933
   157  C    0.081273
   158  C    0.019449
   159  O   -0.377594
   160  O   -0.438524
   161  H    0.123575
   162  H    0.012417
   163  H   -0.017125
   164  H   -0.008022
   165  H   -0.009246
   166  H   -0.001037
   167  N   -0.144941
   168  C    0.127616
   169  H    0.024353
   170  H    0.030729
   171  H    0.040370
   172  H    0.106974
   173  Ca   1.378238
   174  O   -0.316147
   175  H    0.180933
   176  H    0.163841
 Sum of Mulliken charges =  -0.00000

 Dipole moment (field-independent basis, Debye):
    X=              5.1548    Y=            -24.5629    Z=             -8.9250  Tot=             26.6376
 Quadrupole moment (field-independent basis, Debye-Ang):
   XX=           -412.4000   YY=           -587.0097   ZZ=           -541.7355
   XY=           -354.5455   XZ=            -70.9260   YZ=            -66.7429

 ESP charges:
               1
     1  C   -0.413731
     2  C    0.657905
     3  O   -0.552148
     4  H    0.173457
     5  H    0.088782
     6  H    0.067089
     7  N   -0.551244
     8  C    0.121169
     9  C    0.436945
    10  O   -0.503130
    11  C   -0.046968
    12  C    0.687912
    13  O   -0.678804
    14  O   -0.648431
    15  H    0.292050
    16  H    0.057761
    17  H   -0.005067
    18  H    0.002826
    19  N   -0.497183
    20  C    0.321679
    21  C    0.580715
    22  O   -0.591722
    23  C   -0.300142
    24  C    0.171789
    25  C   -0.144997
    26  C    0.183075
    27  N   -0.360459
    28  H    0.247938
    29  H    0.001162
    30  H    0.072866
    31  H    0.093478
    32  H    0.014325
    33  H   -0.076053
    34  H    0.035194
    35  H    0.067271
    36  H    0.033604
    37  H    0.034337
    38  H    0.293445
    39  H    0.313323
    40  H    0.253519
    41  N   -0.498790
    42  C    0.337538
    43  C    0.415564
    44  O   -0.412507
    45  C   -0.333595
    46  C    0.730880
    47  O   -0.755363
    48  O   -0.674685
    49  H    0.256500
    50  H    0.028543
    51  H    0.092837
    52  H    0.084173
    53  N   -0.419392
    54  C    0.102102
    55  C    0.572605
    56  O   -0.479064
    57  H    0.187537
    58  H    0.036443
    59  H    0.097599
    60  N   -0.854293
    61  C    0.182874
    62  C    0.514582
    63  O   -0.513124
    64  C   -0.039619
    65  C    0.622514
    66  N   -0.815841
    67  O   -0.529761
    68  H    0.407229
    69  H    0.074439
    70  H    0.005447
    71  H    0.072883
    72  H    0.405915
    73  H    0.404457
    74  N   -0.322846
    75  C   -0.310143
    76  C    0.715898
    77  O   -0.554081
    78  H    0.314566
    79  H    0.124784
    80  H    0.156279
    81  N   -0.603947
    82  C    0.218143
    83  C    0.368274
    84  O   -0.537349
    85  C   -0.292450
    86  C    0.001119
    87  C   -0.117505
    88  C   -0.036782
    89  C   -0.266442
    90  C   -0.378963
    91  C    0.416012
    92  O   -0.556285
    93  H    0.318475
    94  H    0.080706
    95  H    0.159218
    96  H    0.116821
    97  H    0.138761
    98  H    0.109497
    99  H    0.171495
   100  H    0.140062
   101  H    0.416821
   102  N   -0.296797
   103  C   -0.172859
   104  C    0.583223
   105  O   -0.507817
   106  C    0.342938
   107  C    0.330955
   108  C   -0.437411
   109  C   -0.347021
   110  H    0.221159
   111  H    0.065021
   112  H   -0.081911
   113  H   -0.105036
   114  H   -0.070113
   115  H    0.115820
   116  H    0.085721
   117  H    0.083849
   118  H    0.059506
   119  H    0.097756
   120  H    0.073717
   121  N   -0.164734
   122  C   -0.564729
   123  C    0.628498
   124  O   -0.499085
   125  C    0.474484
   126  O   -0.603070
   127  H    0.286929
   128  H    0.202406
   129  H   -0.011548
   130  H   -0.009679
   131  H    0.376130
   132  N   -0.542229
   133  C    0.439885
   134  C    0.472319
   135  O   -0.520337
   136  C   -0.331545
   137  H    0.226638
   138  H   -0.000039
   139  H    0.066115
   140  H    0.070869
   141  H    0.104679
   142  N   -0.784223
   143  C    0.860443
   144  C    0.379421
   145  O   -0.537992
   146  C   -0.388454
   147  H    0.262717
   148  H   -0.112012
   149  H    0.095564
   150  H    0.032779
   151  H    0.134851
   152  N   -0.584953
   153  C    0.375852
   154  C    0.406144
   155  O   -0.505196
   156  C   -0.136073
   157  C   -0.257806
   158  C    0.826167
   159  O   -0.730373
   160  O   -0.779040
   161  H    0.278537
   162  H   -0.015350
   163  H    0.001002
   164  H    0.067484
   165  H    0.087940
   166  H    0.059118
   167  N   -0.327129
   168  C    0.018922
   169  H    0.049419
   170  H    0.039201
   171  H    0.057542
   172  H    0.225672
   173  Ca   1.552253
   174  O   -0.836861
   175  H    0.439905
   176  H    0.371563
 Sum of ESP charges =   0.00000

 Normal termination of Gaussian 16 at Tue Sep 17 10:26:39 2019.
