 Gaussian 16, Revision A.03,
 Gaussian 16:  ES64L-G16RevA.03 25-Dec-2016

 ----------------------------------------------------------------------
 #b3lyp/svp scf=(tight,noincore) Test #IOP(5/87=12) Density=Current Pop
 =(MK,readradii) iop(6/33=2) iop(6/42=6)
 ----------------------------------------------------------------------

 -----------------
 Ng-295_loop3_15.0
 -----------------
 Symbolic Z-matrix:
 Charge =  0 Multiplicity = 1

                         Standard orientation:
 ---------------------------------------------------------------------
 Center     Atomic      Atomic             Coordinates (Angstroms)
 Number     Number       Type             X           Y           Z
 ---------------------------------------------------------------------
      1          6           0      -10.722000    4.451566    4.384677
      2          6           0       -9.613754    4.182773    3.383208
      3          8           0       -8.991602    5.148267    2.944632
      4          1           0      -10.286281    4.644440    5.364629
      5          1           0      -11.297352    5.320941    4.065962
      6          1           0      -11.377730    3.582608    4.444240
      7          7           0       -9.383279    2.916997    3.049153
      8          6           0       -8.401514    2.362267    2.136239
      9          6           0       -8.887560    1.230923    1.244488
     10          8           0       -9.249450    0.188243    1.787493
     11          6           0       -7.241453    1.901324    3.022969
     12          6           0       -5.987484    1.474700    2.266559
     13          8           0       -4.986729    2.221685    2.268455
     14          8           0       -5.924652    0.370279    1.690100
     15          1           0       -9.855048    2.181052    3.558386
     16          1           0       -8.118691    3.216115    1.530060
     17          1           0       -7.585898    1.079125    3.643328
     18          1           0       -6.985325    2.766925    3.649732
     19          7           0       -8.956571    1.374264   -0.080574
     20          6           0       -9.805900    0.630853   -0.983890
     21          6           0       -9.186316   -0.204275   -2.104415
     22          8           0       -9.910013   -0.777682   -2.911735
     23          6           0      -10.827564    1.564524   -1.619075
     24          6           0      -11.781651    2.308782   -0.691553
     25          6           0      -12.482420    3.402791   -1.488967
     26          6           0      -13.589359    4.109787   -0.719394
     27          7           0      -14.678034    3.208702   -0.301024
     28          1           0       -8.548334    2.243138   -0.386844
     29          1           0      -10.374272   -0.099390   -0.413539
     30          1           0      -11.369503    1.119572   -2.452154
     31          1           0      -10.103075    2.219573   -2.118902
     32          1           0      -11.152025    2.742281    0.089759
     33          1           0      -12.497320    1.592566   -0.263705
     34          1           0      -12.896868    2.990463   -2.405001
     35          1           0      -11.830327    4.221119   -1.786312
     36          1           0      -13.984872    4.963979   -1.277002
     37          1           0      -13.178898    4.609343    0.160927
     38          1           0      -15.448203    3.676068    0.139667
     39          1           0      -15.067840    2.778428   -1.140437
     40          1           0      -14.346723    2.498313    0.326575
     41          7           0       -7.863303   -0.264969   -2.249164
     42          6           0       -7.073303   -0.756934   -3.359781
     43          6           0       -6.850713   -2.269463   -3.318401
     44          8           0       -6.260843   -2.800708   -4.259003
     45          6           0       -5.774456    0.015094   -3.528807
     46          6           0       -4.767938   -0.008806   -2.380700
     47          8           0       -5.020292   -0.639137   -1.329985
     48          8           0       -3.662596    0.565950   -2.491935
     49          1           0       -7.329847   -0.003932   -1.430332
     50          1           0       -7.569019   -0.498081   -4.293462
     51          1           0       -6.089566    1.033725   -3.716151
     52          1           0       -5.338564   -0.382875   -4.448708
     53          7           0       -7.275125   -2.953239   -2.261413
     54          6           0       -6.933146   -4.349394   -2.066725
     55          6           0       -5.576740   -4.542066   -1.383907
     56          8           0       -5.251555   -5.702599   -1.188666
     57          1           0       -7.584054   -2.411396   -1.463497
     58          1           0       -6.979916   -4.950713   -2.972996
     59          1           0       -7.648384   -4.764485   -1.357054
     60          7           0       -4.735350   -3.597765   -0.963480
     61          6           0       -3.403730   -3.872866   -0.451224
     62          6           0       -2.990798   -3.083664    0.780664
     63          8           0       -3.288532   -1.893871    0.886239
     64          6           0       -2.476366   -3.653745   -1.635235
     65          6           0       -1.026847   -3.896384   -1.247262
     66          7           0       -0.254479   -2.820220   -1.421097
     67          8           0       -0.666469   -4.884826   -0.613220
     68          1           0       -5.044381   -2.641738   -1.055200
     69          1           0       -3.357282   -4.939240   -0.196489
     70          1           0       -2.616004   -2.591105   -1.863483
     71          1           0       -2.799981   -4.275401   -2.465064
     72          1           0       -0.574290   -2.213591   -2.155006
     73          1           0        0.739596   -2.916113   -1.259480
     74          7           0       -2.239354   -3.716376    1.685488
     75          6           0       -1.544372   -3.100330    2.801771
     76          6           0       -0.019107   -3.076878    2.783962
     77          8           0        0.560596   -2.093533    3.214167
     78          1           0       -2.148239   -4.688820    1.431025
     79          1           0       -1.828031   -3.580249    3.733337
     80          1           0       -1.762799   -2.033703    2.821668
     81          7           0        0.642762   -4.053190    2.162315
     82          6           0        2.086387   -4.101130    2.054851
     83          6           0        2.641507   -3.051353    1.101588
     84          8           0        2.086226   -2.759111    0.046099
     85          6           0        2.483110   -5.545256    1.748238
     86          6           0        3.981412   -5.691392    1.921252
     87          6           0        4.876164   -5.760062    0.849989
     88          6           0        4.512328   -5.772868    3.211442
     89          6           0        6.254484   -5.957997    1.005083
     90          6           0        5.887233   -5.964010    3.442313
     91          6           0        6.740192   -6.029179    2.322665
     92          8           0        8.081492   -6.241583    2.454953
     93          1           0        0.226408   -4.844433    1.695858
     94          1           0        2.457945   -3.976455    3.073919
     95          1           0        2.153878   -5.779394    0.734293
     96          1           0        2.034522   -6.362818    2.293546
     97          1           0        4.473238   -5.778357   -0.154957
     98          1           0        3.954685   -5.706977    4.131873
     99          1           0        6.938770   -6.107197    0.186247
    100          1           0        6.296397   -5.894727    4.431093
    101          1           0        8.490666   -6.164371    3.320294
    102          7           0        3.815980   -2.530969    1.482658
    103          6           0        4.719755   -1.557822    0.910929
    104          6           0        5.362667   -1.888711   -0.422667
    105          8           0        4.806583   -2.643714   -1.224627
    106          6           0        4.151009   -0.140709    0.812352
    107          6           0        3.526969    0.451447    2.067950
    108          6           0        3.212704    0.149954   -0.352637
    109          6           0        3.293410    1.959129    2.130763
    110          1           0        4.096480   -2.836522    2.396309
    111          1           0        5.468759   -1.497812    1.704712
    112          1           0        5.011141    0.495769    0.590835
    113          1           0        4.102288    0.278106    2.980398
    114          1           0        2.571083   -0.063394    2.166034
    115          1           0        2.185452    0.040228    0.012073
    116          1           0        3.370411    1.193908   -0.586921
    117          1           0        3.390750   -0.399217   -1.279843
    118          1           0        4.268393    2.412665    1.970413
    119          1           0        2.644339    2.306924    1.319440
    120          1           0        2.798319    2.165646    3.079676
    121          7           0        6.574161   -1.350311   -0.626152
    122          6           0        7.396719   -1.593229   -1.798538
    123          6           0        8.809675   -1.045228   -1.782658
    124          8           0        9.554179   -1.248359   -2.748345
    125          6           0        6.805372   -1.124676   -3.122195
    126          8           0        6.314597    0.192758   -3.047322
    127          1           0        6.897051   -0.756525    0.121685
    128          1           0        7.554849   -2.659624   -1.939944
    129          1           0        5.924038   -1.731497   -3.341099
    130          1           0        7.452791   -1.180040   -3.993335
    131          1           0        5.390382    0.268341   -3.283149
    132          7           0        9.195093   -0.329319   -0.718315
    133          6           0       10.439737    0.390006   -0.511596
    134          6           0       11.011522    1.114360   -1.723938
    135          8           0       11.992256    0.797083   -2.395574
    136          6           0       11.389443   -0.553266    0.220182
    137          1           0        8.639733   -0.584261    0.081860
    138          1           0       10.181201    1.195040    0.164702
    139          1           0       12.142064    0.124552    0.638064
    140          1           0       10.856528   -0.925624    1.097878
    141          1           0       11.789146   -1.345825   -0.399404
    142          7           0       10.458132    2.250685   -2.151637
    143          6           0        9.328667    3.018755   -1.686798
    144          6           0        9.858096    4.303618   -1.054950
    145          8           0       10.972070    4.686019   -1.404565
    146          6           0        8.517853    3.342042   -2.934742
    147          1           0       10.957576    2.694225   -2.910536
    148          1           0        8.766671    2.434587   -0.956381
    149          1           0        9.154278    3.746166   -3.715605
    150          1           0        8.082832    2.433938   -3.362532
    151          1           0        7.731584    4.052658   -2.648551
    152          7           0        9.098471    4.955733   -0.169786
    153          6           0        7.718966    4.799979    0.247835
    154          6           0        7.658733    4.836240    1.773992
    155          8           0        6.591612    4.635761    2.344309
    156          6           0        6.845496    5.869015   -0.398085
    157          6           0        5.347583    5.805265   -0.100942
    158          6           0        4.698752    6.803189   -1.057637
    159          8           0        4.483226    7.981297   -0.709770
    160          8           0        4.331674    6.457152   -2.197861
    161          1           0        9.547709    5.743012    0.272116
    162          1           0        7.365380    3.818861   -0.050969
    163          1           0        7.096108    5.757375   -1.457580
    164          1           0        7.174998    6.777072    0.100173
    165          1           0        5.110914    6.085193    0.925619
    166          1           0        4.956962    4.799105   -0.257967
    167          7           0        8.763705    5.146807    2.462385
    168          6           0        8.890945    5.476402    3.866442
    169          1           0        9.382501    4.655962    4.388798
    170          1           0        9.485542    6.383219    3.975056
    171          1           0        7.901147    5.637254    4.294228
    172          1           0        9.594168    5.159404    1.882408
    173         20           0       -3.646115    0.815814    0.495229
    174          8           0       -5.212016    2.576919   -0.684714
    175          1           0       -4.992183    2.983731   -1.518907
    176          1           0       -5.752397    3.220226   -0.237562
 ---------------------------------------------------------------------

 SCF Done:  E(RB3LYP) =  -5333.36377980     A.U. after   82 cycles

 The electronic state is 1-A.
 Alpha  occ. eigenvalues -- -145.45724 -19.20804 -19.16317 -19.13696 -19.13124
 Alpha  occ. eigenvalues --  -19.11677 -19.11603 -19.11402 -19.10981 -19.10386
 Alpha  occ. eigenvalues --  -19.10069 -19.09910 -19.09365 -19.09205 -19.09053
 Alpha  occ. eigenvalues --  -19.08641 -19.08566 -19.08425 -19.07654 -19.07530
 Alpha  occ. eigenvalues --  -19.07255 -19.05723 -18.97264 -18.97233 -15.51532
 Alpha  occ. eigenvalues --  -14.56142 -14.40568 -14.39104 -14.38878 -14.37225
 Alpha  occ. eigenvalues --  -14.37123 -14.36356 -14.36256 -14.35928 -14.35793
 Alpha  occ. eigenvalues --  -14.34403 -14.34334 -14.34248 -14.33825 -14.31618
 Alpha  occ. eigenvalues --  -12.65130 -12.65117 -12.65069 -10.34799 -10.32197
 Alpha  occ. eigenvalues --  -10.31803 -10.31322 -10.30832 -10.29789 -10.29332
 Alpha  occ. eigenvalues --  -10.29037 -10.28734 -10.28275 -10.28144 -10.28028
 Alpha  occ. eigenvalues --  -10.28019 -10.27971 -10.27790 -10.27196 -10.27090
 Alpha  occ. eigenvalues --  -10.26957 -10.26539 -10.26305 -10.25896 -10.25828
 Alpha  occ. eigenvalues --  -10.25411 -10.24532 -10.24490 -10.24453 -10.24378
 Alpha  occ. eigenvalues --  -10.24315 -10.23628 -10.23384 -10.23380 -10.22376
 Alpha  occ. eigenvalues --  -10.21722 -10.21677 -10.21511 -10.21497 -10.20522
 Alpha  occ. eigenvalues --  -10.20336 -10.20162 -10.19976 -10.19927 -10.19761
 Alpha  occ. eigenvalues --  -10.19724 -10.19562 -10.19180 -10.19072 -10.17878
 Alpha  occ. eigenvalues --  -10.17097 -10.16319 -10.16288 -10.16243 -10.16224
 Alpha  occ. eigenvalues --  -10.15151 -10.11194  -1.88122  -1.15518  -1.15365
 Alpha  occ. eigenvalues --   -1.15084  -1.12033  -1.06986  -1.06717  -1.06206
 Alpha  occ. eigenvalues --   -1.05130  -1.04787  -1.04737  -1.04569  -1.04298
 Alpha  occ. eigenvalues --   -1.03814  -1.03390  -1.02591  -1.02551  -1.02283
 Alpha  occ. eigenvalues --   -1.01756  -1.01736  -1.01301  -1.00489  -0.99618
 Alpha  occ. eigenvalues --   -0.99306  -0.97129  -0.95771  -0.95273  -0.94182
 Alpha  occ. eigenvalues --   -0.93578  -0.93392  -0.93369  -0.93212  -0.92913
 Alpha  occ. eigenvalues --   -0.92178  -0.92021  -0.92017  -0.92003  -0.90965
 Alpha  occ. eigenvalues --   -0.89857  -0.89785  -0.89708  -0.88586  -0.85765
 Alpha  occ. eigenvalues --   -0.84498  -0.82030  -0.81487  -0.81068  -0.80230
 Alpha  occ. eigenvalues --   -0.79970  -0.79113  -0.78485  -0.78086  -0.76261
 Alpha  occ. eigenvalues --   -0.76113  -0.76035  -0.75408  -0.75021  -0.74265
 Alpha  occ. eigenvalues --   -0.74050  -0.73504  -0.72438  -0.72424  -0.71509
 Alpha  occ. eigenvalues --   -0.71222  -0.70192  -0.69943  -0.69186  -0.68053
 Alpha  occ. eigenvalues --   -0.67338  -0.66577  -0.66490  -0.66165  -0.65907
 Alpha  occ. eigenvalues --   -0.64426  -0.64086  -0.63759  -0.63155  -0.62553
 Alpha  occ. eigenvalues --   -0.62323  -0.62114  -0.61611  -0.61427  -0.61149
 Alpha  occ. eigenvalues --   -0.60599  -0.60069  -0.59865  -0.59686  -0.59465
 Alpha  occ. eigenvalues --   -0.59153  -0.58957  -0.58584  -0.58488  -0.57983
 Alpha  occ. eigenvalues --   -0.57446  -0.56958  -0.56467  -0.56385  -0.56179
 Alpha  occ. eigenvalues --   -0.55971  -0.55736  -0.55596  -0.55393  -0.54582
 Alpha  occ. eigenvalues --   -0.53835  -0.53657  -0.53536  -0.53030  -0.52832
 Alpha  occ. eigenvalues --   -0.52655  -0.52492  -0.51652  -0.51538  -0.51272
 Alpha  occ. eigenvalues --   -0.50845  -0.50767  -0.50374  -0.50128  -0.49905
 Alpha  occ. eigenvalues --   -0.49768  -0.49652  -0.49541  -0.49012  -0.48644
 Alpha  occ. eigenvalues --   -0.48366  -0.48179  -0.47969  -0.47907  -0.47587
 Alpha  occ. eigenvalues --   -0.47530  -0.47314  -0.47187  -0.46847  -0.46734
 Alpha  occ. eigenvalues --   -0.46578  -0.46476  -0.46161  -0.45672  -0.45612
 Alpha  occ. eigenvalues --   -0.45445  -0.45086  -0.45018  -0.44835  -0.44735
 Alpha  occ. eigenvalues --   -0.44588  -0.44530  -0.44518  -0.44226  -0.44110
 Alpha  occ. eigenvalues --   -0.43983  -0.43742  -0.43623  -0.43506  -0.43380
 Alpha  occ. eigenvalues --   -0.43280  -0.43139  -0.43004  -0.42840  -0.42680
 Alpha  occ. eigenvalues --   -0.42560  -0.42461  -0.42318  -0.42278  -0.42200
 Alpha  occ. eigenvalues --   -0.41974  -0.41630  -0.41509  -0.41344  -0.41294
 Alpha  occ. eigenvalues --   -0.40819  -0.40744  -0.40651  -0.40622  -0.40516
 Alpha  occ. eigenvalues --   -0.40231  -0.40125  -0.40059  -0.39717  -0.39678
 Alpha  occ. eigenvalues --   -0.39604  -0.39472  -0.39325  -0.39124  -0.39031
 Alpha  occ. eigenvalues --   -0.38701  -0.38547  -0.38419  -0.38120  -0.37988
 Alpha  occ. eigenvalues --   -0.37934  -0.37909  -0.37754  -0.37678  -0.37662
 Alpha  occ. eigenvalues --   -0.37399  -0.37255  -0.37236  -0.36998  -0.36973
 Alpha  occ. eigenvalues --   -0.36436  -0.36247  -0.36175  -0.36084  -0.35482
 Alpha  occ. eigenvalues --   -0.35397  -0.35309  -0.35040  -0.34834  -0.34662
 Alpha  occ. eigenvalues --   -0.34478  -0.34431  -0.34049  -0.33710  -0.33600
 Alpha  occ. eigenvalues --   -0.32979  -0.31777  -0.31729  -0.31692  -0.31537
 Alpha  occ. eigenvalues --   -0.31154  -0.30753  -0.30667  -0.30623  -0.29713
 Alpha  occ. eigenvalues --   -0.29616  -0.28615  -0.28292  -0.27900  -0.27835
 Alpha  occ. eigenvalues --   -0.27819  -0.27571  -0.27470  -0.27422  -0.27341
 Alpha  occ. eigenvalues --   -0.27313  -0.27207  -0.27012  -0.26713  -0.26693
 Alpha  occ. eigenvalues --   -0.26390  -0.26367  -0.26312  -0.26172  -0.25598
 Alpha  occ. eigenvalues --   -0.25578  -0.25384  -0.24596  -0.24481  -0.24407
 Alpha  occ. eigenvalues --   -0.24292  -0.24199  -0.24078  -0.23907  -0.23760
 Alpha  occ. eigenvalues --   -0.23216  -0.22968  -0.22174  -0.22075  -0.21522
 Alpha  occ. eigenvalues --   -0.14720  -0.14127  -0.10705
 Alpha virt. eigenvalues --   -0.10171  -0.07892  -0.04131  -0.03872  -0.03296
 Alpha virt. eigenvalues --   -0.02889  -0.02427  -0.01777  -0.01425  -0.00996
 Alpha virt. eigenvalues --   -0.00603  -0.00159   0.00085   0.00316   0.00724

 Mulliken charges:
               1
     1  C    0.059395
     2  C   -0.001020
     3  O   -0.284773
     4  H    0.058105
     5  H    0.031381
     6  H   -0.014996
     7  N   -0.125113
     8  C    0.088552
     9  C    0.084158
    10  O   -0.266051
    11  C    0.154351
    12  C    0.047188
    13  O   -0.434851
    14  O   -0.398450
    15  H    0.121017
    16  H   -0.035244
    17  H    0.020413
    18  H    0.016157
    19  N   -0.115354
    20  C    0.188416
    21  C    0.028304
    22  O   -0.269755
    23  C   -0.061298
    24  C    0.053407
    25  C   -0.012605
    26  C    0.052987
    27  N    0.167191
    28  H    0.102614
    29  H    0.026413
    30  H    0.033914
    31  H   -0.011082
    32  H    0.008325
    33  H   -0.013216
    34  H    0.022985
    35  H    0.042657
    36  H    0.053027
    37  H    0.049434
    38  H    0.081632
    39  H    0.094301
    40  H    0.104701
    41  N   -0.152882
    42  C    0.153475
    43  C    0.058905
    44  O   -0.279524
    45  C    0.049699
    46  C    0.108549
    47  O   -0.427827
    48  O   -0.399678
    49  H    0.129819
    50  H    0.015478
    51  H   -0.009410
    52  H    0.053293
    53  N   -0.134836
    54  C    0.237859
    55  C    0.004253
    56  O   -0.306061
    57  H    0.126109
    58  H    0.056693
    59  H    0.025586
    60  N   -0.137058
    61  C    0.103050
    62  C    0.111420
    63  O   -0.358062
    64  C    0.068636
    65  C    0.015667
    66  N   -0.047795
    67  O   -0.301513
    68  H    0.136337
    69  H    0.020620
    70  H    0.009925
    71  H    0.050239
    72  H    0.119910
    73  H    0.142976
    74  N   -0.120546
    75  C    0.229381
    76  C    0.028874
    77  O   -0.274801
    78  H    0.139752
    79  H    0.040453
    80  H    0.022366
    81  N   -0.111820
    82  C    0.057933
    83  C    0.156037
    84  O   -0.276398
    85  C    0.155751
    86  C   -0.050208
    87  C    0.021069
    88  C   -0.052157
    89  C   -0.005192
    90  C   -0.033767
    91  C    0.150109
    92  O   -0.217512
    93  H    0.129039
    94  H   -0.004685
    95  H    0.011099
    96  H    0.010625
    97  H   -0.007227
    98  H   -0.029263
    99  H   -0.015726
   100  H   -0.043781
   101  H    0.176138
   102  N   -0.100953
   103  C    0.160605
   104  C    0.092889
   105  O   -0.257570
   106  C   -0.117497
   107  C   -0.004986
   108  C    0.069711
   109  C    0.025714
   110  H    0.123934
   111  H   -0.026142
   112  H   -0.024208
   113  H   -0.025160
   114  H    0.008282
   115  H   -0.000442
   116  H    0.012690
   117  H    0.013913
   118  H    0.033505
   119  H    0.004338
   120  H    0.015034
   121  N   -0.136230
   122  C    0.154513
   123  C    0.037410
   124  O   -0.259365
   125  C    0.207725
   126  O   -0.332682
   127  H    0.117898
   128  H    0.030373
   129  H    0.002915
   130  H    0.032228
   131  H    0.175089
   132  N   -0.143430
   133  C    0.048951
   134  C    0.076710
   135  O   -0.258431
   136  C    0.089733
   137  H    0.098868
   138  H   -0.001559
   139  H    0.010655
   140  H   -0.020869
   141  H    0.058211
   142  N   -0.092063
   143  C   -0.000488
   144  C    0.058878
   145  O   -0.264472
   146  C    0.064056
   147  H    0.131283
   148  H    0.002263
   149  H    0.012542
   150  H    0.035034
   151  H    0.028088
   152  N   -0.128466
   153  C    0.110865
   154  C    0.025970
   155  O   -0.269720
   156  C    0.028060
   157  C    0.108995
   158  C    0.017885
   159  O   -0.332503
   160  O   -0.339617
   161  H    0.110823
   162  H    0.013134
   163  H    0.023988
   164  H   -0.004928
   165  H   -0.003757
   166  H   -0.038376
   167  N   -0.156892
   168  C    0.133162
   169  H    0.018482
   170  H    0.023502
   171  H    0.047764
   172  H    0.102710
   173  Ca   1.387281
   174  O   -0.283678
   175  H    0.183552
   176  H    0.177670
 Sum of Mulliken charges =  -0.00000

 Dipole moment (field-independent basis, Debye):
    X=            -51.6283    Y=             -4.1663    Z=             15.6949  Tot=             54.1218
 Quadrupole moment (field-independent basis, Debye-Ang):
   XX=            -97.6494   YY=           -706.6795   ZZ=           -575.0636
   XY=           -280.3004   XZ=            110.8682   YZ=            -19.0425

 ESP charges:
               1
     1  C   -0.452735
     2  C    0.786440
     3  O   -0.577595
     4  H    0.150585
     5  H    0.121534
     6  H    0.080972
     7  N   -0.738707
     8  C    0.268424
     9  C    0.441767
    10  O   -0.510218
    11  C   -0.184762
    12  C    0.684922
    13  O   -0.761678
    14  O   -0.693413
    15  H    0.342909
    16  H    0.013482
    17  H    0.080913
    18  H    0.089835
    19  N   -0.302157
    20  C    0.094491
    21  C    0.409758
    22  O   -0.552134
    23  C   -0.062204
    24  C    0.043261
    25  C   -0.156115
    26  C    0.143455
    27  N   -0.310447
    28  H    0.222022
    29  H    0.069639
    30  H    0.071540
    31  H    0.012542
    32  H   -0.022199
    33  H    0.005280
    34  H    0.049754
    35  H    0.091001
    36  H    0.049252
    37  H    0.054842
    38  H    0.224276
    39  H    0.234304
    40  H    0.246564
    41  N   -0.204518
    42  C   -0.091476
    43  C    0.490400
    44  O   -0.519874
    45  C   -0.315075
    46  C    0.912493
    47  O   -0.770346
    48  O   -0.761028
    49  H    0.140859
    50  H    0.154161
    51  H    0.072222
    52  H    0.123494
    53  N   -0.302278
    54  C   -0.243533
    55  C    0.625190
    56  O   -0.582358
    57  H    0.275631
    58  H    0.169435
    59  H    0.118452
    60  N   -0.431891
    61  C    0.026747
    62  C    0.516884
    63  O   -0.611731
    64  C   -0.277075
    65  C    0.585884
    66  N   -0.723661
    67  O   -0.553256
    68  H    0.302195
    69  H    0.094198
    70  H    0.069527
    71  H    0.159968
    72  H    0.337312
    73  H    0.372845
    74  N   -0.282880
    75  C   -0.039567
    76  C    0.725179
    77  O   -0.609195
    78  H    0.233602
    79  H    0.050627
    80  H    0.063501
    81  N   -0.580270
    82  C   -0.008126
    83  C    0.651971
    84  O   -0.492415
    85  C   -0.134115
    86  C    0.088286
    87  C   -0.165732
    88  C   -0.188309
    89  C   -0.211795
    90  C   -0.260183
    91  C    0.345874
    92  O   -0.575215
    93  H    0.337501
    94  H    0.063137
    95  H    0.078953
    96  H    0.082784
    97  H    0.133516
    98  H    0.139768
    99  H    0.171548
   100  H    0.130188
   101  H    0.424339
   102  N   -0.448399
   103  C   -0.434424
   104  C    0.822016
   105  O   -0.505484
   106  C    0.248255
   107  C   -0.002681
   108  C   -0.527758
   109  C   -0.192869
   110  H    0.293731
   111  H    0.148389
   112  H    0.027198
   113  H    0.011452
   114  H    0.054614
   115  H    0.141070
   116  H    0.128992
   117  H    0.160183
   118  H    0.040032
   119  H    0.048095
   120  H    0.068463
   121  N   -0.436920
   122  C   -0.374423
   123  C    0.605907
   124  O   -0.502273
   125  C    0.392719
   126  O   -0.626621
   127  H    0.227008
   128  H    0.139723
   129  H   -0.024308
   130  H    0.015446
   131  H    0.395899
   132  N   -0.281617
   133  C    0.217325
   134  C    0.453546
   135  O   -0.515860
   136  C   -0.460054
   137  H    0.229585
   138  H    0.015155
   139  H    0.125554
   140  H    0.102099
   141  H    0.148662
   142  N   -0.475278
   143  C    0.388373
   144  C    0.568811
   145  O   -0.558625
   146  C   -0.261354
   147  H    0.304651
   148  H   -0.089453
   149  H    0.084956
   150  H    0.074137
   151  H    0.069381
   152  N   -0.700954
   153  C   -0.027729
   154  C    0.489885
   155  O   -0.526824
   156  C    0.104387
   157  C   -0.336105
   158  C    0.694734
   159  O   -0.622567
   160  O   -0.625815
   161  H    0.346158
   162  H    0.106590
   163  H    0.037712
   164  H    0.024355
   165  H    0.112612
   166  H    0.067073
   167  N   -0.280438
   168  C   -0.064863
   169  H    0.043982
   170  H    0.063674
   171  H    0.093358
   172  H    0.229981
   173  Ca   1.684557
   174  O   -0.947191
   175  H    0.455737
   176  H    0.452494
 Sum of ESP charges =   0.00000

 Normal termination of Gaussian 16 at Wed Sep 18 00:08:11 2019.
