 Gaussian 16, Revision A.03,
 Gaussian 16:  ES64L-G16RevA.03 25-Dec-2016

 ----------------------------------------------------------------------
 #b3lyp/svp scf=(tight,noincore) Test #IOP(5/87=12) Density=Current Pop
 =(MK,readradii) iop(6/33=2) iop(6/42=6)
 ----------------------------------------------------------------------

 -----------------
 Ng-293_loop3_65.0
 -----------------
 Symbolic Z-matrix:
 Charge =  0 Multiplicity = 1

                         Standard orientation:
 ---------------------------------------------------------------------
 Center     Atomic      Atomic             Coordinates (Angstroms)
 Number     Number       Type             X           Y           Z
 ---------------------------------------------------------------------
      1          6           0       -6.948406   -4.260376    6.937233
      2          6           0       -7.500061   -4.032946    5.537893
      3          8           0       -8.710956   -3.873941    5.366283
      4          1           0       -7.761695   -4.203584    7.661076
      5          1           0       -6.483715   -5.244805    6.989145
      6          1           0       -6.205846   -3.494676    7.165009
      7          7           0       -6.673888   -4.117204    4.491882
      8          6           0       -7.128738   -3.893704    3.140638
      9          6           0       -6.156235   -3.072492    2.296156
     10          8           0       -4.976485   -2.976649    2.613650
     11          6           0       -7.402190   -5.245731    2.495234
     12          6           0       -7.990373   -5.300158    1.100645
     13          8           0       -7.868033   -6.365750    0.453385
     14          8           0       -8.602938   -4.283899    0.692990
     15          1           0       -5.668957   -4.090187    4.644146
     16          1           0       -8.020745   -3.285558    3.272480
     17          1           0       -8.027070   -5.923329    3.082163
     18          1           0       -6.431395   -5.748290    2.539869
     19          7           0       -6.650197   -2.369328    1.274901
     20          6           0       -5.968200   -1.582069    0.265939
     21          6           0       -4.959069   -2.410011   -0.512565
     22          8           0       -4.736046   -3.602601   -0.258418
     23          6           0       -5.369790   -0.260902    0.737130
     24          6           0       -6.358197    0.619210    1.486500
     25          6           0       -7.670866    0.874593    0.735448
     26          6           0       -8.688582    1.507046    1.679512
     27          7           0       -9.824477    1.940448    0.851258
     28          1           0       -7.579590   -2.626786    0.955930
     29          1           0       -6.749796   -1.332311   -0.440055
     30          1           0       -4.985033    0.279919   -0.128245
     31          1           0       -4.487092   -0.420123    1.361384
     32          1           0       -5.828845    1.547237    1.719426
     33          1           0       -6.610654    0.086148    2.398098
     34          1           0       -8.184570   -0.028451    0.421091
     35          1           0       -7.493344    1.572889   -0.084594
     36          1           0       -8.274722    2.361208    2.199153
     37          1           0       -9.005547    0.825644    2.471803
     38          1           0       -9.529067    2.776396    0.347846
     39          1           0      -10.114170    1.307824    0.116435
     40          1           0      -10.566052    2.098689    1.506412
     41          7           0       -4.424998   -1.768713   -1.551750
     42          6           0       -3.495776   -2.425975   -2.459028
     43          6           0       -2.053596   -2.201850   -2.027191
     44          8           0       -1.635456   -1.052999   -1.882970
     45          6           0       -3.834479   -2.021748   -3.898292
     46          6           0       -4.384237   -0.628896   -4.129220
     47          8           0       -4.086478    0.316721   -3.370504
     48          8           0       -5.163374   -0.374338   -5.078876
     49          1           0       -4.816165   -0.878650   -1.808216
     50          1           0       -3.674857   -3.494887   -2.379285
     51          1           0       -4.569594   -2.785488   -4.175613
     52          1           0       -2.965882   -2.177682   -4.534471
     53          7           0       -1.259413   -3.276456   -1.958668
     54          6           0        0.189671   -3.240427   -1.982322
     55          6           0        0.777147   -4.562285   -1.501320
     56          8           0        0.120830   -5.507661   -1.045566
     57          1           0       -1.623228   -4.211569   -1.928634
     58          1           0        0.613901   -2.460290   -1.354456
     59          1           0        0.597180   -3.071569   -2.975863
     60          7           0        2.080668   -4.706607   -1.724938
     61          6           0        2.864497   -5.907408   -1.519056
     62          6           0        4.306573   -5.622360   -1.136090
     63          8           0        4.853921   -6.249210   -0.228527
     64          6           0        2.670892   -6.722785   -2.801116
     65          6           0        3.433431   -8.036878   -2.744606
     66          7           0        2.727196   -9.169003   -2.638184
     67          8           0        4.657817   -8.071246   -2.820752
     68          1           0        2.505160   -3.913638   -2.186032
     69          1           0        2.425193   -6.527012   -0.737453
     70          1           0        2.946043   -6.228581   -3.738695
     71          1           0        1.626594   -7.012649   -2.937202
     72          1           0        1.723210   -9.065151   -2.596613
     73          1           0        3.173152  -10.041346   -2.887667
     74          7           0        4.911064   -4.607188   -1.764594
     75          6           0        6.198697   -4.029698   -1.468948
     76          6           0        5.960240   -2.672430   -0.828196
     77          8           0        4.852837   -2.352545   -0.384089
     78          1           0        4.306124   -4.105378   -2.408436
     79          1           0        6.762264   -3.835101   -2.387765
     80          1           0        6.784110   -4.707538   -0.852162
     81          7           0        7.037314   -1.927279   -0.539992
     82          6           0        7.227476   -0.840573    0.394839
     83          6           0        6.346137    0.396732    0.384045
     84          8           0        6.709414    1.375455    1.042704
     85          6           0        7.391077   -1.437744    1.796524
     86          6           0        8.404694   -2.554071    1.918972
     87          6           0        8.008123   -3.739628    2.541294
     88          6           0        9.748349   -2.302604    1.615728
     89          6           0        9.033911   -4.620428    2.922544
     90          6           0       10.766420   -3.213316    1.931056
     91          6           0       10.393116   -4.383165    2.611789
     92          8           0       11.363272   -5.286365    2.920216
     93          1           0        7.934078   -2.225357   -0.888939
     94          1           0        8.207258   -0.505382    0.071923
     95          1           0        6.398785   -1.799476    2.090473
     96          1           0        7.789394   -0.669487    2.446467
     97          1           0        7.001529   -3.945389    2.843506
     98          1           0       10.019006   -1.382511    1.114954
     99          1           0        8.816247   -5.520845    3.482518
    100          1           0       11.781064   -3.180075    1.559043
    101          1           0       12.264846   -5.102305    2.628009
    102          7           0        5.204912    0.465499   -0.311496
    103          6           0        4.160105    1.470938   -0.222211
    104          6           0        4.464816    2.868310   -0.729658
    105          8           0        3.500493    3.439574   -1.237043
    106          6           0        3.382243    1.417209    1.091617
    107          6           0        2.933992    0.014085    1.459196
    108          6           0        2.170726    2.346818    1.125605
    109          6           0        2.090583   -0.807051    0.480320
    110          1           0        4.962274   -0.440323   -0.685142
    111          1           0        3.449191    1.234556   -1.020788
    112          1           0        4.081605    1.744811    1.866840
    113          1           0        2.285611    0.061018    2.331434
    114          1           0        3.839173   -0.560768    1.677809
    115          1           0        1.601845    2.366654    2.053927
    116          1           0        2.522997    3.366597    0.978104
    117          1           0        1.549102    2.054857    0.284152
    118          1           0        2.622431   -1.004348   -0.442020
    119          1           0        1.957704   -1.735668    1.029514
    120          1           0        1.197140   -0.238488    0.231332
    121          7           0        5.669929    3.400424   -0.519051
    122          6           0        5.975435    4.717407   -1.032587
    123          6           0        5.214053    5.853411   -0.363713
    124          8           0        5.077894    6.952851   -0.887633
    125          6           0        7.445966    5.071431   -0.801057
    126          8           0        7.884530    5.201596    0.526617
    127          1           0        6.361216    2.922967    0.044473
    128          1           0        5.808966    4.767629   -2.111413
    129          1           0        7.692748    6.047576   -1.190979
    130          1           0        8.157986    4.321529   -1.170617
    131          1           0        8.841172    5.159824    0.562536
    132          7           0        4.566281    5.641470    0.773069
    133          6           0        3.716820    6.602528    1.457308
    134          6           0        2.366189    6.941534    0.828999
    135          8           0        1.747029    7.876118    1.334463
    136          6           0        4.482556    7.827653    1.937326
    137          1           0        4.642184    4.714597    1.178709
    138          1           0        3.469931    6.098924    2.391293
    139          1           0        5.324919    7.387935    2.449353
    140          1           0        4.754444    8.497557    1.126706
    141          1           0        3.783761    8.284298    2.649267
    142          7           0        1.971899    6.224076   -0.228256
    143          6           0        0.613880    6.243733   -0.747194
    144          6           0       -0.488521    5.659110    0.126492
    145          8           0       -0.364301    4.587696    0.705838
    146          6           0        0.623727    5.751199   -2.191982
    147          1           0        2.571950    5.461945   -0.500279
    148          1           0        0.242331    7.262013   -0.739509
    149          1           0        1.408031    6.217911   -2.782275
    150          1           0        0.667010    4.667299   -2.049550
    151          1           0       -0.397260    5.936338   -2.552410
    152          7           0       -1.602415    6.391181    0.137055
    153          6           0       -2.853352    5.919470    0.715974
    154          6           0       -2.858800    5.759815    2.231685
    155          8           0       -3.823699    5.223108    2.753523
    156          6           0       -3.522960    4.790328   -0.066115
    157          6           0       -4.295944    5.209358   -1.314117
    158          6           0       -4.855240    4.000702   -2.050283
    159          8           0       -5.736976    3.217726   -1.649421
    160          8           0       -4.463796    3.796094   -3.222890
    161          1           0       -1.601650    7.303412   -0.295187
    162          1           0       -3.597524    6.721392    0.640943
    163          1           0       -4.237324    4.183489    0.494628
    164          1           0       -2.683940    4.155952   -0.351268
    165          1           0       -3.743510    5.843658   -1.995792
    166          1           0       -5.187853    5.763135   -1.039293
    167          7           0       -1.905527    6.366285    2.938626
    168          6           0       -1.755394    6.216989    4.370747
    169          1           0       -2.698323    6.457234    4.861322
    170          1           0       -1.477938    5.188254    4.602117
    171          1           0       -0.978751    6.893106    4.728023
    172          1           0       -1.264709    6.999315    2.482311
    173         20           0       -6.075858    1.934498   -3.852030
    174          8           0       -5.078907    2.716831   -6.183520
    175          1           0       -5.745762    2.707290   -6.867196
    176          1           0       -4.579924    3.520919   -6.338302
 ---------------------------------------------------------------------

 SCF Done:  E(RB3LYP) =  -5333.37122995     A.U. after   39 cycles

 The electronic state is 1-A.
 Alpha  occ. eigenvalues -- -145.44653 -19.20084 -19.16719 -19.13127 -19.13057
 Alpha  occ. eigenvalues --  -19.11260 -19.10519 -19.09755 -19.09659 -19.09548
 Alpha  occ. eigenvalues --  -19.09393 -19.08573 -19.08411 -19.08250 -19.08245
 Alpha  occ. eigenvalues --  -19.07532 -19.06578 -19.06405 -19.06266 -19.05696
 Alpha  occ. eigenvalues --  -19.04746 -19.04353 -18.98232 -18.97774 -15.50646
 Alpha  occ. eigenvalues --  -14.57249 -14.38522 -14.36912 -14.36625 -14.36396
 Alpha  occ. eigenvalues --  -14.36053 -14.35924 -14.34781 -14.34564 -14.34363
 Alpha  occ. eigenvalues --  -14.34079 -14.33460 -14.31889 -14.30246 -14.30154
 Alpha  occ. eigenvalues --  -12.64228 -12.64211 -12.64151 -10.32861 -10.31568
 Alpha  occ. eigenvalues --  -10.30333 -10.28937 -10.28852 -10.28718 -10.27980
 Alpha  occ. eigenvalues --  -10.27830 -10.27557 -10.27365 -10.27344 -10.27026
 Alpha  occ. eigenvalues --  -10.26130 -10.26080 -10.25983 -10.25803 -10.25388
 Alpha  occ. eigenvalues --  -10.25165 -10.24508 -10.24440 -10.24404 -10.24222
 Alpha  occ. eigenvalues --  -10.23694 -10.23658 -10.23448 -10.23092 -10.22783
 Alpha  occ. eigenvalues --  -10.22409 -10.22171 -10.21391 -10.21366 -10.20851
 Alpha  occ. eigenvalues --  -10.20582 -10.20578 -10.20420 -10.20318 -10.20245
 Alpha  occ. eigenvalues --  -10.20228 -10.20150 -10.19607 -10.18891 -10.18301
 Alpha  occ. eigenvalues --  -10.18228 -10.18086 -10.18022 -10.17718 -10.17281
 Alpha  occ. eigenvalues --  -10.17126 -10.16364 -10.15978 -10.15883 -10.15692
 Alpha  occ. eigenvalues --  -10.15285 -10.10646  -1.87582  -1.15066  -1.14808
 Alpha  occ. eigenvalues --   -1.14552  -1.12655  -1.06203  -1.06123  -1.05227
 Alpha  occ. eigenvalues --   -1.04600  -1.04311  -1.03608  -1.03086  -1.03015
 Alpha  occ. eigenvalues --   -1.02420  -1.02121  -1.01998  -1.01814  -1.01637
 Alpha  occ. eigenvalues --   -1.01220  -1.00881  -0.99425  -0.98650  -0.97701
 Alpha  occ. eigenvalues --   -0.97028  -0.95603  -0.93827  -0.93275  -0.93187
 Alpha  occ. eigenvalues --   -0.92825  -0.92363  -0.92341  -0.91915  -0.91474
 Alpha  occ. eigenvalues --   -0.90710  -0.90597  -0.90232  -0.89602  -0.89469
 Alpha  occ. eigenvalues --   -0.88720  -0.88099  -0.86728  -0.86505  -0.86082
 Alpha  occ. eigenvalues --   -0.82494  -0.81415  -0.80278  -0.79972  -0.79756
 Alpha  occ. eigenvalues --   -0.79354  -0.78081  -0.76828  -0.76607  -0.76366
 Alpha  occ. eigenvalues --   -0.75366  -0.74974  -0.74735  -0.74084  -0.73207
 Alpha  occ. eigenvalues --   -0.72927  -0.72764  -0.72685  -0.71494  -0.70505
 Alpha  occ. eigenvalues --   -0.69685  -0.69404  -0.68445  -0.67956  -0.67129
 Alpha  occ. eigenvalues --   -0.66499  -0.65568  -0.65007  -0.64279  -0.63989
 Alpha  occ. eigenvalues --   -0.63638  -0.62954  -0.62312  -0.61865  -0.61770
 Alpha  occ. eigenvalues --   -0.60941  -0.60663  -0.60107  -0.59673  -0.59603
 Alpha  occ. eigenvalues --   -0.59386  -0.59307  -0.58859  -0.58626  -0.58487
 Alpha  occ. eigenvalues --   -0.58214  -0.58068  -0.57413  -0.57151  -0.56629
 Alpha  occ. eigenvalues --   -0.56095  -0.56085  -0.55625  -0.55262  -0.55019
 Alpha  occ. eigenvalues --   -0.54676  -0.54499  -0.54260  -0.54076  -0.53691
 Alpha  occ. eigenvalues --   -0.53044  -0.52542  -0.52419  -0.51667  -0.51556
 Alpha  occ. eigenvalues --   -0.51448  -0.51187  -0.50846  -0.50454  -0.50256
 Alpha  occ. eigenvalues --   -0.50118  -0.48760  -0.48502  -0.48276  -0.48198
 Alpha  occ. eigenvalues --   -0.48195  -0.47954  -0.47840  -0.47672  -0.47272
 Alpha  occ. eigenvalues --   -0.46904  -0.46636  -0.46588  -0.46183  -0.46115
 Alpha  occ. eigenvalues --   -0.45877  -0.45843  -0.45726  -0.45526  -0.45489
 Alpha  occ. eigenvalues --   -0.45412  -0.45185  -0.45016  -0.44890  -0.44697
 Alpha  occ. eigenvalues --   -0.44669  -0.44371  -0.44169  -0.44113  -0.44087
 Alpha  occ. eigenvalues --   -0.43720  -0.43513  -0.43130  -0.43081  -0.42879
 Alpha  occ. eigenvalues --   -0.42754  -0.42516  -0.42462  -0.42073  -0.42014
 Alpha  occ. eigenvalues --   -0.41699  -0.41697  -0.41663  -0.41562  -0.41536
 Alpha  occ. eigenvalues --   -0.41188  -0.40922  -0.40816  -0.40782  -0.40580
 Alpha  occ. eigenvalues --   -0.40491  -0.40399  -0.40347  -0.40248  -0.39919
 Alpha  occ. eigenvalues --   -0.39792  -0.39629  -0.39334  -0.39181  -0.39132
 Alpha  occ. eigenvalues --   -0.39024  -0.38947  -0.38870  -0.38630  -0.38600
 Alpha  occ. eigenvalues --   -0.38405  -0.38378  -0.38274  -0.37876  -0.37721
 Alpha  occ. eigenvalues --   -0.37707  -0.37595  -0.37504  -0.37408  -0.37001
 Alpha  occ. eigenvalues --   -0.36876  -0.36720  -0.36678  -0.36487  -0.36044
 Alpha  occ. eigenvalues --   -0.35926  -0.35868  -0.35751  -0.35673  -0.35650
 Alpha  occ. eigenvalues --   -0.35334  -0.35105  -0.34770  -0.34606  -0.34381
 Alpha  occ. eigenvalues --   -0.34349  -0.34173  -0.34154  -0.34031  -0.33815
 Alpha  occ. eigenvalues --   -0.33574  -0.33540  -0.33243  -0.32970  -0.32682
 Alpha  occ. eigenvalues --   -0.32412  -0.32070  -0.31937  -0.31342  -0.30850
 Alpha  occ. eigenvalues --   -0.30260  -0.29445  -0.29353  -0.28605  -0.28590
 Alpha  occ. eigenvalues --   -0.28569  -0.27933  -0.27818  -0.27688  -0.27386
 Alpha  occ. eigenvalues --   -0.27201  -0.26955  -0.26894  -0.26679  -0.26359
 Alpha  occ. eigenvalues --   -0.26171  -0.26141  -0.26088  -0.25923  -0.25826
 Alpha  occ. eigenvalues --   -0.25034  -0.24844  -0.24603  -0.24235  -0.24153
 Alpha  occ. eigenvalues --   -0.24029  -0.23824  -0.23618  -0.23507  -0.23449
 Alpha  occ. eigenvalues --   -0.23365  -0.23154  -0.23086  -0.22915  -0.22142
 Alpha  occ. eigenvalues --   -0.21728  -0.20784  -0.20624  -0.20347  -0.19561
 Alpha  occ. eigenvalues --   -0.15270  -0.14785  -0.12941
 Alpha virt. eigenvalues --   -0.11692  -0.09408  -0.03915  -0.03375  -0.03161
 Alpha virt. eigenvalues --   -0.01981  -0.01944  -0.01367  -0.00009   0.00491
 Alpha virt. eigenvalues --    0.00717   0.01178   0.01187   0.01237   0.01525

 Mulliken charges:
               1
     1  C    0.062453
     2  C    0.011856
     3  O   -0.306153
     4  H    0.017337
     5  H    0.029104
     6  H    0.013414
     7  N   -0.136483
     8  C    0.136375
     9  C    0.077961
    10  O   -0.288593
    11  C    0.054078
    12  C    0.107906
    13  O   -0.333546
    14  O   -0.413141
    15  H    0.109910
    16  H   -0.022645
    17  H    0.007724
    18  H   -0.015544
    19  N   -0.132018
    20  C    0.068575
    21  C    0.098159
    22  O   -0.245064
    23  C    0.060292
    24  C    0.055592
    25  C   -0.087518
    26  C    0.010622
    27  N    0.088748
    28  H    0.107113
    29  H   -0.030979
    30  H    0.006863
    31  H    0.032732
    32  H    0.038457
    33  H    0.018413
    34  H    0.032984
    35  H    0.006737
    36  H    0.072170
    37  H    0.091548
    38  H    0.186745
    39  H    0.178662
    40  H    0.189003
    41  N   -0.140500
    42  C    0.120644
    43  C    0.081488
    44  O   -0.264298
    45  C    0.119113
    46  C    0.060555
    47  O   -0.406272
    48  O   -0.410848
    49  H    0.112445
    50  H   -0.002960
    51  H    0.020162
    52  H    0.016511
    53  N   -0.149108
    54  C    0.208050
    55  C    0.019623
    56  O   -0.281376
    57  H    0.134363
    58  H    0.052087
    59  H    0.004481
    60  N   -0.118928
    61  C    0.086834
    62  C    0.117572
    63  O   -0.249565
    64  C    0.101367
    65  C   -0.024080
    66  N   -0.037839
    67  O   -0.268205
    68  H    0.102818
    69  H    0.036607
    70  H    0.007576
    71  H   -0.001404
    72  H    0.121418
    73  H    0.132087
    74  N   -0.131711
    75  C    0.221533
    76  C    0.027699
    77  O   -0.299932
    78  H    0.096476
    79  H    0.020823
    80  H    0.075735
    81  N   -0.116277
    82  C    0.083450
    83  C    0.091932
    84  O   -0.328510
    85  C    0.164248
    86  C   -0.042495
    87  C    0.009778
    88  C   -0.023639
    89  C   -0.028380
    90  C   -0.036887
    91  C    0.163089
    92  O   -0.204736
    93  H    0.121665
    94  H    0.004965
    95  H    0.018874
    96  H    0.030414
    97  H   -0.010712
    98  H   -0.033061
    99  H   -0.012660
   100  H   -0.040304
   101  H    0.180770
   102  N   -0.094693
   103  C    0.159173
   104  C    0.038413
   105  O   -0.288629
   106  C   -0.101830
   107  C    0.037318
   108  C    0.107849
   109  C   -0.024366
   110  H    0.127913
   111  H    0.011652
   112  H   -0.013209
   113  H   -0.002611
   114  H   -0.012119
   115  H    0.009949
   116  H   -0.037024
   117  H    0.021735
   118  H   -0.012158
   119  H    0.026743
   120  H    0.042671
   121  N   -0.127081
   122  C    0.151935
   123  C    0.033438
   124  O   -0.276887
   125  C    0.200154
   126  O   -0.330526
   127  H    0.144169
   128  H    0.026350
   129  H    0.010766
   130  H   -0.009585
   131  H    0.168816
   132  N   -0.132478
   133  C    0.050812
   134  C    0.079923
   135  O   -0.298766
   136  C    0.078485
   137  H    0.125733
   138  H    0.010581
   139  H   -0.002543
   140  H    0.037106
   141  H    0.021205
   142  N   -0.110564
   143  C    0.091383
   144  C    0.057595
   145  O   -0.253436
   146  C    0.077593
   147  H    0.157101
   148  H   -0.042178
   149  H    0.048825
   150  H    0.041034
   151  H   -0.003445
   152  N   -0.143884
   153  C    0.111037
   154  C    0.055656
   155  O   -0.283334
   156  C    0.023865
   157  C    0.110696
   158  C    0.107357
   159  O   -0.467972
   160  O   -0.444327
   161  H    0.130639
   162  H    0.003017
   163  H    0.020447
   164  H    0.038455
   165  H   -0.014856
   166  H   -0.022378
   167  N   -0.146778
   168  C    0.138060
   169  H    0.021245
   170  H    0.033306
   171  H    0.017245
   172  H    0.123606
   173  Ca   1.214162
   174  O   -0.272762
   175  H    0.168252
   176  H    0.194541
 Sum of Mulliken charges =  -0.00000

 Dipole moment (field-independent basis, Debye):
    X=             -2.9793    Y=             23.9218    Z=            -12.7485  Tot=             27.2700
 Quadrupole moment (field-independent basis, Debye-Ang):
   XX=           -292.8266   YY=           -675.9654   ZZ=           -513.6190
   XY=           -268.9115   XZ=             53.4925   YZ=             13.8350

 ESP charges:
               1
     1  C   -0.381461
     2  C    0.707366
     3  O   -0.585920
     4  H    0.098347
     5  H    0.113652
     6  H    0.080802
     7  N   -0.670707
     8  C    0.395285
     9  C    0.591177
    10  O   -0.560479
    11  C   -0.329261
    12  C    0.732489
    13  O   -0.624205
    14  O   -0.713349
    15  H    0.307637
    16  H   -0.032503
    17  H    0.108416
    18  H    0.063873
    19  N   -0.758527
    20  C    0.533717
    21  C    0.489743
    22  O   -0.481014
    23  C   -0.067304
    24  C    0.006133
    25  C   -0.148976
    26  C    0.219681
    27  N   -0.366907
    28  H    0.319320
    29  H   -0.079216
    30  H    0.011087
    31  H    0.050784
    32  H    0.057306
    33  H   -0.003230
    34  H    0.058299
    35  H    0.011893
    36  H    0.028412
    37  H    0.057031
    38  H    0.302785
    39  H    0.305937
    40  H    0.320653
    41  N   -0.579454
    42  C    0.151885
    43  C    0.706699
    44  O   -0.565557
    45  C   -0.406846
    46  C    0.814853
    47  O   -0.609527
    48  O   -0.750077
    49  H    0.217767
    50  H    0.089720
    51  H    0.107544
    52  H    0.119152
    53  N   -0.626001
    54  C    0.237539
    55  C    0.604180
    56  O   -0.500104
    57  H    0.259191
    58  H   -0.031847
    59  H    0.012750
    60  N   -0.646518
    61  C    0.182877
    62  C    0.546350
    63  O   -0.501806
    64  C   -0.342249
    65  C    0.597978
    66  N   -0.727429
    67  O   -0.525170
    68  H    0.283856
    69  H    0.103742
    70  H    0.105437
    71  H    0.116697
    72  H    0.341538
    73  H    0.363556
    74  N   -0.502114
    75  C    0.108345
    76  C    0.560485
    77  O   -0.474234
    78  H    0.289936
    79  H    0.028678
    80  H    0.089276
    81  N   -0.645029
    82  C    0.317736
    83  C    0.506205
    84  O   -0.593612
    85  C   -0.260484
    86  C    0.072372
    87  C   -0.154359
    88  C   -0.122516
    89  C   -0.256457
    90  C   -0.333225
    91  C    0.417988
    92  O   -0.581717
    93  H    0.291933
    94  H    0.032962
    95  H    0.120969
    96  H    0.103757
    97  H    0.159857
    98  H    0.127916
    99  H    0.163318
   100  H    0.144347
   101  H    0.429018
   102  N   -0.716697
   103  C    0.240566
   104  C    0.460029
   105  O   -0.537343
   106  C   -0.037732
   107  C   -0.150983
   108  C   -0.169210
   109  C   -0.117241
   110  H    0.357925
   111  H    0.080023
   112  H    0.066434
   113  H    0.056917
   114  H    0.050660
   115  H    0.091209
   116  H   -0.032570
   117  H    0.082076
   118  H    0.006460
   119  H    0.075531
   120  H    0.083436
   121  N   -0.177857
   122  C   -0.444668
   123  C    0.869084
   124  O   -0.619298
   125  C    0.111381
   126  O   -0.612508
   127  H    0.319973
   128  H    0.186428
   129  H    0.067343
   130  H    0.044449
   131  H    0.421760
   132  N   -0.618615
   133  C    0.658748
   134  C    0.251048
   135  O   -0.507946
   136  C   -0.340844
   137  H    0.255941
   138  H   -0.044981
   139  H    0.050051
   140  H    0.116934
   141  H    0.051938
   142  N   -0.369934
   143  C    0.431865
   144  C    0.512493
   145  O   -0.519738
   146  C   -0.382538
   147  H    0.190214
   148  H   -0.071070
   149  H    0.126543
   150  H    0.118041
   151  H    0.068070
   152  N   -0.542721
   153  C   -0.173529
   154  C    0.481922
   155  O   -0.524170
   156  C    0.294811
   157  C   -0.066091
   158  C    0.609125
   159  O   -0.709471
   160  O   -0.697151
   161  H    0.336860
   162  H    0.089756
   163  H   -0.046377
   164  H    0.020744
   165  H    0.016536
   166  H   -0.007181
   167  N   -0.181603
   168  C   -0.248566
   169  H    0.090043
   170  H    0.121431
   171  H    0.113197
   172  H    0.218660
   173  Ca   1.342930
   174  O   -0.682529
   175  H    0.359687
   176  H    0.391040
 Sum of ESP charges =   0.00000

 Normal termination of Gaussian 16 at Tue Sep 17 16:56:00 2019.
