 Gaussian 16, Revision A.03,
 Gaussian 16:  ES64L-G16RevA.03 25-Dec-2016

 ----------------------------------------------------------------------
 #b3lyp/svp scf=(tight,noincore) Test #IOP(5/87=12) Density=Current Pop
 =(MK,readradii) iop(6/33=2) iop(6/42=6)
 ----------------------------------------------------------------------

 -----------------
 Ng-293_loop3_63.0
 -----------------
 Symbolic Z-matrix:
 Charge =  0 Multiplicity = 1

                         Standard orientation:
 ---------------------------------------------------------------------
 Center     Atomic      Atomic             Coordinates (Angstroms)
 Number     Number       Type             X           Y           Z
 ---------------------------------------------------------------------
      1          6           0        8.387724   -2.507702   -7.332508
      2          6           0        9.110780   -2.130473   -6.046317
      3          8           0       10.292672   -1.835096   -5.973621
      4          1           0        7.404438   -2.911706   -7.091359
      5          1           0        8.272399   -1.622767   -7.957700
      6          1           0        8.967191   -3.259500   -7.869036
      7          7           0        8.378999   -2.277806   -4.936141
      8          6           0        8.821530   -2.413599   -3.556603
      9          6           0        7.768637   -1.819649   -2.632676
     10          8           0        6.597140   -1.842531   -3.006267
     11          6           0        9.105182   -3.864446   -3.152149
     12          6           0        9.978784   -4.059023   -1.918634
     13          8           0       10.376621   -3.053902   -1.296735
     14          8           0       10.180538   -5.227772   -1.549011
     15          1           0        7.388911   -2.443556   -4.975548
     16          1           0        9.800112   -1.927032   -3.501571
     17          1           0        9.672915   -4.188295   -4.020712
     18          1           0        8.153804   -4.384271   -3.144302
     19          7           0        8.197505   -1.338575   -1.461676
     20          6           0        7.333670   -0.838819   -0.410138
     21          6           0        6.315327   -1.821071    0.147052
     22          8           0        6.140387   -2.926558   -0.361960
     23          6           0        6.690022    0.460123   -0.885499
     24          6           0        7.695412    1.430094   -1.494471
     25          6           0        8.919244    1.779375   -0.641689
     26          6           0        9.639796    3.034255   -1.121459
     27          7           0       10.829880    3.304022   -0.299312
     28          1           0        9.161932   -1.524290   -1.245595
     29          1           0        7.898280   -0.575716    0.485067
     30          1           0        6.261384    0.958130   -0.021578
     31          1           0        5.942057    0.239196   -1.642493
     32          1           0        7.149501    2.367085   -1.634214
     33          1           0        8.007709    1.154966   -2.501882
     34          1           0        9.682484    1.007296   -0.771152
     35          1           0        8.745200    1.960955    0.417055
     36          1           0        8.886303    3.817402   -1.103272
     37          1           0        9.923200    2.940565   -2.176260
     38          1           0       11.172322    4.218074   -0.574708
     39          1           0       10.470942    3.177453    0.633502
     40          1           0       11.647069    2.739495   -0.439353
     41          7           0        5.650902   -1.390505    1.217263
     42          6           0        4.892021   -2.302036    2.055839
     43          6           0        3.505301   -2.658532    1.544840
     44          8           0        2.820531   -1.796302    0.988290
     45          6           0        4.857883   -1.748432    3.470285
     46          6           0        4.334308   -0.342423    3.694581
     47          8           0        3.442928   -0.155146    4.562549
     48          8           0        4.892963    0.674443    3.220989
     49          1           0        5.785561   -0.454024    1.589110
     50          1           0        5.395963   -3.259854    2.073907
     51          1           0        5.845308   -1.812554    3.939519
     52          1           0        4.192934   -2.433106    4.001758
     53          7           0        3.092229   -3.916530    1.707046
     54          6           0        1.706391   -4.310324    1.546487
     55          6           0        0.761413   -3.858666    2.649040
     56          8           0        1.035967   -3.963901    3.847057
     57          1           0        3.750625   -4.603994    2.041423
     58          1           0        1.672920   -5.381951    1.355185
     59          1           0        1.244583   -3.989456    0.608736
     60          7           0       -0.440243   -3.366620    2.336607
     61          6           0       -1.477595   -2.950766    3.248673
     62          6           0       -2.859594   -3.311031    2.716145
     63          8           0       -3.801561   -2.517774    2.765559
     64          6           0       -1.330306   -1.463217    3.540742
     65          6           0        0.021868   -1.103531    4.127216
     66          7           0        1.020270   -0.632576    3.371839
     67          8           0        0.308063   -1.264862    5.314383
     68          1           0       -0.578926   -3.083542    1.369480
     69          1           0       -1.375291   -3.473392    4.198671
     70          1           0       -2.174465   -1.164158    4.157960
     71          1           0       -1.431310   -0.998409    2.550059
     72          1           0        0.947360   -0.317960    2.413611
     73          1           0        1.904171   -0.674801    3.865636
     74          7           0       -3.071200   -4.525198    2.222767
     75          6           0       -4.336367   -5.158196    1.916881
     76          6           0       -5.121758   -4.576931    0.751123
     77          8           0       -4.587720   -4.658064   -0.357759
     78          1           0       -2.340294   -5.216448    2.304304
     79          1           0       -4.941165   -4.927404    2.793611
     80          1           0       -4.280883   -6.248069    1.896910
     81          7           0       -6.381784   -4.138966    0.904489
     82          6           0       -7.203818   -3.413989   -0.038999
     83          6           0       -6.618213   -2.126757   -0.591177
     84          8           0       -7.242342   -1.391251   -1.349131
     85          6           0       -7.780865   -4.376256   -1.083919
     86          6           0       -9.152025   -4.026324   -1.617649
     87          6           0       -9.406982   -3.858445   -2.980262
     88          6           0      -10.195225   -3.794994   -0.716361
     89          6           0      -10.679144   -3.571821   -3.504428
     90          6           0      -11.450605   -3.382925   -1.179849
     91          6           0      -11.703669   -3.333668   -2.563081
     92          8           0      -12.951626   -2.949041   -2.950465
     93          1           0       -6.782281   -4.175790    1.826414
     94          1           0       -8.070451   -3.010704    0.476083
     95          1           0       -7.809233   -5.308003   -0.527553
     96          1           0       -7.083682   -4.547965   -1.908936
     97          1           0       -8.571535   -3.997505   -3.650627
     98          1           0      -10.043475   -3.950547    0.342778
     99          1           0      -10.967653   -3.374262   -4.521941
    100          1           0      -12.237254   -3.241134   -0.452815
    101          1           0      -13.528104   -2.740865   -2.202911
    102          7           0       -5.431518   -1.789743   -0.083460
    103          6           0       -4.527141   -0.673451   -0.340742
    104          6           0       -5.003239    0.695090    0.137409
    105          8           0       -4.264045    1.385917    0.833433
    106          6           0       -4.103209   -0.540454   -1.799232
    107          6           0       -3.647190   -1.898507   -2.334713
    108          6           0       -2.923831    0.417005   -1.908033
    109          6           0       -2.337607   -2.406648   -1.740336
    110          1           0       -4.976370   -2.493002    0.483168
    111          1           0       -3.613344   -0.898801    0.210251
    112          1           0       -4.891662   -0.121981   -2.421585
    113          1           0       -3.540791   -1.843526   -3.417190
    114          1           0       -4.431719   -2.637185   -2.177653
    115          1           0       -3.320624    1.436533   -1.936638
    116          1           0       -2.213568    0.306728   -1.092027
    117          1           0       -2.453969    0.293302   -2.874897
    118          1           0       -2.279632   -2.477777   -0.646865
    119          1           0       -2.005042   -3.341398   -2.200492
    120          1           0       -1.550467   -1.708870   -1.996494
    121          7           0       -6.265868    1.042861   -0.112039
    122          6           0       -6.997250    2.167450    0.431818
    123          6           0       -6.560147    3.512276   -0.125842
    124          8           0       -6.383334    4.452582    0.640097
    125          6           0       -8.488105    1.898553    0.323909
    126          8           0       -9.042333    1.781750   -0.975510
    127          1           0       -6.786259    0.418847   -0.706765
    128          1           0       -6.803202    2.200807    1.508959
    129          1           0       -9.145916    2.707765    0.632554
    130          1           0       -8.760370    1.021840    0.914711
    131          1           0       -9.923401    1.409612   -1.010619
    132          7           0       -6.257033    3.545018   -1.426053
    133          6           0       -5.767530    4.723790   -2.119656
    134          6           0       -4.487721    5.323805   -1.535386
    135          8           0       -4.201179    6.510287   -1.666362
    136          6           0       -6.867908    5.781508   -2.151273
    137          1           0       -6.437766    2.680151   -1.913436
    138          1           0       -5.557856    4.428364   -3.150655
    139          1           0       -6.628081    6.595625   -2.831123
    140          1           0       -7.828102    5.329716   -2.375576
    141          1           0       -7.057779    6.220593   -1.168953
    142          7           0       -3.686873    4.519039   -0.838038
    143          6           0       -2.597474    5.000294   -0.009965
    144          6           0       -1.195680    5.041097   -0.615528
    145          8           0       -0.789283    4.194217   -1.404664
    146          6           0       -2.504675    4.088237    1.210503
    147          1           0       -3.989149    3.555832   -0.707799
    148          1           0       -2.789748    6.010875    0.346906
    149          1           0       -2.209687    3.063725    0.952907
    150          1           0       -1.848674    4.435392    2.008842
    151          1           0       -3.487041    4.044747    1.680893
    152          7           0       -0.364970    5.954500   -0.114912
    153          6           0        1.058696    5.980059   -0.378584
    154          6           0        1.303479    6.000382   -1.889136
    155          8           0        2.421249    5.685997   -2.271829
    156          6           0        1.797250    4.939362    0.457889
    157          6           0        1.341507    4.958638    1.915259
    158          6           0        2.144843    4.077363    2.854144
    159          8           0        2.897859    4.565519    3.728027
    160          8           0        2.101000    2.831258    2.807236
    161          1           0       -0.669575    6.577254    0.615016
    162          1           0        1.477122    6.919940   -0.014793
    163          1           0        2.864261    5.130407    0.412191
    164          1           0        1.602335    3.936329    0.070550
    165          1           0        0.284826    4.694579    2.008520
    166          1           0        1.464126    5.966838    2.290489
    167          7           0        0.405800    6.492770   -2.752748
    168          6           0        0.504660    6.357031   -4.193651
    169          1           0       -0.078294    5.495171   -4.517991
    170          1           0        0.118116    7.257648   -4.671104
    171          1           0        1.548042    6.215413   -4.474730
    172          1           0       -0.444165    6.854797   -2.338264
    173         20           0        3.595971    2.389123    5.056387
    174          8           0        5.449770    1.274721    6.428953
    175          1           0        6.224634    0.952484    5.967814
    176          1           0        5.775899    1.517335    7.294042
 ---------------------------------------------------------------------

 SCF Done:  E(RB3LYP) =  -5333.38853624     A.U. after   33 cycles

 The electronic state is 1-A.
 Alpha  occ. eigenvalues -- -145.46727 -19.24703 -19.16498 -19.13016 -19.11895
 Alpha  occ. eigenvalues --  -19.11791 -19.10847 -19.09512 -19.09178 -19.09173
 Alpha  occ. eigenvalues --  -19.08883 -19.08689 -19.08162 -19.08056 -19.07774
 Alpha  occ. eigenvalues --  -19.07499 -19.06390 -19.06388 -19.06000 -19.04817
 Alpha  occ. eigenvalues --  -19.04629 -19.03447 -18.96470 -18.94919 -15.52666
 Alpha  occ. eigenvalues --  -14.57471 -14.38668 -14.38293 -14.36159 -14.35652
 Alpha  occ. eigenvalues --  -14.35532 -14.35471 -14.34931 -14.34831 -14.33593
 Alpha  occ. eigenvalues --  -14.32804 -14.32757 -14.30195 -14.29238 -14.28613
 Alpha  occ. eigenvalues --  -12.66293 -12.66233 -12.66156 -10.33210 -10.31100
 Alpha  occ. eigenvalues --  -10.30485 -10.29583 -10.28271 -10.28211 -10.28036
 Alpha  occ. eigenvalues --  -10.27771 -10.26795 -10.26741 -10.26678 -10.26195
 Alpha  occ. eigenvalues --  -10.25911 -10.25834 -10.25789 -10.25534 -10.25496
 Alpha  occ. eigenvalues --  -10.25093 -10.24609 -10.24518 -10.24421 -10.23745
 Alpha  occ. eigenvalues --  -10.23643 -10.23292 -10.23033 -10.23001 -10.22850
 Alpha  occ. eigenvalues --  -10.22471 -10.22372 -10.22037 -10.21514 -10.21351
 Alpha  occ. eigenvalues --  -10.20100 -10.20092 -10.19795 -10.19575 -10.19441
 Alpha  occ. eigenvalues --  -10.19408 -10.19396 -10.19327 -10.18470 -10.18339
 Alpha  occ. eigenvalues --  -10.18172 -10.17373 -10.17123 -10.16721 -10.16644
 Alpha  occ. eigenvalues --  -10.16590 -10.16421 -10.16280 -10.15871 -10.15600
 Alpha  occ. eigenvalues --  -10.15078 -10.09740  -1.89366  -1.17038  -1.16539
 Alpha  occ. eigenvalues --   -1.16189  -1.12944  -1.10606  -1.05619  -1.05144
 Alpha  occ. eigenvalues --   -1.04755  -1.04096  -1.03785  -1.02984  -1.02393
 Alpha  occ. eigenvalues --   -1.02213  -1.02100  -1.01880  -1.01311  -1.00977
 Alpha  occ. eigenvalues --   -1.00698  -0.99762  -0.99401  -0.97919  -0.97640
 Alpha  occ. eigenvalues --   -0.96544  -0.95405  -0.94509  -0.93060  -0.92952
 Alpha  occ. eigenvalues --   -0.92500  -0.92298  -0.91666  -0.91561  -0.91234
 Alpha  occ. eigenvalues --   -0.90570  -0.90505  -0.89885  -0.89817  -0.88681
 Alpha  occ. eigenvalues --   -0.88461  -0.87000  -0.85493  -0.85432  -0.83964
 Alpha  occ. eigenvalues --   -0.81690  -0.80824  -0.80315  -0.79573  -0.79063
 Alpha  occ. eigenvalues --   -0.78696  -0.78011  -0.77818  -0.76172  -0.75984
 Alpha  occ. eigenvalues --   -0.74747  -0.74670  -0.74631  -0.73909  -0.73645
 Alpha  occ. eigenvalues --   -0.73087  -0.72515  -0.71576  -0.71537  -0.70215
 Alpha  occ. eigenvalues --   -0.69818  -0.68061  -0.67817  -0.67420  -0.67007
 Alpha  occ. eigenvalues --   -0.66525  -0.65873  -0.65238  -0.64626  -0.63680
 Alpha  occ. eigenvalues --   -0.63365  -0.63284  -0.62894  -0.62750  -0.61758
 Alpha  occ. eigenvalues --   -0.61446  -0.61157  -0.60489  -0.60399  -0.59937
 Alpha  occ. eigenvalues --   -0.59618  -0.59139  -0.58838  -0.58601  -0.58347
 Alpha  occ. eigenvalues --   -0.58222  -0.57425  -0.56730  -0.56387  -0.55917
 Alpha  occ. eigenvalues --   -0.55296  -0.55251  -0.55244  -0.54763  -0.54617
 Alpha  occ. eigenvalues --   -0.54509  -0.54291  -0.53323  -0.53200  -0.53005
 Alpha  occ. eigenvalues --   -0.52679  -0.52290  -0.51957  -0.51684  -0.51618
 Alpha  occ. eigenvalues --   -0.51548  -0.51289  -0.50658  -0.50285  -0.50035
 Alpha  occ. eigenvalues --   -0.49954  -0.49722  -0.49196  -0.48849  -0.48406
 Alpha  occ. eigenvalues --   -0.48330  -0.48137  -0.47821  -0.47751  -0.47581
 Alpha  occ. eigenvalues --   -0.47337  -0.46754  -0.46618  -0.46403  -0.45974
 Alpha  occ. eigenvalues --   -0.45868  -0.45687  -0.45256  -0.45250  -0.45110
 Alpha  occ. eigenvalues --   -0.44932  -0.44756  -0.44434  -0.44062  -0.43791
 Alpha  occ. eigenvalues --   -0.43731  -0.43592  -0.43520  -0.43479  -0.43319
 Alpha  occ. eigenvalues --   -0.43203  -0.43116  -0.42835  -0.42595  -0.42485
 Alpha  occ. eigenvalues --   -0.42323  -0.42267  -0.42146  -0.42106  -0.41799
 Alpha  occ. eigenvalues --   -0.41700  -0.41614  -0.41387  -0.41256  -0.41185
 Alpha  occ. eigenvalues --   -0.40905  -0.40821  -0.40742  -0.40517  -0.40442
 Alpha  occ. eigenvalues --   -0.40181  -0.40026  -0.39941  -0.39799  -0.39610
 Alpha  occ. eigenvalues --   -0.39588  -0.39527  -0.39363  -0.39230  -0.39001
 Alpha  occ. eigenvalues --   -0.38977  -0.38890  -0.38705  -0.38547  -0.38236
 Alpha  occ. eigenvalues --   -0.38176  -0.38140  -0.37856  -0.37735  -0.37628
 Alpha  occ. eigenvalues --   -0.37245  -0.37161  -0.37017  -0.36829  -0.36750
 Alpha  occ. eigenvalues --   -0.36596  -0.36588  -0.36522  -0.36480  -0.35819
 Alpha  occ. eigenvalues --   -0.35750  -0.35706  -0.35445  -0.35407  -0.35291
 Alpha  occ. eigenvalues --   -0.34927  -0.34816  -0.34536  -0.34518  -0.34354
 Alpha  occ. eigenvalues --   -0.34263  -0.34081  -0.33881  -0.33740  -0.33484
 Alpha  occ. eigenvalues --   -0.33354  -0.33227  -0.33017  -0.32766  -0.32684
 Alpha  occ. eigenvalues --   -0.32390  -0.32379  -0.31419  -0.31182  -0.31133
 Alpha  occ. eigenvalues --   -0.30198  -0.29305  -0.29024  -0.28368  -0.28217
 Alpha  occ. eigenvalues --   -0.27986  -0.27717  -0.26990  -0.26974  -0.26745
 Alpha  occ. eigenvalues --   -0.26706  -0.26564  -0.26431  -0.26398  -0.26304
 Alpha  occ. eigenvalues --   -0.26212  -0.25973  -0.25844  -0.25734  -0.25155
 Alpha  occ. eigenvalues --   -0.24816  -0.24292  -0.24114  -0.24072  -0.23987
 Alpha  occ. eigenvalues --   -0.23881  -0.23369  -0.23297  -0.23222  -0.22620
 Alpha  occ. eigenvalues --   -0.22481  -0.22404  -0.22287  -0.21780  -0.21750
 Alpha  occ. eigenvalues --   -0.21519  -0.20853  -0.20316  -0.19472  -0.19339
 Alpha  occ. eigenvalues --   -0.13644  -0.13332  -0.11075
 Alpha virt. eigenvalues --   -0.10041  -0.09706  -0.03891  -0.03665  -0.03099
 Alpha virt. eigenvalues --   -0.02487  -0.02186  -0.00748  -0.00353   0.00275
 Alpha virt. eigenvalues --    0.00728   0.00843   0.00949   0.01385   0.01898

 Mulliken charges:
               1
     1  C    0.055757
     2  C    0.011255
     3  O   -0.294202
     4  H   -0.002527
     5  H    0.016885
     6  H    0.034135
     7  N   -0.134422
     8  C    0.063680
     9  C    0.092999
    10  O   -0.301711
    11  C    0.066683
    12  C    0.093770
    13  O   -0.415282
    14  O   -0.360218
    15  H    0.105685
    16  H   -0.023382
    17  H   -0.002578
    18  H   -0.010747
    19  N   -0.110071
    20  C    0.071238
    21  C    0.116321
    22  O   -0.235854
    23  C    0.074987
    24  C    0.044362
    25  C   -0.059088
    26  C   -0.012881
    27  N    0.110477
    28  H    0.108281
    29  H   -0.026736
    30  H   -0.007587
    31  H    0.042594
    32  H    0.000980
    33  H    0.033976
    34  H    0.036524
    35  H   -0.000089
    36  H    0.072766
    37  H    0.078861
    38  H    0.178624
    39  H    0.176154
    40  H    0.179955
    41  N   -0.129438
    42  C    0.117432
    43  C    0.083378
    44  O   -0.279123
    45  C    0.093972
    46  C    0.145945
    47  O   -0.457928
    48  O   -0.422320
    49  H    0.118939
    50  H   -0.018766
    51  H    0.014159
    52  H    0.017639
    53  N   -0.106698
    54  C    0.221207
    55  C    0.034594
    56  O   -0.274168
    57  H    0.130969
    58  H    0.027583
    59  H   -0.000943
    60  N   -0.158690
    61  C    0.068900
    62  C    0.055809
    63  O   -0.286702
    64  C    0.170223
    65  C   -0.002491
    66  N   -0.082641
    67  O   -0.295385
    68  H    0.131229
    69  H    0.046816
    70  H    0.018202
    71  H   -0.015904
    72  H    0.120169
    73  H    0.152042
    74  N   -0.086849
    75  C    0.222675
    76  C    0.018955
    77  O   -0.269000
    78  H    0.118877
    79  H   -0.025420
    80  H    0.051246
    81  N   -0.123975
    82  C    0.049326
    83  C    0.076043
    84  O   -0.286727
    85  C    0.195405
    86  C    0.015363
    87  C    0.008376
    88  C   -0.042501
    89  C    0.003065
    90  C   -0.035968
    91  C    0.143421
    92  O   -0.202452
    93  H    0.127444
    94  H    0.023427
    95  H   -0.007962
    96  H    0.014859
    97  H   -0.026452
    98  H   -0.041258
    99  H   -0.020279
   100  H   -0.046877
   101  H    0.175651
   102  N   -0.111438
   103  C    0.175196
   104  C    0.046863
   105  O   -0.269121
   106  C   -0.167086
   107  C    0.069892
   108  C    0.104670
   109  C    0.000088
   110  H    0.136321
   111  H    0.001861
   112  H   -0.011120
   113  H   -0.009235
   114  H    0.001286
   115  H   -0.015002
   116  H    0.027649
   117  H    0.008068
   118  H   -0.014228
   119  H    0.012994
   120  H    0.005647
   121  N   -0.138241
   122  C    0.144265
   123  C    0.052020
   124  O   -0.259763
   125  C    0.209549
   126  O   -0.344443
   127  H    0.133499
   128  H    0.021263
   129  H    0.003936
   130  H   -0.000639
   131  H    0.174607
   132  N   -0.142298
   133  C    0.075962
   134  C    0.065995
   135  O   -0.285423
   136  C    0.070141
   137  H    0.122672
   138  H    0.022627
   139  H    0.023683
   140  H   -0.005454
   141  H    0.025182
   142  N   -0.108531
   143  C    0.103884
   144  C    0.061604
   145  O   -0.263120
   146  C    0.026930
   147  H    0.155695
   148  H   -0.011793
   149  H    0.042168
   150  H    0.001954
   151  H    0.035640
   152  N   -0.153646
   153  C    0.103827
   154  C    0.066808
   155  O   -0.288634
   156  C    0.052805
   157  C    0.100364
   158  C    0.078013
   159  O   -0.467940
   160  O   -0.394673
   161  H    0.115040
   162  H    0.006700
   163  H   -0.000336
   164  H    0.034765
   165  H    0.003237
   166  H   -0.036824
   167  N   -0.139776
   168  C    0.137723
   169  H    0.028108
   170  H    0.009094
   171  H    0.036047
   172  H    0.115128
   173  Ca   1.363145
   174  O   -0.304158
   175  H    0.205040
   176  H    0.187270
 Sum of Mulliken charges =  -0.00000

 Dipole moment (field-independent basis, Debye):
    X=             -0.8734    Y=             20.9179    Z=             21.6253  Tot=             30.0995
 Quadrupole moment (field-independent basis, Debye-Ang):
   XX=           -425.1540   YY=           -570.4169   ZZ=           -510.8501
   XY=            353.8341   XZ=            144.5411   YZ=             -1.8394

 ESP charges:
               1
     1  C   -0.429900
     2  C    0.758304
     3  O   -0.599919
     4  H    0.109235
     5  H    0.094854
     6  H    0.123584
     7  N   -0.775240
     8  C    0.573326
     9  C    0.514942
    10  O   -0.535743
    11  C   -0.373143
    12  C    0.782186
    13  O   -0.749862
    14  O   -0.684832
    15  H    0.307725
    16  H   -0.062973
    17  H    0.085084
    18  H    0.072559
    19  N   -0.834343
    20  C    0.656552
    21  C    0.530781
    22  O   -0.484569
    23  C   -0.392469
    24  C    0.166837
    25  C   -0.116041
    26  C    0.189799
    27  N   -0.417333
    28  H    0.347020
    29  H   -0.096622
    30  H    0.075604
    31  H    0.137135
    32  H    0.000767
    33  H    0.003330
    34  H    0.032926
    35  H    0.042074
    36  H    0.026939
    37  H    0.042392
    38  H    0.316047
    39  H    0.309823
    40  H    0.351369
    41  N   -0.681746
    42  C    0.220857
    43  C    0.653029
    44  O   -0.529184
    45  C   -0.351220
    46  C    0.930542
    47  O   -0.799677
    48  O   -0.792144
    49  H    0.318182
    50  H    0.026118
    51  H    0.114632
    52  H    0.059227
    53  N   -0.553902
    54  C    0.073179
    55  C    0.430508
    56  O   -0.457441
    57  H    0.322536
    58  H    0.088871
    59  H    0.052536
    60  N   -0.701752
    61  C    0.425496
    62  C    0.530983
    63  O   -0.512596
    64  C   -0.414598
    65  C    0.765743
    66  N   -0.924759
    67  O   -0.607267
    68  H    0.341359
    69  H    0.032235
    70  H    0.099376
    71  H    0.107504
    72  H    0.403467
    73  H    0.475707
    74  N   -0.588175
    75  C    0.003500
    76  C    0.605628
    77  O   -0.518071
    78  H    0.349668
    79  H    0.045230
    80  H    0.109773
    81  N   -0.769801
    82  C    0.504942
    83  C    0.483462
    84  O   -0.533495
    85  C   -0.093448
    86  C   -0.098270
    87  C   -0.066149
    88  C   -0.062047
    89  C   -0.297997
    90  C   -0.369085
    91  C    0.442583
    92  O   -0.571171
    93  H    0.341188
    94  H   -0.017709
    95  H    0.053445
    96  H    0.074677
    97  H    0.114441
    98  H    0.110047
    99  H    0.178960
   100  H    0.144014
   101  H    0.412888
   102  N   -0.654257
   103  C   -0.169327
   104  C    0.578324
   105  O   -0.572208
   106  C    0.111143
   107  C    0.150487
   108  C   -0.300070
   109  C   -0.210076
   110  H    0.395784
   111  H    0.150965
   112  H    0.017789
   113  H   -0.014042
   114  H   -0.022810
   115  H    0.029456
   116  H    0.097928
   117  H    0.096755
   118  H    0.030999
   119  H    0.061423
   120  H    0.052089
   121  N    0.030639
   122  C   -0.598964
   123  C    0.788641
   124  O   -0.567921
   125  C    0.174767
   126  O   -0.625619
   127  H    0.196454
   128  H    0.204364
   129  H    0.061932
   130  H    0.044961
   131  H    0.424430
   132  N   -0.294257
   133  C    0.067432
   134  C    0.585099
   135  O   -0.544302
   136  C   -0.259949
   137  H    0.213576
   138  H    0.074986
   139  H    0.071241
   140  H    0.055647
   141  H    0.100154
   142  N   -0.603896
   143  C    0.348230
   144  C    0.461307
   145  O   -0.446566
   146  C   -0.161706
   147  H    0.217365
   148  H    0.002984
   149  H    0.094120
   150  H    0.026309
   151  H    0.068162
   152  N   -0.626816
   153  C   -0.069860
   154  C    0.505371
   155  O   -0.529671
   156  C    0.124481
   157  C    0.184235
   158  C    0.695138
   159  O   -0.843936
   160  O   -0.766941
   161  H    0.327615
   162  H    0.093055
   163  H   -0.019625
   164  H    0.019403
   165  H   -0.069729
   166  H   -0.047389
   167  N   -0.379611
   168  C    0.043108
   169  H    0.047971
   170  H    0.022521
   171  H    0.056610
   172  H    0.278304
   173  Ca   1.656375
   174  O   -0.809716
   175  H    0.399067
   176  H    0.437036
 Sum of ESP charges =  -0.00000

 Normal termination of Gaussian 16 at Tue Sep 17 15:26:22 2019.
