 Gaussian 16, Revision A.03,
 Gaussian 16:  ES64L-G16RevA.03 25-Dec-2016

 ----------------------------------------------------------------------
 #b3lyp/svp scf=(tight,noincore) Test #IOP(5/87=12) Density=Current Pop
 =(MK,readradii) iop(6/33=2) iop(6/42=6)
 ----------------------------------------------------------------------

 -----------------
 Ng-295_loop3_29.0
 -----------------
 Symbolic Z-matrix:
 Charge =  0 Multiplicity = 1

                         Standard orientation:
 ---------------------------------------------------------------------
 Center     Atomic      Atomic             Coordinates (Angstroms)
 Number     Number       Type             X           Y           Z
 ---------------------------------------------------------------------
      1          6           0        8.396760    5.958085   -4.322050
      2          6           0        7.688803    5.081224   -3.306762
      3          8           0        6.467908    5.082470   -3.237371
      4          1           0        9.474952    5.854773   -4.201184
      5          1           0        8.113135    5.650573   -5.328721
      6          1           0        8.112200    6.998895   -4.165051
      7          7           0        8.378830    4.331830   -2.443760
      8          6           0        7.845004    3.534320   -1.357893
      9          6           0        8.828922    3.258512   -0.222228
     10          8           0       10.004464    3.022653   -0.465688
     11          6           0        7.246752    2.258870   -1.950365
     12          6           0        6.253092    1.597702   -1.005434
     13          8           0        6.595307    1.065384    0.069241
     14          8           0        5.048132    1.635088   -1.316359
     15          1           0        9.386027    4.385612   -2.416170
     16          1           0        7.040729    4.070696   -0.860758
     17          1           0        7.959504    1.495227   -2.255216
     18          1           0        6.730825    2.493557   -2.873913
     19          7           0        8.342961    3.201586    1.018054
     20          6           0        9.158932    2.913766    2.179197
     21          6           0        9.498124    1.437030    2.396220
     22          8           0       10.549590    1.121115    2.945601
     23          6           0        8.353904    3.402890    3.383061
     24          6           0        7.014637    2.684471    3.573156
     25          6           0        6.157328    3.350165    4.645151
     26          6           0        5.423850    4.518823    4.007381
     27          7           0        4.779557    5.333890    5.054640
     28          1           0        7.360372    3.365732    1.200468
     29          1           0       10.111970    3.436177    2.164908
     30          1           0        8.299776    4.480665    3.239988
     31          1           0        8.900845    3.240255    4.313441
     32          1           0        7.245823    1.725939    4.040777
     33          1           0        6.480773    2.523968    2.639439
     34          1           0        6.809623    3.708413    5.444068
     35          1           0        5.469534    2.677539    5.171377
     36          1           0        4.642049    4.045343    3.430837
     37          1           0        6.078587    5.132927    3.384810
     38          1           0        4.163107    6.004351    4.631588
     39          1           0        4.229761    4.814009    5.714753
     40          1           0        5.405616    5.899311    5.617356
     41          7           0        8.665332    0.494750    1.945480
     42          6           0        8.828370   -0.934260    2.005050
     43          6           0        9.010890   -1.646482    0.666608
     44          8           0        9.425195   -2.791564    0.557803
     45          6           0        7.647147   -1.422571    2.827341
     46          6           0        6.367705   -0.873546    2.215622
     47          8           0        5.900609   -1.467666    1.219308
     48          8           0        5.606317   -0.133635    2.859842
     49          1           0        7.868777    0.909378    1.466645
     50          1           0        9.742407   -1.193331    2.534879
     51          1           0        7.858750   -1.017588    3.816539
     52          1           0        7.635711   -2.521350    2.889419
     53          7           0        8.699055   -0.977578   -0.449559
     54          6           0        8.638821   -1.544692   -1.777284
     55          6           0        7.537808   -2.529842   -2.124486
     56          8           0        7.559745   -3.155227   -3.181374
     57          1           0        8.295610   -0.068756   -0.254944
     58          1           0        9.518750   -2.179148   -1.920078
     59          1           0        8.617525   -0.749590   -2.527989
     60          7           0        6.512707   -2.677818   -1.282245
     61          6           0        5.269464   -3.369046   -1.580658
     62          6           0        4.266127   -2.313757   -2.037255
     63          8           0        3.937143   -1.430447   -1.238235
     64          6           0        4.666733   -4.054435   -0.354502
     65          6           0        3.491847   -4.968913   -0.672579
     66          7           0        3.066144   -5.851142    0.230443
     67          8           0        2.821895   -4.980161   -1.699048
     68          1           0        6.453204   -2.128502   -0.438200
     69          1           0        5.489920   -4.083610   -2.363983
     70          1           0        4.288207   -3.346738    0.384473
     71          1           0        5.453194   -4.612866    0.135225
     72          1           0        3.502849   -5.874118    1.139762
     73          1           0        2.234491   -6.374245    0.008373
     74          7           0        3.614079   -2.523875   -3.184680
     75          6           0        2.552940   -1.692393   -3.711768
     76          6           0        1.112411   -1.848391   -3.241086
     77          8           0        0.261518   -1.124499   -3.763542
     78          1           0        3.829216   -3.380992   -3.669927
     79          1           0        2.576472   -1.859611   -4.777641
     80          1           0        2.812222   -0.645839   -3.499174
     81          7           0        0.863091   -2.758850   -2.299437
     82          6           0       -0.481075   -2.960452   -1.799864
     83          6           0       -1.170956   -1.754553   -1.198556
     84          8           0       -0.502380   -0.922273   -0.598709
     85          6           0       -0.444289   -4.155545   -0.853028
     86          6           0       -1.770446   -4.618131   -0.302825
     87          6           0       -2.392341   -3.850133    0.685419
     88          6           0       -2.260586   -5.874223   -0.668059
     89          6           0       -3.557364   -4.318602    1.298083
     90          6           0       -3.457256   -6.350211   -0.110550
     91          6           0       -4.095193   -5.541151    0.854105
     92          8           0       -5.193138   -5.984640    1.528222
     93          1           0        1.624159   -3.283782   -1.886735
     94          1           0       -1.089574   -3.300072   -2.642768
     95          1           0        0.217935   -3.947110   -0.012187
     96          1           0       -0.077107   -5.027320   -1.390881
     97          1           0       -1.982123   -2.906240    1.032099
     98          1           0       -1.762502   -6.445510   -1.441650
     99          1           0       -4.093945   -3.752025    2.047263
    100          1           0       -3.905740   -7.294407   -0.368148
    101          1           0       -5.541066   -6.785638    1.133572
    102          7           0       -2.475606   -1.657603   -1.494851
    103          6           0       -3.452556   -0.674681   -1.073743
    104          6           0       -3.883694   -0.670710    0.387868
    105          8           0       -3.022693   -0.785375    1.260238
    106          6           0       -3.020357    0.718397   -1.524338
    107          6           0       -3.897912    1.911468   -1.165340
    108          6           0       -2.681163    0.705438   -3.015371
    109          6           0       -5.296096    1.804151   -1.766309
    110          1           0       -2.831406   -2.441483   -2.019674
    111          1           0       -4.343184   -0.957501   -1.630156
    112          1           0       -2.042949    0.943642   -1.105963
    113          1           0       -3.442603    2.784570   -1.638084
    114          1           0       -3.998401    2.048562   -0.091093
    115          1           0       -1.722743    0.218631   -3.183443
    116          1           0       -3.514244    0.280672   -3.565508
    117          1           0       -2.551657    1.698322   -3.448050
    118          1           0       -5.198517    1.477826   -2.807650
    119          1           0       -5.988767    1.162214   -1.234216
    120          1           0       -5.720989    2.802232   -1.698474
    121          7           0       -5.175410   -0.492379    0.682259
    122          6           0       -5.697903   -0.159171    1.999101
    123          6           0       -6.980131   -0.903571    2.321376
    124          8           0       -7.216329   -1.062597    3.519299
    125          6           0       -5.847712    1.359482    2.061143
    126          8           0       -6.790363    1.881875    1.152839
    127          1           0       -5.796034   -0.481760   -0.110782
    128          1           0       -4.886354   -0.362224    2.696137
    129          1           0       -4.807385    1.693264    2.015233
    130          1           0       -6.219273    1.620204    3.047432
    131          1           0       -6.937702    2.801754    1.400253
    132          7           0       -7.753500   -1.387117    1.344297
    133          6           0       -8.867960   -2.278869    1.639353
    134          6           0       -9.951986   -1.741842    2.565252
    135          8           0      -10.493950   -2.505936    3.350258
    136          6           0       -8.390893   -3.669381    2.048356
    137          1           0       -7.446914   -1.345706    0.393987
    138          1           0       -9.459216   -2.499408    0.750377
    139          1           0       -8.008024   -3.761947    3.072389
    140          1           0       -9.276083   -4.283988    1.936563
    141          1           0       -7.570816   -3.869175    1.354847
    142          7           0      -10.553048   -0.561783    2.421078
    143          6           0      -10.120329    0.596164    1.666816
    144          6           0      -11.212649    1.092153    0.721071
    145          8           0      -12.397428    0.891371    0.956835
    146          6           0       -9.749937    1.645471    2.707327
    147          1           0      -11.295272   -0.397607    3.092904
    148          1           0       -9.243247    0.391094    1.048290
    149          1           0       -8.789992    1.365177    3.164755
    150          1           0       -9.632054    2.624826    2.250526
    151          1           0      -10.550769    1.723721    3.439000
    152          7           0      -10.878896    1.732683   -0.391777
    153          6           0       -9.611522    2.197777   -0.935790
    154          6           0       -9.548441    2.045518   -2.456098
    155          8           0       -8.481380    1.853625   -3.036751
    156          6           0       -9.371617    3.666319   -0.577418
    157          6           0      -10.414561    4.643981   -1.104052
    158          6           0      -10.044871    6.077205   -0.742810
    159          8           0      -10.380888    6.541074    0.369448
    160          8           0       -9.462139    6.851975   -1.532719
    161          1           0      -11.653053    2.100240   -0.929627
    162          1           0       -8.735300    1.729593   -0.502616
    163          1           0       -8.423221    3.887037   -1.062833
    164          1           0       -9.360953    3.711559    0.507220
    165          1           0      -11.375991    4.358731   -0.683951
    166          1           0      -10.388738    4.596275   -2.196599
    167          7           0      -10.703867    2.040893   -3.119701
    168          6           0      -10.804579    1.823242   -4.553432
    169          1           0      -11.846390    1.913372   -4.861449
    170          1           0      -10.205656    2.567600   -5.077065
    171          1           0      -10.440165    0.825641   -4.796770
    172          1           0      -11.563324    2.182556   -2.615056
    173         20           0        4.128171    0.327945    0.680803
    174          8           0        2.530274   -1.681076    1.458141
    175          1           0        1.631398   -1.824641    1.768642
    176          1           0        3.000784   -2.460842    1.735062
 ---------------------------------------------------------------------

 SCF Done:  E(RB3LYP) =  -5333.41324101     A.U. after   35 cycles

 The electronic state is 1-A.
 Alpha  occ. eigenvalues -- -145.45779 -19.22248 -19.17437 -19.15826 -19.14817
 Alpha  occ. eigenvalues --  -19.13848 -19.13300 -19.13072 -19.12025 -19.11896
 Alpha  occ. eigenvalues --  -19.11379 -19.10744 -19.10709 -19.10641 -19.10545
 Alpha  occ. eigenvalues --  -19.10457 -19.09777 -19.09305 -19.09250 -19.07995
 Alpha  occ. eigenvalues --  -19.07173 -19.06488 -18.98554 -18.98427 -15.51646
 Alpha  occ. eigenvalues --  -14.57171 -14.40017 -14.39329 -14.39211 -14.37517
 Alpha  occ. eigenvalues --  -14.37367 -14.37162 -14.36910 -14.36638 -14.36317
 Alpha  occ. eigenvalues --  -14.35049 -14.35030 -14.34571 -14.34086 -14.32862
 Alpha  occ. eigenvalues --  -12.65244 -12.65215 -12.65172 -10.35636 -10.33108
 Alpha  occ. eigenvalues --  -10.32491 -10.32024 -10.31108 -10.30491 -10.29685
 Alpha  occ. eigenvalues --  -10.29663 -10.29616 -10.29556 -10.29509 -10.29348
 Alpha  occ. eigenvalues --  -10.28699 -10.28465 -10.28143 -10.27207 -10.26754
 Alpha  occ. eigenvalues --  -10.26690 -10.26427 -10.26411 -10.26355 -10.26336
 Alpha  occ. eigenvalues --  -10.25753 -10.25189 -10.25028 -10.24947 -10.24767
 Alpha  occ. eigenvalues --  -10.24747 -10.24703 -10.24636 -10.24163 -10.23724
 Alpha  occ. eigenvalues --  -10.23486 -10.21945 -10.21444 -10.21385 -10.21287
 Alpha  occ. eigenvalues --  -10.21173 -10.21035 -10.20891 -10.20782 -10.20721
 Alpha  occ. eigenvalues --  -10.20452 -10.20095 -10.19824 -10.18219 -10.17736
 Alpha  occ. eigenvalues --  -10.17351 -10.17346 -10.17162 -10.15940 -10.15761
 Alpha  occ. eigenvalues --  -10.15711 -10.12921  -1.88500  -1.15996  -1.15858
 Alpha  occ. eigenvalues --   -1.15642  -1.13090  -1.08175  -1.07963  -1.07787
 Alpha  occ. eigenvalues --   -1.07224  -1.06993  -1.06782  -1.06248  -1.04618
 Alpha  occ. eigenvalues --   -1.04059  -1.04029  -1.03698  -1.03447  -1.03232
 Alpha  occ. eigenvalues --   -1.03035  -1.02641  -1.02306  -1.01477  -1.00928
 Alpha  occ. eigenvalues --   -1.00422  -0.97349  -0.96862  -0.96155  -0.95745
 Alpha  occ. eigenvalues --   -0.94550  -0.93919  -0.93869  -0.93693  -0.93574
 Alpha  occ. eigenvalues --   -0.93369  -0.93146  -0.93071  -0.92666  -0.91670
 Alpha  occ. eigenvalues --   -0.91107  -0.90478  -0.89740  -0.89677  -0.86630
 Alpha  occ. eigenvalues --   -0.84499  -0.82184  -0.82050  -0.81787  -0.81039
 Alpha  occ. eigenvalues --   -0.80299  -0.80053  -0.78928  -0.78044  -0.76974
 Alpha  occ. eigenvalues --   -0.76683  -0.76554  -0.75987  -0.75034  -0.74821
 Alpha  occ. eigenvalues --   -0.74578  -0.74441  -0.73475  -0.72766  -0.71509
 Alpha  occ. eigenvalues --   -0.70854  -0.70482  -0.70252  -0.70184  -0.69048
 Alpha  occ. eigenvalues --   -0.67700  -0.67406  -0.67181  -0.66493  -0.65562
 Alpha  occ. eigenvalues --   -0.64728  -0.64697  -0.64344  -0.63825  -0.63751
 Alpha  occ. eigenvalues --   -0.63412  -0.62970  -0.62141  -0.61983  -0.61454
 Alpha  occ. eigenvalues --   -0.61237  -0.60984  -0.60962  -0.60533  -0.60369
 Alpha  occ. eigenvalues --   -0.59844  -0.59724  -0.59334  -0.59117  -0.58689
 Alpha  occ. eigenvalues --   -0.58521  -0.58340  -0.58109  -0.57573  -0.57284
 Alpha  occ. eigenvalues --   -0.56430  -0.56324  -0.56024  -0.55545  -0.55209
 Alpha  occ. eigenvalues --   -0.54782  -0.54258  -0.54092  -0.54037  -0.53567
 Alpha  occ. eigenvalues --   -0.53360  -0.53184  -0.52673  -0.52483  -0.52432
 Alpha  occ. eigenvalues --   -0.51957  -0.51683  -0.51301  -0.50955  -0.50560
 Alpha  occ. eigenvalues --   -0.50490  -0.50241  -0.50069  -0.49757  -0.49468
 Alpha  occ. eigenvalues --   -0.49279  -0.49231  -0.48817  -0.48579  -0.48367
 Alpha  occ. eigenvalues --   -0.48121  -0.47981  -0.47728  -0.47628  -0.47396
 Alpha  occ. eigenvalues --   -0.47258  -0.46979  -0.46953  -0.46723  -0.46653
 Alpha  occ. eigenvalues --   -0.46503  -0.46293  -0.46129  -0.46088  -0.45716
 Alpha  occ. eigenvalues --   -0.45586  -0.45504  -0.45356  -0.45154  -0.45117
 Alpha  occ. eigenvalues --   -0.44902  -0.44764  -0.44710  -0.44524  -0.44124
 Alpha  occ. eigenvalues --   -0.43902  -0.43735  -0.43672  -0.43519  -0.43307
 Alpha  occ. eigenvalues --   -0.43089  -0.42937  -0.42831  -0.42714  -0.42674
 Alpha  occ. eigenvalues --   -0.42521  -0.42353  -0.42204  -0.42148  -0.42003
 Alpha  occ. eigenvalues --   -0.41964  -0.41769  -0.41553  -0.41390  -0.41235
 Alpha  occ. eigenvalues --   -0.40903  -0.40810  -0.40714  -0.40649  -0.40436
 Alpha  occ. eigenvalues --   -0.40354  -0.40331  -0.40276  -0.39884  -0.39813
 Alpha  occ. eigenvalues --   -0.39716  -0.39595  -0.39374  -0.39248  -0.38931
 Alpha  occ. eigenvalues --   -0.38870  -0.38844  -0.38352  -0.38223  -0.38206
 Alpha  occ. eigenvalues --   -0.38084  -0.38010  -0.37690  -0.37469  -0.37408
 Alpha  occ. eigenvalues --   -0.37089  -0.36971  -0.36814  -0.36748  -0.36524
 Alpha  occ. eigenvalues --   -0.36246  -0.36170  -0.36113  -0.35734  -0.35638
 Alpha  occ. eigenvalues --   -0.35531  -0.34795  -0.34466  -0.34381  -0.34293
 Alpha  occ. eigenvalues --   -0.33373  -0.33293  -0.32973  -0.32299  -0.32230
 Alpha  occ. eigenvalues --   -0.31916  -0.31813  -0.31525  -0.31341  -0.31007
 Alpha  occ. eigenvalues --   -0.30644  -0.30588  -0.29884  -0.29726  -0.29561
 Alpha  occ. eigenvalues --   -0.29086  -0.29017  -0.29008  -0.28991  -0.28680
 Alpha  occ. eigenvalues --   -0.28606  -0.28108  -0.27986  -0.27869  -0.27764
 Alpha  occ. eigenvalues --   -0.27440  -0.27252  -0.27203  -0.26953  -0.26323
 Alpha  occ. eigenvalues --   -0.26178  -0.26073  -0.25915  -0.25846  -0.25707
 Alpha  occ. eigenvalues --   -0.25298  -0.24714  -0.24654  -0.24641  -0.24232
 Alpha  occ. eigenvalues --   -0.23928  -0.23638  -0.22775  -0.22573  -0.22215
 Alpha  occ. eigenvalues --   -0.16137  -0.15197  -0.11783
 Alpha virt. eigenvalues --   -0.11102  -0.10066  -0.04829  -0.04573  -0.03982
 Alpha virt. eigenvalues --   -0.03170  -0.03076  -0.02734  -0.01924  -0.01616
 Alpha virt. eigenvalues --   -0.01460  -0.00390  -0.00324  -0.00107   0.00066

 Mulliken charges:
               1
     1  C    0.083539
     2  C    0.000164
     3  O   -0.289742
     4  H   -0.004363
     5  H    0.050092
     6  H    0.044102
     7  N   -0.114329
     8  C    0.092209
     9  C    0.073983
    10  O   -0.259157
    11  C    0.183019
    12  C    0.068835
    13  O   -0.444631
    14  O   -0.410813
    15  H    0.117462
    16  H   -0.019447
    17  H   -0.000044
    18  H    0.028076
    19  N   -0.118681
    20  C    0.154029
    21  C    0.031592
    22  O   -0.262118
    23  C   -0.008586
    24  C   -0.003516
    25  C   -0.013849
    26  C    0.062514
    27  N    0.162636
    28  H    0.106370
    29  H    0.025620
    30  H   -0.003568
    31  H    0.024847
    32  H    0.055655
    33  H   -0.005141
    34  H    0.005790
    35  H    0.030844
    36  H    0.025324
    37  H    0.063370
    38  H    0.099758
    39  H    0.103783
    40  H    0.113695
    41  N   -0.193693
    42  C    0.081913
    43  C    0.059837
    44  O   -0.267573
    45  C    0.172103
    46  C    0.081527
    47  O   -0.430633
    48  O   -0.419582
    49  H    0.185662
    50  H    0.033929
    51  H   -0.006384
    52  H    0.029074
    53  N   -0.161314
    54  C    0.214694
    55  C    0.019562
    56  O   -0.294287
    57  H    0.124020
    58  H    0.041862
    59  H    0.044444
    60  N   -0.135360
    61  C    0.114934
    62  C    0.125790
    63  O   -0.390802
    64  C    0.109601
    65  C    0.000535
    66  N   -0.022589
    67  O   -0.303401
    68  H    0.141991
    69  H    0.004537
    70  H   -0.000863
    71  H    0.038549
    72  H    0.110858
    73  H    0.141854
    74  N   -0.113038
    75  C    0.187467
    76  C    0.049336
    77  O   -0.279128
    78  H    0.140546
    79  H    0.036448
    80  H    0.058682
    81  N   -0.107390
    82  C    0.128728
    83  C    0.094874
    84  O   -0.283301
    85  C    0.121414
    86  C   -0.070930
    87  C   -0.017983
    88  C   -0.012520
    89  C   -0.030714
    90  C   -0.030763
    91  C    0.152215
    92  O   -0.191568
    93  H    0.144898
    94  H   -0.016210
    95  H   -0.020430
    96  H    0.001744
    97  H    0.010330
    98  H   -0.027690
    99  H   -0.007479
   100  H   -0.042202
   101  H    0.172331
   102  N   -0.116235
   103  C    0.182193
   104  C    0.070321
   105  O   -0.285782
   106  C   -0.114515
   107  C    0.039192
   108  C    0.046692
   109  C    0.023725
   110  H    0.125460
   111  H   -0.034924
   112  H    0.007212
   113  H   -0.002271
   114  H   -0.013376
   115  H    0.040089
   116  H   -0.010650
   117  H   -0.004955
   118  H    0.010496
   119  H   -0.021907
   120  H    0.020802
   121  N   -0.149451
   122  C    0.111318
   123  C    0.117869
   124  O   -0.268239
   125  C    0.212536
   126  O   -0.303714
   127  H    0.127258
   128  H    0.029228
   129  H    0.013143
   130  H    0.006239
   131  H    0.196897
   132  N   -0.123227
   133  C   -0.008329
   134  C    0.067176
   135  O   -0.271851
   136  C    0.092155
   137  H    0.111769
   138  H    0.027368
   139  H    0.042263
   140  H    0.021712
   141  H   -0.019695
   142  N   -0.074118
   143  C    0.016200
   144  C    0.054408
   145  O   -0.269415
   146  C    0.064001
   147  H    0.130997
   148  H    0.000089
   149  H    0.028938
   150  H    0.002380
   151  H    0.014639
   152  N   -0.096188
   153  C    0.088433
   154  C    0.062436
   155  O   -0.274019
   156  C    0.008850
   157  C    0.047787
   158  C    0.037165
   159  O   -0.334780
   160  O   -0.322701
   161  H    0.117337
   162  H    0.008474
   163  H    0.019455
   164  H   -0.002668
   165  H   -0.025350
   166  H   -0.018364
   167  N   -0.156303
   168  C    0.141181
   169  H    0.016052
   170  H    0.041548
   171  H    0.022363
   172  H    0.104249
   173  Ca   1.311555
   174  O   -0.287667
   175  H    0.198656
   176  H    0.182604
 Sum of Mulliken charges =  -0.00000

 Dipole moment (field-independent basis, Debye):
    X=             31.2607    Y=             -3.9582    Z=             14.2874  Tot=             34.5981
 Quadrupole moment (field-independent basis, Debye-Ang):
   XX=           -950.4245   YY=           -557.8773   ZZ=           -507.9504
   XY=            277.7035   XZ=            129.5828   YZ=            112.9360

 ESP charges:
               1
     1  C   -0.492128
     2  C    0.727198
     3  O   -0.571148
     4  H    0.109319
     5  H    0.155880
     6  H    0.147023
     7  N   -0.561700
     8  C    0.113439
     9  C    0.579534
    10  O   -0.510465
    11  C   -0.239488
    12  C    0.800696
    13  O   -0.709823
    14  O   -0.750278
    15  H    0.296012
    16  H    0.033962
    17  H    0.097689
    18  H    0.123278
    19  N   -0.568245
    20  C    0.319506
    21  C    0.368889
    22  O   -0.546021
    23  C   -0.410540
    24  C    0.267410
    25  C   -0.195859
    26  C    0.104549
    27  N   -0.134161
    28  H    0.295096
    29  H    0.067627
    30  H    0.091759
    31  H    0.111600
    32  H    0.061662
    33  H   -0.006638
    34  H    0.052179
    35  H    0.070162
    36  H    0.008782
    37  H    0.054067
    38  H    0.193018
    39  H    0.206419
    40  H    0.213602
    41  N    0.072496
    42  C    0.051955
    43  C    0.416847
    44  O   -0.516036
    45  C   -0.316806
    46  C    0.969672
    47  O   -0.729448
    48  O   -0.840250
    49  H   -0.360213
    50  H    0.105613
    51  H    0.082512
    52  H    0.100486
    53  N   -0.232649
    54  C   -0.333734
    55  C    0.594242
    56  O   -0.575965
    57  H    0.263955
    58  H    0.177640
    59  H    0.129191
    60  N   -0.178679
    61  C   -0.204397
    62  C    0.507881
    63  O   -0.568353
    64  C    0.011683
    65  C    0.634447
    66  N   -0.799220
    67  O   -0.562094
    68  H    0.168297
    69  H    0.119802
    70  H    0.018561
    71  H    0.061845
    72  H    0.344407
    73  H    0.399346
    74  N   -0.291998
    75  C   -0.286426
    76  C    0.744059
    77  O   -0.607741
    78  H    0.292048
    79  H    0.144305
    80  H    0.151449
    81  N   -0.586407
    82  C    0.248445
    83  C    0.385150
    84  O   -0.454905
    85  C   -0.131998
    86  C   -0.049594
    87  C   -0.067546
    88  C   -0.105442
    89  C   -0.259908
    90  C   -0.333200
    91  C    0.356316
    92  O   -0.516657
    93  H    0.313748
    94  H    0.028601
    95  H    0.045982
    96  H    0.063256
    97  H    0.128172
    98  H    0.127504
    99  H    0.178892
   100  H    0.156257
   101  H    0.396916
   102  N   -0.486056
   103  C   -0.143863
   104  C    0.672592
   105  O   -0.517856
   106  C    0.331659
   107  C   -0.213013
   108  C   -0.358856
   109  C   -0.189987
   110  H    0.306310
   111  H    0.119372
   112  H   -0.011753
   113  H    0.074284
   114  H    0.029509
   115  H    0.157933
   116  H    0.061791
   117  H    0.087618
   118  H    0.073458
   119  H   -0.001487
   120  H    0.106502
   121  N   -0.715441
   122  C    0.052780
   123  C    0.639070
   124  O   -0.566834
   125  C    0.134513
   126  O   -0.415029
   127  H    0.328665
   128  H    0.095044
   129  H    0.057254
   130  H   -0.005459
   131  H    0.334096
   132  N   -0.378746
   133  C    0.177605
   134  C    0.743064
   135  O   -0.586952
   136  C   -0.355196
   137  H    0.267819
   138  H    0.044621
   139  H    0.119286
   140  H    0.105186
   141  H    0.049476
   142  N   -0.846948
   143  C    0.374736
   144  C    0.674145
   145  O   -0.575307
   146  C   -0.315246
   147  H    0.407387
   148  H   -0.064047
   149  H    0.098768
   150  H    0.098449
   151  H    0.089459
   152  N   -0.667423
   153  C   -0.177447
   154  C    0.681669
   155  O   -0.570487
   156  C    0.336893
   157  C   -0.297843
   158  C    0.673345
   159  O   -0.616870
   160  O   -0.603803
   161  H    0.315052
   162  H    0.073444
   163  H   -0.067065
   164  H   -0.066948
   165  H    0.075589
   166  H    0.035131
   167  N   -0.336027
   168  C   -0.232523
   169  H    0.115289
   170  H    0.120408
   171  H    0.099540
   172  H    0.271242
   173  Ca   1.617577
   174  O   -0.852806
   175  H    0.453939
   176  H    0.399573
 Sum of ESP charges =   0.00000

 Normal termination of Gaussian 16 at Wed Sep 18 11:20:20 2019.
