 Gaussian 16, Revision A.03,
 Gaussian 16:  ES64L-G16RevA.03 25-Dec-2016

 ----------------------------------------------------------------------
 #b3lyp/svp scf=(tight,noincore) Test #IOP(5/87=12) Density=Current Pop
 =(MK,readradii) iop(6/33=2) iop(6/42=6)
 ----------------------------------------------------------------------

 -----------------
 Ng-293_loop3_23.0
 -----------------
 Symbolic Z-matrix:
 Charge =  0 Multiplicity = 1

                         Standard orientation:
 ---------------------------------------------------------------------
 Center     Atomic      Atomic             Coordinates (Angstroms)
 Number     Number       Type             X           Y           Z
 ---------------------------------------------------------------------
      1          6           0       -8.483879   -1.977766    6.264798
      2          6           0       -8.873258   -2.119163    4.808642
      3          8           0       -9.961281   -1.723159    4.385927
      4          1           0       -7.860757   -2.822983    6.556745
      5          1           0       -7.927125   -1.050729    6.404160
      6          1           0       -9.382255   -1.958604    6.882026
      7          7           0       -7.932071   -2.580778    3.973012
      8          6           0       -8.148405   -2.883206    2.568079
      9          6           0       -8.371942   -1.598918    1.775339
     10          8           0       -7.950179   -0.523961    2.189566
     11          6           0       -7.034439   -3.741900    1.979585
     12          6           0       -7.320820   -4.137982    0.528583
     13          8           0       -6.635875   -3.675353   -0.407112
     14          8           0       -8.347162   -4.810868    0.283541
     15          1           0       -7.092164   -2.935294    4.399947
     16          1           0       -9.067726   -3.469978    2.460626
     17          1           0       -6.770876   -4.579823    2.609361
     18          1           0       -6.110614   -3.162125    1.922931
     19          7           0       -9.095092   -1.748995    0.661997
     20          6           0       -9.296813   -0.648270   -0.266126
     21          6           0       -7.990844    0.003916   -0.675515
     22          8           0       -8.064798    1.165231   -1.085368
     23          6           0      -10.455398    0.225691    0.202886
     24          6           0      -11.805983   -0.433233    0.472403
     25          6           0      -12.450898   -1.149521   -0.711538
     26          6           0      -13.962765   -1.289507   -0.737302
     27          7           0      -14.317465   -2.044360   -1.943322
     28          1           0       -9.204777   -2.709407    0.408664
     29          1           0       -9.666551   -1.059845   -1.205062
     30          1           0      -10.606693    1.078743   -0.467720
     31          1           0      -10.221304    0.729044    1.150639
     32          1           0      -12.478923    0.379366    0.737986
     33          1           0      -11.753259   -1.173463    1.276256
     34          1           0      -11.998801   -2.136270   -0.803915
     35          1           0      -12.205532   -0.552461   -1.586418
     36          1           0      -14.491202   -0.347188   -0.596986
     37          1           0      -14.065792   -1.935238    0.145997
     38          1           0      -13.711256   -2.765888   -2.312118
     39          1           0      -15.191871   -2.538642   -1.812179
     40          1           0      -14.558685   -1.401124   -2.686666
     41          7           0       -6.862236   -0.707892   -0.662336
     42          6           0       -5.515079   -0.196258   -0.846450
     43          6           0       -4.422760   -1.213164   -1.175907
     44          8           0       -3.686923   -1.707943   -0.322949
     45          6           0       -5.187716    0.573348    0.431924
     46          6           0       -3.803084    1.198356    0.483483
     47          8           0       -3.304255    1.711525   -0.541128
     48          8           0       -3.141796    1.169906    1.539366
     49          1           0       -7.035066   -1.679942   -0.461712
     50          1           0       -5.631160    0.515430   -1.658747
     51          1           0       -5.454230   -0.064760    1.272631
     52          1           0       -5.837316    1.451342    0.455270
     53          7           0       -4.080909   -1.347445   -2.458134
     54          6           0       -2.868637   -2.002021   -2.899075
     55          6           0       -1.632460   -1.115668   -3.031526
     56          8           0       -1.796904    0.067020   -3.332041
     57          1           0       -4.539420   -0.834523   -3.203102
     58          1           0       -3.158234   -2.528488   -3.802272
     59          1           0       -2.597554   -2.722212   -2.131521
     60          7           0       -0.445444   -1.642196   -2.732760
     61          6           0        0.803019   -0.914286   -2.694200
     62          6           0        2.050489   -1.622200   -3.195274
     63          8           0        3.181594   -1.139943   -3.210395
     64          6           0        0.981297   -0.406018   -1.261307
     65          6           0       -0.169642    0.460215   -0.764334
     66          7           0       -0.909882   -0.012373    0.240954
     67          8           0       -0.385600    1.557896   -1.267384
     68          1           0       -0.404517   -2.615793   -2.437238
     69          1           0        0.666584    0.007031   -3.257014
     70          1           0        1.900829    0.171903   -1.149206
     71          1           0        1.111021   -1.282415   -0.634172
     72          1           0       -0.821092   -0.999140    0.423181
     73          1           0       -1.732211    0.475142    0.582720
     74          7           0        1.923795   -2.917295   -3.504270
     75          6           0        3.021642   -3.809403   -3.811475
     76          6           0        3.798106   -4.235552   -2.571556
     77          8           0        3.151951   -4.349004   -1.532078
     78          1           0        0.985578   -3.272121   -3.685505
     79          1           0        3.688676   -3.315956   -4.515590
     80          1           0        2.687294   -4.700367   -4.331085
     81          7           0        5.117479   -4.112411   -2.655165
     82          6           0        6.078750   -4.319679   -1.587692
     83          6           0        6.116902   -3.295437   -0.456686
     84          8           0        7.135584   -3.076034    0.194428
     85          6           0        5.868827   -5.729972   -1.036687
     86          6           0        6.945776   -6.239783   -0.098776
     87          6           0        8.306233   -6.289527   -0.427382
     88          6           0        6.591359   -6.670073    1.184633
     89          6           0        9.248506   -6.846419    0.448514
     90          6           0        7.484828   -7.228980    2.101931
     91          6           0        8.844444   -7.265325    1.734341
     92          8           0        9.735786   -7.647695    2.686708
     93          1           0        5.452458   -3.878255   -3.579752
     94          1           0        7.068766   -4.332575   -2.044421
     95          1           0        5.766519   -6.410678   -1.876373
     96          1           0        4.893053   -5.710283   -0.567669
     97          1           0        8.602418   -5.829554   -1.350474
     98          1           0        5.560357   -6.481464    1.461514
     99          1           0       10.299165   -6.866001    0.234432
    100          1           0        7.123473   -7.543230    3.068817
    101          1           0        9.293038   -7.881971    3.508408
    102          7           0        4.984636   -2.612037   -0.287164
    103          6           0        4.768158   -1.447969    0.540836
    104          6           0        5.640761   -0.296206    0.048287
    105          8           0        4.998879    0.730933   -0.182525
    106          6           0        4.973607   -1.736910    2.024920
    107          6           0        3.964934   -2.757187    2.537378
    108          6           0        4.819425   -0.478038    2.858508
    109          6           0        4.109688   -3.306345    3.958987
    110          1           0        4.145576   -2.867918   -0.800781
    111          1           0        3.748334   -1.138977    0.315042
    112          1           0        5.945906   -2.167044    2.258841
    113          1           0        3.996408   -3.644316    1.900895
    114          1           0        2.953156   -2.341587    2.471177
    115          1           0        4.952476   -0.634980    3.930360
    116          1           0        5.669086    0.169679    2.654942
    117          1           0        3.929316    0.075037    2.575288
    118          1           0        5.121980   -3.667050    4.108172
    119          1           0        3.925745   -2.516927    4.695998
    120          1           0        3.452771   -4.166131    4.072684
    121          7           0        6.976695   -0.241628    0.048491
    122          6           0        7.828687    0.791943   -0.517583
    123          6           0        7.685066    2.135483    0.175579
    124          8           0        8.284464    3.085502   -0.344504
    125          6           0        9.272075    0.295927   -0.516546
    126          8           0        9.412345   -1.034282   -0.969061
    127          1           0        7.494749   -1.079410    0.236754
    128          1           0        7.477274    0.950853   -1.532746
    129          1           0        9.762655    0.243120    0.457693
    130          1           0        9.881271    0.929642   -1.166073
    131          1           0       10.092129   -1.434769   -0.428780
    132          7           0        7.058028    2.290208    1.337596
    133          6           0        6.682766    3.512069    2.024716
    134          6           0        5.994694    4.518081    1.110442
    135          8           0        6.280593    5.711924    1.111865
    136          6           0        7.908535    4.107767    2.716043
    137          1           0        6.774892    1.472016    1.857689
    138          1           0        5.993079    3.193577    2.804840
    139          1           0        8.522399    3.386011    3.249934
    140          1           0        8.460781    4.604275    1.915416
    141          1           0        7.524237    4.918925    3.331460
    142          7           0        5.019834    4.054740    0.315545
    143          6           0        4.041191    4.768668   -0.474813
    144          6           0        2.944993    5.282799    0.446339
    145          8           0        2.482328    4.599439    1.360374
    146          6           0        3.641496    3.808464   -1.596532
    147          1           0        4.858002    3.061631    0.303482
    148          1           0        4.422656    5.658939   -0.969688
    149          1           0        2.854481    4.131688   -2.279051
    150          1           0        4.558086    3.843535   -2.173709
    151          1           0        3.521360    2.773711   -1.259556
    152          7           0        2.483212    6.500655    0.161760
    153          6           0        1.322574    7.158789    0.736197
    154          6           0        1.309789    7.299343    2.252041
    155          8           0        0.313870    6.966823    2.890302
    156          6           0       -0.003137    6.722443    0.137705
    157          6           0        0.072161    6.645836   -1.388290
    158          6           0       -1.290120    6.309359   -1.967060
    159          8           0       -1.683684    5.121975   -2.058851
    160          8           0       -2.084684    7.269643   -2.081603
    161          1           0        2.915962    6.994067   -0.596312
    162          1           0        1.364271    8.171606    0.339506
    163          1           0       -0.773353    7.440713    0.421704
    164          1           0       -0.334846    5.783353    0.601903
    165          1           0        0.724052    5.820773   -1.655138
    166          1           0        0.425760    7.583992   -1.812239
    167          7           0        2.403105    7.722012    2.899582
    168          6           0        2.575408    7.702236    4.338373
    169          1           0        3.171839    6.834123    4.620205
    170          1           0        3.085845    8.611497    4.656801
    171          1           0        1.599628    7.644338    4.820997
    172          1           0        3.209982    8.078694    2.401960
    173         20           0       -2.434273    2.775626   -2.577182
    174          8           0       -2.938128    4.286478   -4.732746
    175          1           0       -3.761985    4.495531   -5.179241
    176          1           0       -2.386239    5.053086   -4.868508
 ---------------------------------------------------------------------

 SCF Done:  E(RB3LYP) =  -5333.41268174     A.U. after   18 cycles

 The electronic state is 1-A.
 Alpha  occ. eigenvalues -- -145.41904 -19.18994 -19.16228 -19.14004 -19.13164
 Alpha  occ. eigenvalues --  -19.12832 -19.12159 -19.10574 -19.08736 -19.08406
 Alpha  occ. eigenvalues --  -19.07739 -19.07153 -19.06116 -19.05906 -19.05852
 Alpha  occ. eigenvalues --  -19.05317 -19.05198 -19.04064 -19.03561 -19.02312
 Alpha  occ. eigenvalues --  -19.00231 -18.98961 -18.98689 -18.98548 -15.47764
 Alpha  occ. eigenvalues --  -14.59375 -14.40102 -14.39232 -14.38936 -14.35225
 Alpha  occ. eigenvalues --  -14.35204 -14.34164 -14.33657 -14.32118 -14.32084
 Alpha  occ. eigenvalues --  -14.31351 -14.31294 -14.31269 -14.30914 -14.30802
 Alpha  occ. eigenvalues --  -12.61385 -12.61354 -12.61278 -10.35060 -10.32449
 Alpha  occ. eigenvalues --  -10.31518 -10.31390 -10.29241 -10.27626 -10.27303
 Alpha  occ. eigenvalues --  -10.26837 -10.26622 -10.26362 -10.26222 -10.26219
 Alpha  occ. eigenvalues --  -10.25317 -10.25291 -10.25100 -10.25055 -10.24401
 Alpha  occ. eigenvalues --  -10.24292 -10.24076 -10.23870 -10.23807 -10.23440
 Alpha  occ. eigenvalues --  -10.23162 -10.22916 -10.22326 -10.22125 -10.21389
 Alpha  occ. eigenvalues --  -10.21234 -10.20392 -10.20330 -10.20050 -10.20008
 Alpha  occ. eigenvalues --  -10.19857 -10.19386 -10.19060 -10.19010 -10.18925
 Alpha  occ. eigenvalues --  -10.18909 -10.18892 -10.18888 -10.18886 -10.18856
 Alpha  occ. eigenvalues --  -10.18442 -10.18100 -10.17110 -10.17092 -10.16909
 Alpha  occ. eigenvalues --  -10.16282 -10.16070 -10.14955 -10.13188 -10.12616
 Alpha  occ. eigenvalues --  -10.12466 -10.12205  -1.84338  -1.14583  -1.11937
 Alpha  occ. eigenvalues --   -1.11610  -1.11194  -1.06804  -1.06493  -1.05141
 Alpha  occ. eigenvalues --   -1.05061  -1.04782  -1.03566  -1.02357  -1.01627
 Alpha  occ. eigenvalues --   -1.01125  -1.00868  -1.00358  -0.99696  -0.99078
 Alpha  occ. eigenvalues --   -0.98483  -0.98134  -0.97609  -0.97073  -0.96981
 Alpha  occ. eigenvalues --   -0.96892  -0.96077  -0.94888  -0.94240  -0.93828
 Alpha  occ. eigenvalues --   -0.92605  -0.91151  -0.91041  -0.90231  -0.89945
 Alpha  occ. eigenvalues --   -0.88862  -0.88706  -0.88252  -0.88112  -0.87718
 Alpha  occ. eigenvalues --   -0.87164  -0.86567  -0.86122  -0.85037  -0.84603
 Alpha  occ. eigenvalues --   -0.83346  -0.81836  -0.81140  -0.80647  -0.80118
 Alpha  occ. eigenvalues --   -0.76691  -0.76463  -0.76110  -0.75528  -0.75104
 Alpha  occ. eigenvalues --   -0.74305  -0.74224  -0.74083  -0.73764  -0.73016
 Alpha  occ. eigenvalues --   -0.72748  -0.72608  -0.72551  -0.71445  -0.70138
 Alpha  occ. eigenvalues --   -0.69104  -0.68698  -0.68574  -0.67346  -0.66853
 Alpha  occ. eigenvalues --   -0.65265  -0.64784  -0.64138  -0.63530  -0.63465
 Alpha  occ. eigenvalues --   -0.63202  -0.62749  -0.62535  -0.62061  -0.61657
 Alpha  occ. eigenvalues --   -0.61593  -0.61145  -0.60369  -0.60286  -0.59399
 Alpha  occ. eigenvalues --   -0.59133  -0.58863  -0.58411  -0.58131  -0.58075
 Alpha  occ. eigenvalues --   -0.56865  -0.56677  -0.56475  -0.56282  -0.56037
 Alpha  occ. eigenvalues --   -0.55345  -0.55222  -0.55106  -0.54935  -0.54653
 Alpha  occ. eigenvalues --   -0.54219  -0.53637  -0.53602  -0.53424  -0.53119
 Alpha  occ. eigenvalues --   -0.52770  -0.52212  -0.51603  -0.51344  -0.50997
 Alpha  occ. eigenvalues --   -0.50954  -0.50672  -0.50495  -0.49815  -0.49341
 Alpha  occ. eigenvalues --   -0.49159  -0.48914  -0.48226  -0.47909  -0.47856
 Alpha  occ. eigenvalues --   -0.47616  -0.47401  -0.46949  -0.46775  -0.46654
 Alpha  occ. eigenvalues --   -0.46578  -0.46177  -0.46156  -0.45894  -0.45863
 Alpha  occ. eigenvalues --   -0.45762  -0.45386  -0.45167  -0.45093  -0.44768
 Alpha  occ. eigenvalues --   -0.44669  -0.44341  -0.44254  -0.44003  -0.43836
 Alpha  occ. eigenvalues --   -0.43635  -0.43605  -0.43451  -0.43371  -0.43201
 Alpha  occ. eigenvalues --   -0.42889  -0.42813  -0.42656  -0.42443  -0.42299
 Alpha  occ. eigenvalues --   -0.42223  -0.42032  -0.41701  -0.41424  -0.41386
 Alpha  occ. eigenvalues --   -0.41359  -0.41148  -0.40823  -0.40718  -0.40632
 Alpha  occ. eigenvalues --   -0.40412  -0.40172  -0.40092  -0.40005  -0.39677
 Alpha  occ. eigenvalues --   -0.39564  -0.39387  -0.39347  -0.39126  -0.38979
 Alpha  occ. eigenvalues --   -0.38381  -0.38310  -0.38159  -0.38015  -0.37851
 Alpha  occ. eigenvalues --   -0.37709  -0.37652  -0.37562  -0.37461  -0.37356
 Alpha  occ. eigenvalues --   -0.37302  -0.37169  -0.36815  -0.36732  -0.36702
 Alpha  occ. eigenvalues --   -0.36585  -0.36471  -0.36359  -0.36297  -0.36183
 Alpha  occ. eigenvalues --   -0.35865  -0.35777  -0.35736  -0.35526  -0.35296
 Alpha  occ. eigenvalues --   -0.35003  -0.34958  -0.34855  -0.34724  -0.34618
 Alpha  occ. eigenvalues --   -0.34116  -0.34027  -0.33982  -0.33764  -0.33702
 Alpha  occ. eigenvalues --   -0.33628  -0.33325  -0.33197  -0.33032  -0.32949
 Alpha  occ. eigenvalues --   -0.32681  -0.32502  -0.32151  -0.32132  -0.31679
 Alpha  occ. eigenvalues --   -0.31347  -0.31327  -0.30987  -0.30470  -0.30319
 Alpha  occ. eigenvalues --   -0.30108  -0.29813  -0.29657  -0.29559  -0.28953
 Alpha  occ. eigenvalues --   -0.28775  -0.28183  -0.28113  -0.27932  -0.27744
 Alpha  occ. eigenvalues --   -0.27393  -0.26421  -0.26258  -0.25568  -0.25398
 Alpha  occ. eigenvalues --   -0.24938  -0.24535  -0.24409  -0.24342  -0.23675
 Alpha  occ. eigenvalues --   -0.23263  -0.23080  -0.22724  -0.22432  -0.22429
 Alpha  occ. eigenvalues --   -0.22210  -0.22030  -0.21660  -0.21384  -0.21290
 Alpha  occ. eigenvalues --   -0.20850  -0.20748  -0.20443  -0.19971  -0.19880
 Alpha  occ. eigenvalues --   -0.19695  -0.18747  -0.18123  -0.16952  -0.16779
 Alpha  occ. eigenvalues --   -0.16363  -0.14800  -0.13846
 Alpha virt. eigenvalues --   -0.11108  -0.05621  -0.05118  -0.04006  -0.02863
 Alpha virt. eigenvalues --   -0.02015  -0.01562  -0.01388  -0.01259   0.00194
 Alpha virt. eigenvalues --    0.00446   0.00628   0.02049   0.02275   0.02437

 Mulliken charges:
               1
     1  C    0.052408
     2  C    0.026997
     3  O   -0.310818
     4  H    0.000012
     5  H    0.052590
     6  H    0.018401
     7  N   -0.092437
     8  C    0.071017
     9  C    0.050484
    10  O   -0.262785
    11  C    0.127988
    12  C    0.001709
    13  O   -0.370314
    14  O   -0.400659
    15  H    0.106522
    16  H   -0.008313
    17  H   -0.013289
    18  H   -0.008305
    19  N   -0.148918
    20  C    0.144270
    21  C    0.050675
    22  O   -0.311872
    23  C    0.068304
    24  C    0.049506
    25  C   -0.121357
    26  C    0.040380
    27  N    0.091587
    28  H    0.116960
    29  H   -0.015112
    30  H   -0.004014
    31  H    0.038829
    32  H   -0.004061
    33  H    0.046219
    34  H    0.044443
    35  H    0.005699
    36  H    0.088458
    37  H    0.083765
    38  H    0.194209
    39  H    0.180705
    40  H    0.188297
    41  N   -0.115780
    42  C    0.111216
    43  C    0.161892
    44  O   -0.273903
    45  C    0.098029
    46  C    0.147455
    47  O   -0.524811
    48  O   -0.356410
    49  H    0.121720
    50  H   -0.057758
    51  H    0.024638
    52  H    0.018491
    53  N   -0.147394
    54  C    0.190321
    55  C    0.117491
    56  O   -0.358003
    57  H    0.106481
    58  H    0.030932
    59  H    0.022624
    60  N   -0.149861
    61  C    0.090145
    62  C    0.094231
    63  O   -0.261141
    64  C    0.049838
    65  C    0.058841
    66  N   -0.003515
    67  O   -0.348142
    68  H    0.135844
    69  H    0.032383
    70  H    0.082802
    71  H   -0.016435
    72  H    0.109803
    73  H    0.142730
    74  N   -0.141139
    75  C    0.204084
    76  C    0.055330
    77  O   -0.309023
    78  H    0.110447
    79  H    0.008971
    80  H    0.030134
    81  N   -0.110007
    82  C    0.069267
    83  C    0.123740
    84  O   -0.287038
    85  C    0.129435
    86  C    0.005304
    87  C    0.004819
    88  C   -0.030266
    89  C   -0.003894
    90  C   -0.030493
    91  C    0.157751
    92  O   -0.193803
    93  H    0.133441
    94  H    0.019279
    95  H    0.000134
    96  H    0.015149
    97  H   -0.041670
    98  H   -0.030749
    99  H   -0.029161
   100  H   -0.041366
   101  H    0.175188
   102  N   -0.132487
   103  C    0.194666
   104  C    0.050258
   105  O   -0.294897
   106  C   -0.095928
   107  C   -0.004907
   108  C    0.122481
   109  C    0.039326
   110  H    0.141092
   111  H   -0.009890
   112  H    0.000200
   113  H   -0.010484
   114  H   -0.012142
   115  H    0.004659
   116  H   -0.059900
   117  H    0.032379
   118  H   -0.004637
   119  H    0.018977
   120  H    0.010566
   121  N   -0.133901
   122  C    0.128738
   123  C    0.052470
   124  O   -0.291370
   125  C    0.216614
   126  O   -0.308545
   127  H    0.125629
   128  H    0.026254
   129  H   -0.014549
   130  H    0.022893
   131  H    0.169291
   132  N   -0.118035
   133  C    0.035722
   134  C    0.076929
   135  O   -0.274193
   136  C    0.096935
   137  H    0.123058
   138  H    0.022912
   139  H   -0.008889
   140  H    0.034901
   141  H    0.007418
   142  N   -0.123491
   143  C    0.085739
   144  C    0.087927
   145  O   -0.272522
   146  C    0.033171
   147  H    0.128564
   148  H   -0.021701
   149  H    0.015541
   150  H    0.015402
   151  H    0.049603
   152  N   -0.120979
   153  C    0.100154
   154  C    0.093410
   155  O   -0.262446
   156  C    0.023012
   157  C    0.099091
   158  C    0.073498
   159  O   -0.507452
   160  O   -0.368116
   161  H    0.110958
   162  H   -0.011872
   163  H    0.008362
   164  H    0.038003
   165  H   -0.047379
   166  H   -0.038665
   167  N   -0.155571
   168  C    0.127516
   169  H    0.023597
   170  H    0.002716
   171  H    0.042515
   172  H    0.105829
   173  Ca   1.413517
   174  O   -0.313914
   175  H    0.187969
   176  H    0.201609
 Sum of Mulliken charges =  -0.00000

 Dipole moment (field-independent basis, Debye):
    X=            -27.7046    Y=            -19.3544    Z=            -23.1209  Tot=             40.9477
 Quadrupole moment (field-independent basis, Debye-Ang):
   XX=             27.7510   YY=           -650.3727   ZZ=           -463.2746
   XY=             19.4453   XZ=            179.9057   YZ=              1.5515

 ESP charges:
               1
     1  C   -0.428014
     2  C    0.777642
     3  O   -0.611296
     4  H    0.085864
     5  H    0.140026
     6  H    0.106201
     7  N   -0.771442
     8  C    0.468300
     9  C    0.633053
    10  O   -0.524658
    11  C   -0.436896
    12  C    0.813573
    13  O   -0.715650
    14  O   -0.739555
    15  H    0.350865
    16  H   -0.062906
    17  H    0.094268
    18  H    0.087918
    19  N   -0.617953
    20  C    0.267154
    21  C    0.404567
    22  O   -0.546174
    23  C   -0.108207
    24  C    0.043612
    25  C    0.185352
    26  C   -0.105855
    27  N   -0.221952
    28  H    0.286440
    29  H   -0.022811
    30  H    0.024593
    31  H    0.087817
    32  H   -0.001339
    33  H   -0.003806
    34  H    0.017534
    35  H   -0.055020
    36  H    0.116500
    37  H    0.080963
    38  H    0.292999
    39  H    0.294695
    40  H    0.299193
    41  N   -0.260403
    42  C   -0.131165
    43  C    0.697972
    44  O   -0.520745
    45  C   -0.428998
    46  C    0.883609
    47  O   -0.873652
    48  O   -0.668446
    49  H    0.202103
    50  H    0.059524
    51  H    0.121179
    52  H    0.182780
    53  N   -0.428712
    54  C   -0.144078
    55  C    0.679396
    56  O   -0.601595
    57  H    0.274846
    58  H    0.105602
    59  H    0.108235
    60  N   -0.743614
    61  C    0.303087
    62  C    0.389003
    63  O   -0.489157
    64  C   -0.288444
    65  C    0.913453
    66  N   -0.879049
    67  O   -0.699776
    68  H    0.340065
    69  H    0.045902
    70  H    0.064626
    71  H    0.054942
    72  H    0.368052
    73  H    0.476021
    74  N   -0.242940
    75  C   -0.216229
    76  C    0.730745
    77  O   -0.593586
    78  H    0.239919
    79  H    0.094955
    80  H    0.113105
    81  N   -0.848317
    82  C    0.545640
    83  C    0.294569
    84  O   -0.500917
    85  C   -0.153340
    86  C    0.005581
    87  C   -0.161169
    88  C   -0.074819
    89  C   -0.278666
    90  C   -0.381476
    91  C    0.451515
    92  O   -0.570221
    93  H    0.388667
    94  H   -0.014920
    95  H    0.057249
    96  H    0.057220
    97  H    0.129245
    98  H    0.125482
    99  H    0.168313
   100  H    0.159235
   101  H    0.416105
   102  N   -0.167167
   103  C   -0.594041
   104  C    0.670529
   105  O   -0.519709
   106  C    0.175714
   107  C    0.305443
   108  C   -0.379056
   109  C   -0.256918
   110  H    0.314981
   111  H    0.252531
   112  H    0.044766
   113  H   -0.080616
   114  H   -0.060297
   115  H    0.103118
   116  H    0.110960
   117  H    0.113724
   118  H    0.044201
   119  H    0.047013
   120  H    0.064783
   121  N   -0.406847
   122  C    0.042036
   123  C    0.221640
   124  O   -0.484199
   125  C    0.353363
   126  O   -0.640962
   127  H    0.267731
   128  H    0.122259
   129  H   -0.023390
   130  H   -0.008944
   131  H    0.408562
   132  N   -0.156572
   133  C    0.308529
   134  C    0.474989
   135  O   -0.530752
   136  C   -0.322620
   137  H    0.118736
   138  H   -0.009283
   139  H    0.070614
   140  H    0.100427
   141  H    0.067116
   142  N   -0.434938
   143  C    0.410778
   144  C    0.311512
   145  O   -0.446876
   146  C   -0.282420
   147  H    0.172375
   148  H   -0.026649
   149  H    0.061661
   150  H    0.068227
   151  H    0.105821
   152  N   -0.412491
   153  C   -0.047442
   154  C    0.369967
   155  O   -0.486732
   156  C    0.530921
   157  C   -0.248599
   158  C    0.696845
   159  O   -0.823619
   160  O   -0.661580
   161  H    0.271537
   162  H    0.020761
   163  H   -0.089619
   164  H   -0.051604
   165  H   -0.002250
   166  H    0.013464
   167  N   -0.259181
   168  C   -0.009356
   169  H    0.055024
   170  H    0.018267
   171  H    0.068249
   172  H    0.232394
   173  Ca   1.649164
   174  O   -0.832748
   175  H    0.428607
   176  H    0.429034
 Sum of ESP charges =  -0.00000

 Normal termination of Gaussian 16 at Tue Sep 17 00:23:44 2019.
