 Gaussian 16, Revision A.03,
 Gaussian 16:  ES64L-G16RevA.03 25-Dec-2016

 ----------------------------------------------------------------------
 #b3lyp/svp scf=(tight,noincore) Test #IOP(5/87=12) Density=Current Pop
 =(MK,readradii) iop(6/33=2) iop(6/42=6)
 ----------------------------------------------------------------------

 -----------------
 Ng-295_loop3_12.0
 -----------------
 Symbolic Z-matrix:
 Charge =  0 Multiplicity = 1

                         Standard orientation:
 ---------------------------------------------------------------------
 Center     Atomic      Atomic             Coordinates (Angstroms)
 Number     Number       Type             X           Y           Z
 ---------------------------------------------------------------------
      1          6           0      -10.727096    3.848369    3.932138
      2          6           0       -9.652524    3.352106    2.981813
      3          8           0       -9.046272    4.148712    2.263149
      4          1           0      -10.257857    4.272271    4.820564
      5          1           0      -11.325238    4.614058    3.437677
      6          1           0      -11.368468    3.016338    4.223118
      7          7           0       -9.292945    2.067679    2.949410
      8          6           0       -8.303649    1.575595    2.013597
      9          6           0       -8.835410    1.470000    0.600700
     10          8           0       -9.788492    0.764682    0.268043
     11          6           0       -7.696001    0.230429    2.395167
     12          6           0       -6.442029   -0.153656    1.612268
     13          8           0       -6.243482    0.145061    0.412165
     14          8           0       -5.392577   -0.356874    2.262846
     15          1           0       -9.659891    1.426249    3.644549
     16          1           0       -7.527442    2.331280    2.077966
     17          1           0       -8.354662   -0.629813    2.224728
     18          1           0       -7.411786    0.276177    3.445657
     19          7           0       -8.236048    2.277120   -0.271724
     20          6           0       -8.684943    2.508939   -1.625590
     21          6           0       -8.502176    1.406151   -2.666528
     22          8           0       -9.328445    1.215884   -3.553027
     23          6           0       -8.208013    3.811112   -2.250558
     24          6           0       -6.696195    3.977770   -2.159273
     25          6           0       -6.298459    5.448213   -2.161094
     26          6           0       -4.855106    5.591020   -1.686607
     27          7           0       -4.584618    7.003445   -1.427196
     28          1           0       -7.545432    2.923315    0.099869
     29          1           0       -9.765919    2.571226   -1.600858
     30          1           0       -8.726683    4.621502   -1.734855
     31          1           0       -8.428182    3.852881   -3.321997
     32          1           0       -6.314315    3.500950   -3.064873
     33          1           0       -6.322118    3.531853   -1.231629
     34          1           0       -6.975344    5.934933   -1.462072
     35          1           0       -6.449291    5.798537   -3.182672
     36          1           0       -4.243356    5.073589   -2.421881
     37          1           0       -4.747659    4.965421   -0.792470
     38          1           0       -3.685473    7.191384   -1.000680
     39          1           0       -4.534499    7.579568   -2.256335
     40          1           0       -5.292980    7.399260   -0.831836
     41          7           0       -7.347109    0.741112   -2.495812
     42          6           0       -6.902185   -0.389140   -3.270068
     43          6           0       -7.102876   -1.712582   -2.538615
     44          8           0       -7.092052   -2.777432   -3.140013
     45          6           0       -5.415468   -0.246003   -3.602005
     46          6           0       -4.725519    0.080140   -2.287775
     47          8           0       -4.199483   -0.879094   -1.669992
     48          8           0       -4.660684    1.282398   -1.935966
     49          1           0       -6.763956    0.991164   -1.711398
     50          1           0       -7.477007   -0.435559   -4.195068
     51          1           0       -5.370827    0.521429   -4.359934
     52          1           0       -5.023514   -1.213119   -3.928288
     53          7           0       -7.211951   -1.732431   -1.203134
     54          6           0       -7.517758   -2.919814   -0.439457
     55          6           0       -6.356649   -3.610328    0.249540
     56          8           0       -6.491821   -4.399850    1.177808
     57          1           0       -7.221704   -0.837914   -0.732449
     58          1           0       -7.923009   -3.607214   -1.189559
     59          1           0       -8.273339   -2.622868    0.285884
     60          7           0       -5.162404   -3.235382   -0.227739
     61          6           0       -3.914055   -3.836512    0.203964
     62          6           0       -3.192259   -3.067270    1.309033
     63          8           0       -3.012872   -1.869850    1.136386
     64          6           0       -3.089188   -4.165484   -1.035258
     65          6           0       -2.077730   -5.236301   -0.640666
     66          7           0       -1.390376   -5.854851   -1.605415
     67          8           0       -1.811816   -5.555834    0.517690
     68          1           0       -5.180683   -2.422703   -0.817162
     69          1           0       -4.228902   -4.796649    0.614828
     70          1           0       -2.504741   -3.298275   -1.344239
     71          1           0       -3.733086   -4.548467   -1.835146
     72          1           0       -1.417572   -5.487680   -2.546184
     73          1           0       -0.774587   -6.616319   -1.371602
     74          7           0       -2.845289   -3.750068    2.400545
     75          6           0       -2.095353   -3.039277    3.419060
     76          6           0       -0.604782   -2.926735    3.166804
     77          8           0        0.100229   -2.058625    3.669342
     78          1           0       -3.375083   -4.605750    2.538120
     79          1           0       -2.306897   -3.497843    4.388991
     80          1           0       -2.576436   -2.069673    3.530983
     81          7           0       -0.063475   -3.777160    2.285745
     82          6           0        1.345101   -3.814179    1.959949
     83          6           0        1.750834   -2.496433    1.325578
     84          8           0        1.019367   -2.061792    0.437241
     85          6           0        1.574778   -4.936968    0.945457
     86          6           0        2.943860   -5.154856    0.363874
     87          6           0        3.395819   -4.554162   -0.819130
     88          6           0        3.898279   -5.755000    1.204239
     89          6           0        4.761882   -4.646320   -1.137687
     90          6           0        5.260478   -5.838442    0.929376
     91          6           0        5.684557   -5.271873   -0.290483
     92          8           0        6.994573   -5.475109   -0.623880
     93          1           0       -0.651146   -4.418723    1.780434
     94          1           0        1.943888   -3.968650    2.849326
     95          1           0        0.953635   -4.791282    0.051278
     96          1           0        1.282015   -5.849906    1.458716
     97          1           0        2.608855   -4.183497   -1.457013
     98          1           0        3.632386   -6.133305    2.176240
     99          1           0        5.079353   -4.401569   -2.147147
    100          1           0        5.971249   -6.312378    1.590276
    101          1           0        7.375284   -5.908734    0.146269
    102          7           0        2.922982   -2.023943    1.751515
    103          6           0        3.761101   -0.979617    1.187033
    104          6           0        4.190277   -1.107565   -0.264599
    105          8           0        3.433213   -1.574657   -1.112644
    106          6           0        3.186266    0.387246    1.550146
    107          6           0        2.486063    1.119962    0.408287
    108          6           0        4.375602    1.210983    2.044857
    109          6           0        1.407208    2.098650    0.850038
    110          1           0        3.419296   -2.611929    2.411625
    111          1           0        4.681971   -1.107080    1.756202
    112          1           0        2.506746    0.234366    2.390254
    113          1           0        1.935359    0.399873   -0.187948
    114          1           0        3.166205    1.607434   -0.297106
    115          1           0        5.101272    0.724849    2.700353
    116          1           0        5.108127    1.460064    1.281793
    117          1           0        4.034416    2.154585    2.490175
    118          1           0        0.830554    2.511766    0.030035
    119          1           0        0.763767    1.598147    1.575007
    120          1           0        1.861078    2.946984    1.370932
    121          7           0        5.386476   -0.596369   -0.562903
    122          6           0        5.994792   -0.551847   -1.872892
    123          6           0        7.494118   -0.746867   -1.998938
    124          8           0        8.018236   -0.776851   -3.113838
    125          6           0        5.549146    0.761420   -2.512992
    126          8           0        5.910335    1.868964   -1.722431
    127          1           0        5.825881   -0.192869    0.256006
    128          1           0        5.551419   -1.364322   -2.445784
    129          1           0        4.458493    0.731969   -2.566941
    130          1           0        5.926472    0.870006   -3.531193
    131          1           0        5.644490    2.610322   -2.278322
    132          7           0        8.202453   -0.917766   -0.881461
    133          6           0        9.618132   -1.172471   -0.696315
    134          6           0       10.541798   -0.170737   -1.372901
    135          8           0       11.576884   -0.659369   -1.820154
    136          6           0        9.773472   -2.620606   -1.144393
    137          1           0        7.769467   -0.671708   -0.003009
    138          1           0        9.816006   -0.957415    0.363118
    139          1           0        8.916427   -3.193116   -0.771827
    140          1           0        9.910144   -2.550097   -2.222052
    141          1           0       10.683239   -3.069561   -0.768407
    142          7           0       10.432543    1.151857   -1.513649
    143          6           0        9.324426    2.051030   -1.269183
    144          6           0        9.691711    3.274776   -0.428024
    145          8           0       10.827451    3.733357   -0.515197
    146          6           0        8.860680    2.506494   -2.650665
    147          1           0       11.271896    1.607232   -1.818640
    148          1           0        8.548255    1.586967   -0.659343
    149          1           0        9.636840    2.916395   -3.286319
    150          1           0        8.543415    1.634883   -3.223496
    151          1           0        8.057204    3.233369   -2.509675
    152          7           0        8.820571    3.910449    0.361428
    153          6           0        7.491387    3.587633    0.830107
    154          6           0        7.542372    3.582933    2.350659
    155          8           0        7.097806    2.608478    2.954313
    156          6           0        6.510561    4.632340    0.319844
    157          6           0        5.113245    4.480584    0.917738
    158          6           0        4.113921    5.480709    0.346071
    159          8           0        3.747439    5.291530   -0.829557
    160          8           0        3.739340    6.456494    1.033772
    161          1           0        9.170417    4.800552    0.686275
    162          1           0        7.112007    2.656431    0.405568
    163          1           0        6.471969    4.608108   -0.768147
    164          1           0        6.939647    5.635388    0.423186
    165          1           0        5.200168    4.655204    1.984580
    166          1           0        4.770267    3.471643    0.695020
    167          7           0        8.140036    4.526753    3.089512
    168          6           0        8.363488    4.428095    4.520468
    169          1           0        9.230418    5.029621    4.794347
    170          1           0        7.485482    4.794028    5.052318
    171          1           0        8.543616    3.387651    4.789717
    172          1           0        8.345575    5.366983    2.573890
    173         20           0       -3.764314    0.572556    0.435339
    174          8           0       -1.442635   -0.059818   -0.803253
    175          1           0       -1.002276    0.641996   -1.284232
    176          1           0       -0.746500   -0.651619   -0.545829
 ---------------------------------------------------------------------

 SCF Done:  E(RB3LYP) =  -5333.40468904     A.U. after   66 cycles

 The electronic state is 1-A.
 Alpha  occ. eigenvalues -- -145.44984 -19.18018 -19.16825 -19.13578 -19.13216
 Alpha  occ. eigenvalues --  -19.11706 -19.11665 -19.11512 -19.11430 -19.11402
 Alpha  occ. eigenvalues --  -19.10230 -19.10115 -19.10009 -19.09468 -19.09415
 Alpha  occ. eigenvalues --  -19.09384 -19.09293 -19.08480 -19.07769 -19.07263
 Alpha  occ. eigenvalues --  -19.07141 -19.06006 -18.97115 -18.96992 -15.50839
 Alpha  occ. eigenvalues --  -14.58702 -14.38528 -14.37867 -14.37540 -14.36828
 Alpha  occ. eigenvalues --  -14.36337 -14.35807 -14.35679 -14.35219 -14.34501
 Alpha  occ. eigenvalues --  -14.34264 -14.33928 -14.33398 -14.32985 -14.32775
 Alpha  occ. eigenvalues --  -12.64438 -12.64397 -12.64375 -10.35627 -10.31019
 Alpha  occ. eigenvalues --  -10.30572 -10.30546 -10.30543 -10.29984 -10.29378
 Alpha  occ. eigenvalues --  -10.28639 -10.28608 -10.28475 -10.28298 -10.28253
 Alpha  occ. eigenvalues --  -10.27917 -10.26959 -10.26524 -10.26397 -10.26322
 Alpha  occ. eigenvalues --  -10.26225 -10.26066 -10.25405 -10.24778 -10.24568
 Alpha  occ. eigenvalues --  -10.24181 -10.23679 -10.23664 -10.23348 -10.23339
 Alpha  occ. eigenvalues --  -10.23291 -10.23226 -10.23223 -10.22867 -10.22097
 Alpha  occ. eigenvalues --  -10.22047 -10.21935 -10.21591 -10.21428 -10.21387
 Alpha  occ. eigenvalues --  -10.21331 -10.19662 -10.19479 -10.19433 -10.19399
 Alpha  occ. eigenvalues --  -10.19131 -10.19088 -10.18946 -10.18320 -10.16754
 Alpha  occ. eigenvalues --  -10.16630 -10.16313 -10.16294 -10.16228 -10.15573
 Alpha  occ. eigenvalues --  -10.15285 -10.11496  -1.87705  -1.15146  -1.14943
 Alpha  occ. eigenvalues --   -1.14857  -1.14172  -1.06960  -1.05907  -1.05694
 Alpha  occ. eigenvalues --   -1.05451  -1.05317  -1.04601  -1.04150  -1.04012
 Alpha  occ. eigenvalues --   -1.03315  -1.02963  -1.02531  -1.02270  -1.01696
 Alpha  occ. eigenvalues --   -1.01644  -1.01364  -1.01234  -1.00977  -1.00700
 Alpha  occ. eigenvalues --   -1.00012  -0.95710  -0.95017  -0.94650  -0.94569
 Alpha  occ. eigenvalues --   -0.94550  -0.93375  -0.92849  -0.92778  -0.92083
 Alpha  occ. eigenvalues --   -0.91543  -0.91525  -0.91422  -0.91294  -0.90998
 Alpha  occ. eigenvalues --   -0.90227  -0.89466  -0.89389  -0.89337  -0.85259
 Alpha  occ. eigenvalues --   -0.83840  -0.81694  -0.81379  -0.81356  -0.79781
 Alpha  occ. eigenvalues --   -0.79066  -0.78757  -0.77931  -0.76941  -0.76485
 Alpha  occ. eigenvalues --   -0.75699  -0.75387  -0.75237  -0.74643  -0.74515
 Alpha  occ. eigenvalues --   -0.73657  -0.73628  -0.72527  -0.72424  -0.71870
 Alpha  occ. eigenvalues --   -0.70424  -0.70283  -0.69240  -0.68470  -0.67766
 Alpha  occ. eigenvalues --   -0.66549  -0.66118  -0.65992  -0.65326  -0.65090
 Alpha  occ. eigenvalues --   -0.64145  -0.63754  -0.63739  -0.62803  -0.62387
 Alpha  occ. eigenvalues --   -0.62157  -0.61574  -0.61382  -0.60996  -0.60013
 Alpha  occ. eigenvalues --   -0.59845  -0.59772  -0.59065  -0.58774  -0.58468
 Alpha  occ. eigenvalues --   -0.58222  -0.58021  -0.57961  -0.57814  -0.57636
 Alpha  occ. eigenvalues --   -0.57211  -0.57189  -0.56932  -0.56346  -0.56315
 Alpha  occ. eigenvalues --   -0.55769  -0.55220  -0.54918  -0.54909  -0.54550
 Alpha  occ. eigenvalues --   -0.53813  -0.53668  -0.53587  -0.52816  -0.52506
 Alpha  occ. eigenvalues --   -0.52112  -0.51978  -0.51939  -0.51225  -0.51142
 Alpha  occ. eigenvalues --   -0.50999  -0.50599  -0.50447  -0.50113  -0.49817
 Alpha  occ. eigenvalues --   -0.49747  -0.49388  -0.48835  -0.48794  -0.48261
 Alpha  occ. eigenvalues --   -0.48084  -0.47727  -0.47290  -0.47219  -0.47110
 Alpha  occ. eigenvalues --   -0.47012  -0.46740  -0.46621  -0.46540  -0.46398
 Alpha  occ. eigenvalues --   -0.45976  -0.45705  -0.45520  -0.45410  -0.45276
 Alpha  occ. eigenvalues --   -0.45249  -0.45190  -0.45104  -0.44880  -0.44649
 Alpha  occ. eigenvalues --   -0.44553  -0.44325  -0.44247  -0.44170  -0.44013
 Alpha  occ. eigenvalues --   -0.43748  -0.43455  -0.43337  -0.43180  -0.42978
 Alpha  occ. eigenvalues --   -0.42921  -0.42882  -0.42772  -0.42743  -0.42387
 Alpha  occ. eigenvalues --   -0.42296  -0.42270  -0.42032  -0.41992  -0.41651
 Alpha  occ. eigenvalues --   -0.41624  -0.41443  -0.41292  -0.41137  -0.41131
 Alpha  occ. eigenvalues --   -0.40965  -0.40711  -0.40353  -0.40226  -0.40126
 Alpha  occ. eigenvalues --   -0.39969  -0.39882  -0.39807  -0.39726  -0.39495
 Alpha  occ. eigenvalues --   -0.39448  -0.39368  -0.39247  -0.39018  -0.38889
 Alpha  occ. eigenvalues --   -0.38584  -0.38472  -0.38376  -0.38327  -0.38037
 Alpha  occ. eigenvalues --   -0.37989  -0.37773  -0.37572  -0.37300  -0.37163
 Alpha  occ. eigenvalues --   -0.37043  -0.36972  -0.36476  -0.36173  -0.35966
 Alpha  occ. eigenvalues --   -0.35933  -0.35796  -0.35624  -0.35471  -0.35398
 Alpha  occ. eigenvalues --   -0.35285  -0.35079  -0.35070  -0.34703  -0.34530
 Alpha  occ. eigenvalues --   -0.34289  -0.34071  -0.33832  -0.33728  -0.33605
 Alpha  occ. eigenvalues --   -0.33119  -0.32838  -0.32564  -0.31673  -0.30865
 Alpha  occ. eigenvalues --   -0.30854  -0.30391  -0.30246  -0.30039  -0.29286
 Alpha  occ. eigenvalues --   -0.29185  -0.29022  -0.28727  -0.28309  -0.28173
 Alpha  occ. eigenvalues --   -0.28106  -0.27783  -0.27639  -0.27524  -0.27402
 Alpha  occ. eigenvalues --   -0.27325  -0.27184  -0.26950  -0.26909  -0.26707
 Alpha  occ. eigenvalues --   -0.26491  -0.26374  -0.26246  -0.25832  -0.25677
 Alpha  occ. eigenvalues --   -0.25337  -0.25209  -0.25071  -0.24993  -0.24629
 Alpha  occ. eigenvalues --   -0.24522  -0.24337  -0.23596  -0.23414  -0.23196
 Alpha  occ. eigenvalues --   -0.22904  -0.22470  -0.22310  -0.21903  -0.21610
 Alpha  occ. eigenvalues --   -0.14584  -0.14408  -0.12142
 Alpha virt. eigenvalues --   -0.10908  -0.10179  -0.05066  -0.04619  -0.02993
 Alpha virt. eigenvalues --   -0.02049  -0.01565  -0.01209  -0.00785  -0.00496
 Alpha virt. eigenvalues --    0.00252   0.00433   0.00518   0.00778   0.01115

 Mulliken charges:
               1
     1  C    0.077451
     2  C    0.022764
     3  O   -0.325601
     4  H    0.045707
     5  H    0.044576
     6  H    0.011988
     7  N   -0.113497
     8  C    0.109067
     9  C    0.089990
    10  O   -0.263594
    11  C    0.106726
    12  C    0.112289
    13  O   -0.477586
    14  O   -0.418555
    15  H    0.123427
    16  H   -0.030559
    17  H    0.041555
    18  H    0.015928
    19  N   -0.096281
    20  C    0.111532
    21  C    0.051667
    22  O   -0.256351
    23  C    0.049862
    24  C   -0.032835
    25  C   -0.055239
    26  C    0.057063
    27  N    0.135246
    28  H    0.104767
    29  H    0.016186
    30  H    0.012804
    31  H    0.025087
    32  H    0.045628
    33  H   -0.012161
    34  H    0.016460
    35  H    0.039822
    36  H    0.090232
    37  H    0.046029
    38  H    0.155149
    39  H    0.158210
    40  H    0.156166
    41  N   -0.166801
    42  C    0.051273
    43  C    0.060575
    44  O   -0.282094
    45  C    0.212989
    46  C    0.071251
    47  O   -0.394586
    48  O   -0.458306
    49  H    0.161362
    50  H    0.026769
    51  H   -0.008824
    52  H    0.024035
    53  N   -0.204708
    54  C    0.222090
    55  C    0.017123
    56  O   -0.286114
    57  H    0.146095
    58  H    0.046026
    59  H    0.023265
    60  N   -0.158946
    61  C    0.110610
    62  C    0.152691
    63  O   -0.360534
    64  C    0.091458
    65  C    0.008207
    66  N   -0.030534
    67  O   -0.310536
    68  H    0.163538
    69  H   -0.005342
    70  H    0.054421
    71  H    0.046462
    72  H    0.121240
    73  H    0.133594
    74  N   -0.131310
    75  C    0.211070
    76  C    0.045699
    77  O   -0.287133
    78  H    0.154262
    79  H    0.029998
    80  H    0.026140
    81  N   -0.128363
    82  C    0.135803
    83  C    0.114506
    84  O   -0.298238
    85  C    0.118022
    86  C   -0.075200
    87  C    0.054088
    88  C   -0.026169
    89  C   -0.025093
    90  C   -0.051593
    91  C    0.149817
    92  O   -0.178522
    93  H    0.138149
    94  H   -0.029637
    95  H    0.001646
    96  H    0.005876
    97  H   -0.016299
    98  H   -0.038093
    99  H   -0.007610
   100  H   -0.043894
   101  H    0.171787
   102  N   -0.102276
   103  C    0.120277
   104  C    0.073841
   105  O   -0.271394
   106  C   -0.075201
   107  C    0.039211
   108  C    0.030448
   109  C    0.035531
   110  H    0.126983
   111  H   -0.030543
   112  H    0.008000
   113  H   -0.016981
   114  H    0.024850
   115  H   -0.006902
   116  H    0.007440
   117  H    0.028818
   118  H   -0.024332
   119  H   -0.017437
   120  H    0.034694
   121  N   -0.137717
   122  C    0.108853
   123  C    0.098206
   124  O   -0.271727
   125  C    0.216004
   126  O   -0.306662
   127  H    0.123874
   128  H    0.039430
   129  H    0.001259
   130  H    0.015348
   131  H    0.191903
   132  N   -0.134577
   133  C    0.004460
   134  C    0.052408
   135  O   -0.284658
   136  C    0.100901
   137  H    0.105959
   138  H    0.021055
   139  H    0.002557
   140  H    0.047620
   141  H    0.005628
   142  N   -0.069052
   143  C    0.062264
   144  C    0.037672
   145  O   -0.286734
   146  C    0.078894
   147  H    0.126942
   148  H   -0.031294
   149  H    0.003974
   150  H    0.034428
   151  H   -0.003890
   152  N   -0.083837
   153  C    0.096093
   154  C    0.078944
   155  O   -0.298515
   156  C    0.013326
   157  C    0.085547
   158  C    0.020800
   159  O   -0.397688
   160  O   -0.370711
   161  H    0.108142
   162  H    0.026146
   163  H   -0.019308
   164  H   -0.036875
   165  H   -0.022910
   166  H   -0.022947
   167  N   -0.158509
   168  C    0.145811
   169  H    0.014886
   170  H    0.029781
   171  H    0.036894
   172  H    0.106977
   173  Ca   1.342643
   174  O   -0.299765
   175  H    0.179817
   176  H    0.198320
 Sum of Mulliken charges =  -0.00000

 Dipole moment (field-independent basis, Debye):
    X=            -21.1538    Y=             10.7967    Z=              5.2353  Tot=             24.3200
 Quadrupole moment (field-independent basis, Debye-Ang):
   XX=           -746.8946   YY=           -458.2870   ZZ=           -552.5444
   XY=           -208.2159   XZ=             16.1055   YZ=            -42.1457

 ESP charges:
               1
     1  C   -0.446371
     2  C    0.756172
     3  O   -0.622270
     4  H    0.132836
     5  H    0.142480
     6  H    0.103333
     7  N   -0.648150
     8  C    0.320251
     9  C    0.486157
    10  O   -0.522448
    11  C   -0.429884
    12  C    0.878273
    13  O   -0.855770
    14  O   -0.758177
    15  H    0.337650
    16  H    0.018252
    17  H    0.131679
    18  H    0.120519
    19  N   -0.308125
    20  C    0.116429
    21  C    0.444005
    22  O   -0.524298
    23  C   -0.361434
    24  C    0.454848
    25  C   -0.366934
    26  C    0.221749
    27  N   -0.344165
    28  H    0.195284
    29  H    0.083003
    30  H    0.081478
    31  H    0.111391
    32  H   -0.006132
    33  H   -0.013919
    34  H    0.076010
    35  H    0.088192
    36  H    0.046931
    37  H    0.007577
    38  H    0.286169
    39  H    0.300929
    40  H    0.301289
    41  N   -0.337801
    42  C    0.359840
    43  C    0.254153
    44  O   -0.525601
    45  C   -0.553130
    46  C    1.041571
    47  O   -0.758065
    48  O   -0.888215
    49  H    0.062561
    50  H    0.052064
    51  H    0.139763
    52  H    0.138554
    53  N    0.008245
    54  C   -0.408943
    55  C    0.704040
    56  O   -0.599602
    57  H    0.153851
    58  H    0.176876
    59  H    0.132702
    60  N   -0.611978
    61  C    0.423013
    62  C    0.393405
    63  O   -0.551391
    64  C   -0.461670
    65  C    0.761735
    66  N   -0.846785
    67  O   -0.610743
    68  H    0.357568
    69  H    0.004283
    70  H    0.154969
    71  H    0.153079
    72  H    0.369674
    73  H    0.402070
    74  N   -0.203292
    75  C   -0.210236
    76  C    0.555112
    77  O   -0.561873
    78  H    0.248504
    79  H    0.129349
    80  H    0.115802
    81  N   -0.453566
    82  C    0.260126
    83  C    0.671676
    84  O   -0.588729
    85  C   -0.388715
    86  C    0.128246
    87  C   -0.301298
    88  C   -0.151434
    89  C   -0.053068
    90  C   -0.300092
    91  C    0.273359
    92  O   -0.519115
    93  H    0.257708
    94  H    0.009222
    95  H    0.131908
    96  H    0.113862
    97  H    0.184886
    98  H    0.125682
    99  H    0.121860
   100  H    0.145875
   101  H    0.405842
   102  N   -0.711542
   103  C    0.252563
   104  C    0.639675
   105  O   -0.492850
   106  C    0.156905
   107  C    0.323140
   108  C   -0.522093
   109  C   -0.409500
   110  H    0.326754
   111  H    0.019013
   112  H    0.053761
   113  H   -0.112351
   114  H    0.006290
   115  H    0.103002
   116  H    0.080307
   117  H    0.149567
   118  H    0.070864
   119  H    0.041137
   120  H    0.115619
   121  N   -0.819684
   122  C    0.020838
   123  C    0.528432
   124  O   -0.526447
   125  C    0.038145
   126  O   -0.531586
   127  H    0.361318
   128  H    0.137107
   129  H    0.067461
   130  H    0.042325
   131  H    0.416026
   132  N   -0.275064
   133  C    0.133222
   134  C    0.580073
   135  O   -0.552258
   136  C   -0.324340
   137  H    0.222704
   138  H    0.039937
   139  H    0.069199
   140  H    0.134424
   141  H    0.084839
   142  N   -0.658228
   143  C    0.492880
   144  C    0.383331
   145  O   -0.553078
   146  C   -0.175698
   147  H    0.336929
   148  H   -0.059823
   149  H    0.056958
   150  H    0.081904
   151  H   -0.001746
   152  N   -0.323940
   153  C   -0.548268
   154  C    0.716807
   155  O   -0.546461
   156  C    0.172024
   157  C   -0.474996
   158  C    0.781936
   159  O   -0.711334
   160  O   -0.691688
   161  H    0.269056
   162  H    0.291470
   163  H    0.036908
   164  H    0.023637
   165  H    0.098853
   166  H    0.092727
   167  N   -0.383322
   168  C   -0.159072
   169  H    0.091580
   170  H    0.092403
   171  H    0.102111
   172  H    0.289045
   173  Ca   1.652236
   174  O   -0.942194
   175  H    0.449294
   176  H    0.508328
 Sum of ESP charges =  -0.00000

 Normal termination of Gaussian 16 at Wed Sep 18 00:08:01 2019.
