 Gaussian 16, Revision A.03,
 Gaussian 16:  ES64L-G16RevA.03 25-Dec-2016

 ----------------------------------------------------------------------
 #b3lyp/svp scf=(tight,noincore) Test #IOP(5/87=12) Density=Current Pop
 =(MK,readradii) iop(6/33=2) iop(6/42=6)
 ----------------------------------------------------------------------

 ----------------
 Ng-295_loop3_9.0
 ----------------
 Symbolic Z-matrix:
 Charge =  0 Multiplicity = 1

                         Standard orientation:
 ---------------------------------------------------------------------
 Center     Atomic      Atomic             Coordinates (Angstroms)
 Number     Number       Type             X           Y           Z
 ---------------------------------------------------------------------
      1          6           0        7.504958   -4.881219    4.968652
      2          6           0        6.520020   -4.932262    3.814230
      3          8           0        6.025362   -5.951784    3.324241
      4          1           0        7.148777   -5.518358    5.778458
      5          1           0        8.479405   -5.234010    4.630749
      6          1           0        7.593130   -3.855231    5.327105
      7          7           0        6.270628   -3.741326    3.259274
      8          6           0        5.343339   -3.527829    2.164808
      9          6           0        5.836130   -4.144389    0.865458
     10          8           0        7.038247   -4.191265    0.630260
     11          6           0        5.042595   -2.059997    1.901899
     12          6           0        3.850667   -1.958087    0.958808
     13          8           0        2.868553   -2.695298    1.179655
     14          8           0        3.900604   -1.127096    0.026305
     15          1           0        6.507430   -2.933442    3.826854
     16          1           0        4.429985   -4.026534    2.491425
     17          1           0        5.978364   -1.559539    1.621048
     18          1           0        4.687085   -1.625869    2.835090
     19          7           0        4.899704   -4.581712    0.021092
     20          6           0        5.051953   -5.077820   -1.345508
     21          6           0        5.878702   -4.120112   -2.191370
     22          8           0        6.872525   -4.496745   -2.814478
     23          6           0        3.696770   -5.506187   -1.886786
     24          6           0        2.826468   -4.335959   -2.348781
     25          6           0        1.575865   -4.778466   -3.113359
     26          6           0        0.641265   -3.635909   -3.488175
     27          7           0        1.325242   -2.717390   -4.402451
     28          1           0        3.979774   -4.634974    0.423452
     29          1           0        5.770479   -5.866490   -1.166845
     30          1           0        3.105335   -6.099259   -1.189814
     31          1           0        3.941001   -6.189925   -2.699099
     32          1           0        3.385221   -3.668355   -3.012935
     33          1           0        2.478197   -3.778947   -1.489395
     34          1           0        1.136368   -5.627994   -2.596789
     35          1           0        1.936463   -5.308142   -3.995125
     36          1           0        0.393041   -3.115875   -2.551826
     37          1           0       -0.301911   -4.044460   -3.840884
     38          1           0        0.668532   -2.228079   -4.997603
     39          1           0        1.939506   -2.063243   -3.926457
     40          1           0        1.962723   -3.211718   -5.012580
     41          7           0        5.519874   -2.836944   -2.202435
     42          6           0        6.176435   -1.791861   -2.968287
     43          6           0        7.119014   -0.961160   -2.109228
     44          8           0        7.675523    0.038858   -2.524996
     45          6           0        5.161762   -0.926838   -3.712783
     46          6           0        4.014165   -0.426065   -2.857418
     47          8           0        3.946298    0.750245   -2.436600
     48          8           0        2.985937   -1.148397   -2.804654
     49          1           0        4.746789   -2.467496   -1.663131
     50          1           0        6.776527   -2.300034   -3.736563
     51          1           0        4.777848   -1.473838   -4.574468
     52          1           0        5.711032   -0.049705   -4.054746
     53          7           0        7.326959   -1.464747   -0.889491
     54          6           0        8.010762   -0.719177    0.152017
     55          6           0        7.499747    0.662576    0.539474
     56          8           0        8.300566    1.442393    1.043828
     57          1           0        7.022381   -2.394872   -0.674087
     58          1           0        9.063117   -0.571970   -0.085002
     59          1           0        7.846884   -1.410445    0.964539
     60          7           0        6.245932    1.053556    0.295174
     61          6           0        5.766091    2.407861    0.465203
     62          6           0        4.405530    2.419221    1.159568
     63          8           0        3.441682    1.828134    0.679763
     64          6           0        5.879601    3.050281   -0.917299
     65          6           0        5.491888    4.517863   -0.973722
     66          7           0        4.904067    4.974687   -2.075529
     67          8           0        5.813253    5.335025   -0.111417
     68          1           0        5.617381    0.394508   -0.132118
     69          1           0        6.436961    2.942148    1.138755
     70          1           0        5.268566    2.531117   -1.660068
     71          1           0        6.939446    3.010869   -1.177058
     72          1           0        4.615817    4.399689   -2.860634
     73          1           0        4.754776    5.963605   -2.245688
     74          7           0        4.293792    3.125149    2.281967
     75          6           0        3.203796    2.922467    3.216916
     76          6           0        1.793296    3.272477    2.760315
     77          8           0        0.840082    3.038995    3.496160
     78          1           0        5.129478    3.581018    2.624330
     79          1           0        3.396987    3.511126    4.104867
     80          1           0        3.235936    1.844528    3.423829
     81          7           0        1.579046    3.818244    1.557345
     82          6           0        0.251160    4.094965    1.047794
     83          6           0       -0.459443    2.807203    0.656370
     84          8           0        0.020375    1.815747    0.116286
     85          6           0        0.370829    5.142003   -0.056059
     86          6           0        0.768788    6.564067    0.273586
     87          6           0        2.130102    6.884715    0.306868
     88          6           0       -0.142767    7.529475    0.704925
     89          6           0        2.626115    8.094425    0.802016
     90          6           0        0.301129    8.789076    1.138472
     91          6           0        1.682240    9.044200    1.236675
     92          8           0        2.142345   10.275502    1.604370
     93          1           0        2.349010    4.000526    0.935068
     94          1           0       -0.316652    4.608007    1.821924
     95          1           0       -0.650092    5.218505   -0.417677
     96          1           0        0.916297    4.835782   -0.947346
     97          1           0        2.845867    6.161038   -0.048762
     98          1           0       -1.205338    7.364316    0.637357
     99          1           0        3.664782    8.409440    0.740078
    100          1           0       -0.441513    9.498451    1.466297
    101          1           0        1.386061   10.778118    1.940243
    102          7           0       -1.727271    2.719216    1.092800
    103          6           0       -2.690242    1.710527    0.733446
    104          6           0       -3.140373    1.718474   -0.720143
    105          8           0       -2.344284    1.979622   -1.620445
    106          6           0       -2.375261    0.341832    1.330823
    107          6           0       -3.410591   -0.763136    1.108926
    108          6           0       -2.148251    0.338381    2.832341
    109          6           0       -2.848259   -2.106782    1.551417
    110          1           0       -2.078736    3.421097    1.729694
    111          1           0       -3.572534    2.027268    1.286741
    112          1           0       -1.443637    0.051911    0.841925
    113          1           0       -3.705845   -0.929056    0.073409
    114          1           0       -4.330204   -0.531996    1.648820
    115          1           0       -1.443631   -0.440829    3.131075
    116          1           0       -1.659808    1.316611    2.946754
    117          1           0       -3.066672    0.238036    3.419310
    118          1           0       -3.697922   -2.761764    1.400518
    119          1           0       -2.028212   -2.358816    0.877546
    120          1           0       -2.406284   -2.227347    2.545712
    121          7           0       -4.449086    1.570394   -0.964975
    122          6           0       -4.959907    1.419684   -2.310652
    123          6           0       -6.431596    1.762669   -2.492287
    124          8           0       -6.925168    1.886017   -3.614371
    125          6           0       -4.818383   -0.052823   -2.686278
    126          8           0       -5.553957   -0.968558   -1.899792
    127          1           0       -5.035586    1.317330   -0.185118
    128          1           0       -4.302548    2.025637   -2.937709
    129          1           0       -3.817811   -0.412789   -2.472083
    130          1           0       -5.073453   -0.188324   -3.729532
    131          1           0       -5.225530   -1.833184   -2.171743
    132          7           0       -7.191147    1.850447   -1.400372
    133          6           0       -8.592904    2.194213   -1.319121
    134          6           0       -9.590580    1.436291   -2.191127
    135          8           0      -10.313241    1.995241   -3.010112
    136          6           0       -8.726716    3.720492   -1.338272
    137          1           0       -6.742848    1.593942   -0.532885
    138          1           0       -9.017356    1.961923   -0.339743
    139          1           0       -8.560174    4.104471   -2.336983
    140          1           0       -9.763528    3.840605   -1.016410
    141          1           0       -8.093727    4.205520   -0.602764
    142          7           0       -9.846878    0.137342   -2.037682
    143          6           0       -9.230810   -0.885653   -1.218634
    144          6           0      -10.118040   -1.656625   -0.262900
    145          8           0      -11.321342   -1.861880   -0.443548
    146          6           0       -8.560227   -1.825958   -2.221202
    147          1           0      -10.581395   -0.147859   -2.669937
    148          1           0       -8.382349   -0.459845   -0.682536
    149          1           0       -8.242741   -2.681055   -1.620692
    150          1           0       -9.305412   -2.153760   -2.947112
    151          1           0       -7.785769   -1.235032   -2.712752
    152          7           0       -9.648988   -2.374726    0.771615
    153          6           0       -8.303478   -2.374269    1.312172
    154          6           0       -8.172681   -1.554434    2.591103
    155          8           0       -7.173598   -0.898846    2.874190
    156          6           0       -7.970453   -3.837232    1.580935
    157          6           0       -6.509089   -4.020936    1.960365
    158          6           0       -6.135663   -5.493418    2.065490
    159          8           0       -5.684750   -5.962976    3.129958
    160          8           0       -6.171139   -6.146560    0.993507
    161          1           0      -10.342656   -2.879688    1.309888
    162          1           0       -7.598465   -2.029040    0.553770
    163          1           0       -8.143218   -4.319182    0.611153
    164          1           0       -8.577841   -4.232893    2.389596
    165          1           0       -6.405387   -3.572037    2.945573
    166          1           0       -5.797133   -3.534415    1.302402
    167          7           0       -9.170521   -1.726360    3.453515
    168          6           0       -9.320738   -1.044113    4.722402
    169          1           0       -9.337710   -1.777531    5.528608
    170          1           0       -8.483340   -0.361833    4.870396
    171          1           0      -10.253469   -0.480347    4.724790
    172          1           0       -9.812089   -2.501979    3.314567
    173         20           0        1.885681    0.195249   -0.741803
    174          8           0        0.729694   -2.155066   -0.321554
    175          1           0        1.419539   -2.495975    0.240758
    176          1           0        0.058248   -2.828339   -0.329612
 ---------------------------------------------------------------------

 SCF Done:  E(RB3LYP) =  -5333.47459351     A.U. after   32 cycles

 The electronic state is 1-A.
 Alpha  occ. eigenvalues -- -145.47324 -19.20960 -19.19229 -19.18380 -19.17564
 Alpha  occ. eigenvalues --  -19.17050 -19.15410 -19.14248 -19.14052 -19.13979
 Alpha  occ. eigenvalues --  -19.13818 -19.13153 -19.11886 -19.11825 -19.11624
 Alpha  occ. eigenvalues --  -19.11520 -19.11365 -19.10462 -19.09593 -19.08494
 Alpha  occ. eigenvalues --  -19.07862 -19.07365 -18.94355 -18.94151 -15.53111
 Alpha  occ. eigenvalues --  -14.54273 -14.42302 -14.41761 -14.40335 -14.40062
 Alpha  occ. eigenvalues --  -14.38473 -14.38227 -14.37911 -14.37766 -14.37152
 Alpha  occ. eigenvalues --  -14.36430 -14.36386 -14.34556 -14.34243 -14.33631
 Alpha  occ. eigenvalues --  -12.66733 -12.66693 -12.66647 -10.36062 -10.35147
 Alpha  occ. eigenvalues --  -10.33504 -10.33307 -10.33187 -10.33103 -10.32574
 Alpha  occ. eigenvalues --  -10.31054 -10.31047 -10.30907 -10.30258 -10.29829
 Alpha  occ. eigenvalues --  -10.29580 -10.29341 -10.28851 -10.28736 -10.28288
 Alpha  occ. eigenvalues --  -10.27872 -10.27867 -10.27281 -10.27118 -10.27056
 Alpha  occ. eigenvalues --  -10.26890 -10.26823 -10.26761 -10.26352 -10.25953
 Alpha  occ. eigenvalues --  -10.25185 -10.24998 -10.24475 -10.24323 -10.24259
 Alpha  occ. eigenvalues --  -10.24174 -10.23645 -10.22936 -10.22878 -10.22804
 Alpha  occ. eigenvalues --  -10.22712 -10.22490 -10.22393 -10.22020 -10.21913
 Alpha  occ. eigenvalues --  -10.21795 -10.21454 -10.20945 -10.20090 -10.19773
 Alpha  occ. eigenvalues --  -10.19516 -10.18725 -10.18425 -10.18060 -10.14922
 Alpha  occ. eigenvalues --  -10.14294 -10.10542  -1.89785  -1.17451  -1.17105
 Alpha  occ. eigenvalues --   -1.16874  -1.10846  -1.10426  -1.10392  -1.09358
 Alpha  occ. eigenvalues --   -1.08455  -1.07842  -1.07509  -1.07253  -1.07187
 Alpha  occ. eigenvalues --   -1.05692  -1.05613  -1.04882  -1.04717  -1.04550
 Alpha  occ. eigenvalues --   -1.04384  -1.03820  -1.02322  -1.02107  -1.01546
 Alpha  occ. eigenvalues --   -1.00900  -0.98904  -0.98741  -0.98489  -0.98467
 Alpha  occ. eigenvalues --   -0.97202  -0.96887  -0.95676  -0.94981  -0.94463
 Alpha  occ. eigenvalues --   -0.94222  -0.92866  -0.92786  -0.92393  -0.91458
 Alpha  occ. eigenvalues --   -0.90904  -0.89446  -0.88769  -0.88567  -0.88064
 Alpha  occ. eigenvalues --   -0.85606  -0.83542  -0.83482  -0.81715  -0.81345
 Alpha  occ. eigenvalues --   -0.81137  -0.81039  -0.79006  -0.78921  -0.78547
 Alpha  occ. eigenvalues --   -0.77813  -0.77737  -0.77108  -0.77008  -0.75687
 Alpha  occ. eigenvalues --   -0.75570  -0.75347  -0.74331  -0.72950  -0.71964
 Alpha  occ. eigenvalues --   -0.71275  -0.70653  -0.70204  -0.69555  -0.69275
 Alpha  occ. eigenvalues --   -0.68629  -0.68412  -0.67472  -0.67118  -0.66333
 Alpha  occ. eigenvalues --   -0.65752  -0.65735  -0.65556  -0.65031  -0.64953
 Alpha  occ. eigenvalues --   -0.64427  -0.63943  -0.63649  -0.63533  -0.62861
 Alpha  occ. eigenvalues --   -0.62731  -0.62386  -0.62294  -0.61806  -0.61530
 Alpha  occ. eigenvalues --   -0.60922  -0.60748  -0.60666  -0.59970  -0.59802
 Alpha  occ. eigenvalues --   -0.59288  -0.59026  -0.58632  -0.58006  -0.57836
 Alpha  occ. eigenvalues --   -0.57400  -0.56994  -0.56785  -0.56527  -0.56307
 Alpha  occ. eigenvalues --   -0.55728  -0.55632  -0.55261  -0.55150  -0.54760
 Alpha  occ. eigenvalues --   -0.54458  -0.53984  -0.53804  -0.53468  -0.53381
 Alpha  occ. eigenvalues --   -0.52926  -0.52619  -0.52420  -0.52256  -0.52183
 Alpha  occ. eigenvalues --   -0.51820  -0.51383  -0.51343  -0.51323  -0.51024
 Alpha  occ. eigenvalues --   -0.50846  -0.50334  -0.50097  -0.49848  -0.49631
 Alpha  occ. eigenvalues --   -0.49533  -0.49304  -0.49188  -0.49021  -0.48956
 Alpha  occ. eigenvalues --   -0.48854  -0.48615  -0.48262  -0.48105  -0.47889
 Alpha  occ. eigenvalues --   -0.47751  -0.47537  -0.47354  -0.47096  -0.46973
 Alpha  occ. eigenvalues --   -0.46871  -0.46744  -0.46578  -0.46339  -0.46090
 Alpha  occ. eigenvalues --   -0.46081  -0.45781  -0.45754  -0.45610  -0.45470
 Alpha  occ. eigenvalues --   -0.45234  -0.45091  -0.44891  -0.44732  -0.44479
 Alpha  occ. eigenvalues --   -0.44294  -0.44159  -0.44116  -0.43807  -0.43789
 Alpha  occ. eigenvalues --   -0.43524  -0.43448  -0.43205  -0.43040  -0.42881
 Alpha  occ. eigenvalues --   -0.42768  -0.42554  -0.42379  -0.42272  -0.42223
 Alpha  occ. eigenvalues --   -0.41861  -0.41803  -0.41563  -0.41529  -0.41109
 Alpha  occ. eigenvalues --   -0.41064  -0.41007  -0.40827  -0.40783  -0.40710
 Alpha  occ. eigenvalues --   -0.40515  -0.40427  -0.40345  -0.40312  -0.40211
 Alpha  occ. eigenvalues --   -0.40014  -0.39888  -0.39785  -0.39671  -0.39504
 Alpha  occ. eigenvalues --   -0.39458  -0.39017  -0.38950  -0.38718  -0.38393
 Alpha  occ. eigenvalues --   -0.38372  -0.38012  -0.37946  -0.37647  -0.37479
 Alpha  occ. eigenvalues --   -0.37442  -0.37350  -0.37291  -0.37140  -0.36718
 Alpha  occ. eigenvalues --   -0.36445  -0.36405  -0.35796  -0.35619  -0.35452
 Alpha  occ. eigenvalues --   -0.35222  -0.34389  -0.34181  -0.33934  -0.33575
 Alpha  occ. eigenvalues --   -0.33551  -0.33185  -0.32712  -0.32413  -0.32323
 Alpha  occ. eigenvalues --   -0.31893  -0.31138  -0.31008  -0.30926  -0.30692
 Alpha  occ. eigenvalues --   -0.30606  -0.30231  -0.29984  -0.29836  -0.29762
 Alpha  occ. eigenvalues --   -0.29603  -0.29549  -0.29361  -0.29187  -0.29065
 Alpha  occ. eigenvalues --   -0.28515  -0.28260  -0.28058  -0.27834  -0.27265
 Alpha  occ. eigenvalues --   -0.27126  -0.26920  -0.26454  -0.26448  -0.26229
 Alpha  occ. eigenvalues --   -0.25898  -0.25803  -0.25490  -0.25458  -0.25167
 Alpha  occ. eigenvalues --   -0.24734  -0.24638  -0.23913  -0.23015  -0.22078
 Alpha  occ. eigenvalues --   -0.12029  -0.11876  -0.09564
 Alpha virt. eigenvalues --   -0.08528  -0.06707  -0.06426  -0.05454  -0.05072
 Alpha virt. eigenvalues --   -0.03611  -0.03409  -0.02916  -0.02580  -0.02470
 Alpha virt. eigenvalues --   -0.02201  -0.01526  -0.01421  -0.01045  -0.00895

 Mulliken charges:
               1
     1  C    0.059375
     2  C    0.031344
     3  O   -0.286808
     4  H    0.039863
     5  H    0.058959
     6  H   -0.007581
     7  N   -0.110551
     8  C    0.063944
     9  C    0.048362
    10  O   -0.279629
    11  C    0.134616
    12  C    0.120634
    13  O   -0.380707
    14  O   -0.450594
    15  H    0.110302
    16  H    0.018601
    17  H   -0.028964
    18  H    0.019733
    19  N   -0.128061
    20  C    0.186524
    21  C    0.023480
    22  O   -0.243551
    23  C    0.070732
    24  C   -0.041466
    25  C   -0.062698
    26  C    0.116627
    27  N    0.084164
    28  H    0.129040
    29  H    0.022130
    30  H    0.023282
    31  H    0.017937
    32  H   -0.003695
    33  H   -0.012354
    34  H    0.035761
    35  H    0.007972
    36  H    0.024266
    37  H    0.064903
    38  H    0.160544
    39  H    0.150329
    40  H    0.162366
    41  N   -0.215615
    42  C    0.071003
    43  C    0.054271
    44  O   -0.250377
    45  C    0.163094
    46  C    0.113628
    47  O   -0.363383
    48  O   -0.476504
    49  H    0.164967
    50  H    0.044938
    51  H   -0.025957
    52  H    0.035319
    53  N   -0.175196
    54  C    0.235604
    55  C    0.013515
    56  O   -0.277027
    57  H    0.152861
    58  H    0.045804
    59  H    0.026811
    60  N   -0.151110
    61  C    0.136065
    62  C    0.096690
    63  O   -0.375701
    64  C    0.105542
    65  C   -0.020860
    66  N   -0.056616
    67  O   -0.282324
    68  H    0.146417
    69  H    0.006236
    70  H    0.014293
    71  H    0.067493
    72  H    0.118962
    73  H    0.130068
    74  N   -0.132652
    75  C    0.208363
    76  C    0.035247
    77  O   -0.279413
    78  H    0.153707
    79  H    0.053864
    80  H    0.050968
    81  N   -0.110637
    82  C    0.108598
    83  C    0.230084
    84  O   -0.384681
    85  C    0.101473
    86  C    0.021533
    87  C   -0.035175
    88  C   -0.027805
    89  C   -0.000988
    90  C   -0.032799
    91  C    0.155177
    92  O   -0.191088
    93  H    0.130618
    94  H    0.003349
    95  H   -0.008540
    96  H    0.004586
    97  H   -0.035277
    98  H   -0.031241
    99  H    0.000662
   100  H   -0.032623
   101  H    0.178991
   102  N   -0.132351
   103  C    0.148430
   104  C    0.080482
   105  O   -0.284030
   106  C   -0.098875
   107  C   -0.015984
   108  C    0.056670
   109  C    0.037147
   110  H    0.143040
   111  H   -0.020006
   112  H   -0.029176
   113  H   -0.028890
   114  H    0.028788
   115  H    0.024765
   116  H   -0.005347
   117  H    0.035915
   118  H    0.053408
   119  H   -0.063259
   120  H    0.032062
   121  N   -0.144867
   122  C    0.087078
   123  C    0.090571
   124  O   -0.259370
   125  C    0.232713
   126  O   -0.310800
   127  H    0.134206
   128  H    0.043849
   129  H   -0.022256
   130  H    0.020359
   131  H    0.187558
   132  N   -0.113315
   133  C    0.000268
   134  C    0.066613
   135  O   -0.260849
   136  C    0.085023
   137  H    0.111406
   138  H    0.029901
   139  H    0.046484
   140  H    0.017604
   141  H   -0.011983
   142  N   -0.090432
   143  C    0.018763
   144  C    0.087847
   145  O   -0.283734
   146  C    0.060551
   147  H    0.131690
   148  H   -0.003827
   149  H    0.023744
   150  H    0.009472
   151  H    0.026675
   152  N   -0.097018
   153  C    0.035319
   154  C    0.098868
   155  O   -0.279313
   156  C    0.031023
   157  C    0.069781
   158  C    0.011627
   159  O   -0.369089
   160  O   -0.415143
   161  H    0.117474
   162  H   -0.002700
   163  H    0.007985
   164  H   -0.018858
   165  H   -0.036754
   166  H   -0.038685
   167  N   -0.166830
   168  C    0.121629
   169  H    0.029239
   170  H    0.037339
   171  H    0.019100
   172  H    0.114460
   173  Ca   1.341289
   174  O   -0.324547
   175  H    0.175379
   176  H    0.208352
 Sum of Mulliken charges =  -0.00000

 Dipole moment (field-independent basis, Debye):
    X=             14.3012    Y=             19.7549    Z=             -9.7323  Tot=             26.2583
 Quadrupole moment (field-independent basis, Debye-Ang):
   XX=           -854.9675   YY=           -649.4611   ZZ=           -513.1223
   XY=            -89.9850   XZ=            -14.3358   YZ=            106.1780

 ESP charges:
               1
     1  C   -0.458183
     2  C    0.746447
     3  O   -0.575309
     4  H    0.129177
     5  H    0.153653
     6  H    0.096086
     7  N   -0.688062
     8  C    0.235161
     9  C    0.590871
    10  O   -0.499921
    11  C   -0.276156
    12  C    0.643168
    13  O   -0.672579
    14  O   -0.675589
    15  H    0.339636
    16  H    0.033825
    17  H    0.036122
    18  H    0.102767
    19  N   -0.473107
    20  C    0.096725
    21  C    0.345755
    22  O   -0.499159
    23  C   -0.255698
    24  C    0.356465
    25  C   -0.238629
    26  C    0.083112
    27  N   -0.383855
    28  H    0.218095
    29  H    0.088502
    30  H    0.097823
    31  H    0.071262
    32  H   -0.163310
    33  H   -0.119818
    34  H    0.091393
    35  H    0.052666
    36  H    0.036594
    37  H    0.085410
    38  H    0.305939
    39  H    0.305135
    40  H    0.316280
    41  N   -0.608057
    42  C   -0.066828
    43  C    0.374015
    44  O   -0.492297
    45  C   -0.205206
    46  C    0.758456
    47  O   -0.701362
    48  O   -0.857101
    49  H    1.228070
    50  H    0.144015
    51  H    0.038704
    52  H    0.074145
    53  N   -0.029415
    54  C   -0.326413
    55  C    0.681884
    56  O   -0.549181
    57  H    0.079850
    58  H    0.149492
    59  H    0.107261
    60  N   -0.557915
    61  C    0.228256
    62  C    0.536419
    63  O   -0.567463
    64  C   -0.484673
    65  C    0.826232
    66  N   -0.854429
    67  O   -0.609860
    68  H    0.180803
    69  H    0.034180
    70  H    0.133849
    71  H    0.209743
    72  H    0.362689
    73  H    0.385424
    74  N   -0.393147
    75  C   -0.272005
    76  C    0.566323
    77  O   -0.555129
    78  H    0.322809
    79  H    0.183992
    80  H    0.145056
    81  N   -0.186215
    82  C   -0.207641
    83  C    0.609406
    84  O   -0.576665
    85  C   -0.150325
    86  C    0.064117
    87  C   -0.144535
    88  C   -0.125095
    89  C   -0.234773
    90  C   -0.301029
    91  C    0.355154
    92  O   -0.517632
    93  H    0.185076
    94  H    0.133942
    95  H    0.060735
    96  H    0.091731
    97  H    0.091271
    98  H    0.129070
    99  H    0.185239
   100  H    0.150534
   101  H    0.398456
   102  N   -0.226157
   103  C   -0.573929
   104  C    0.795289
   105  O   -0.554280
   106  C    0.528798
   107  C   -0.204859
   108  C   -0.345022
   109  C   -0.107559
   110  H    0.283221
   111  H    0.167995
   112  H   -0.089848
   113  H    0.091859
   114  H    0.051455
   115  H    0.097784
   116  H    0.045106
   117  H    0.104824
   118  H    0.056693
   119  H   -0.032550
   120  H    0.067000
   121  N   -0.469736
   122  C   -0.301873
   123  C    0.761085
   124  O   -0.546597
   125  C    0.132158
   126  O   -0.586536
   127  H    0.229642
   128  H    0.182470
   129  H    0.014864
   130  H    0.055194
   131  H    0.408489
   132  N   -0.495443
   133  C    0.079528
   134  C    0.826682
   135  O   -0.587120
   136  C   -0.361167
   137  H    0.333532
   138  H    0.068241
   139  H    0.116849
   140  H    0.093148
   141  H    0.103654
   142  N   -0.953277
   143  C    0.798185
   144  C    0.243017
   145  O   -0.509660
   146  C   -0.560429
   147  H    0.401249
   148  H   -0.121359
   149  H    0.154986
   150  H    0.140315
   151  H    0.175603
   152  N   -0.264501
   153  C   -0.522281
   154  C    0.625974
   155  O   -0.539759
   156  C    0.162776
   157  C   -0.315963
   158  C    0.699443
   159  O   -0.688941
   160  O   -0.711422
   161  H    0.268410
   162  H    0.198157
   163  H    0.010795
   164  H    0.020434
   165  H    0.059723
   166  H    0.098538
   167  N   -0.354745
   168  C   -0.068393
   169  H    0.071043
   170  H    0.082155
   171  H    0.042983
   172  H    0.301608
   173  Ca   1.519144
   174  O   -0.801745
   175  H    0.370538
   176  H    0.443817
 Sum of ESP charges =  -0.00000

 Normal termination of Gaussian 16 at Wed Sep 18 12:47:53 2019.
