 Gaussian 16, Revision A.03,
 Gaussian 16:  ES64L-G16RevA.03 25-Dec-2016

 ----------------------------------------------------------------------
 #b3lyp/svp scf=(tight,noincore) Test #IOP(5/87=12) Density=Current Pop
 =(MK,readradii) iop(6/33=2) iop(6/42=6)
 ----------------------------------------------------------------------

 -----------------
 Ng-293_loop3_72.0
 -----------------
 Symbolic Z-matrix:
 Charge =  0 Multiplicity = 1

                         Standard orientation:
 ---------------------------------------------------------------------
 Center     Atomic      Atomic             Coordinates (Angstroms)
 Number     Number       Type             X           Y           Z
 ---------------------------------------------------------------------
      1          6           0       -9.761474    0.206955    6.379587
      2          6           0      -10.164712    0.291499    4.916593
      3          8           0      -11.293233    0.710985    4.671089
      4          1           0       -9.060809   -0.616332    6.516034
      5          1           0       -9.286538    1.140570    6.680408
      6          1           0      -10.646691    0.035611    6.991550
      7          7           0       -9.349645   -0.180933    3.971197
      8          6           0       -9.677025   -0.170809    2.560233
      9          6           0       -8.384468    0.032518    1.773751
     10          8           0       -7.344585   -0.522583    2.115959
     11          6           0      -10.381121   -1.496953    2.274245
     12          6           0      -11.034861   -1.528818    0.902345
     13          8           0      -11.388537   -0.445778    0.376287
     14          8           0      -11.300299   -2.665194    0.463492
     15          1           0       -8.501655   -0.619785    4.294340
     16          1           0      -10.234990    0.727409    2.286775
     17          1           0      -11.115588   -1.654009    3.070480
     18          1           0       -9.619623   -2.278444    2.333346
     19          7           0       -8.502100    0.749592    0.653007
     20          6           0       -7.483015    0.851740   -0.379191
     21          6           0       -7.047725   -0.500741   -0.937956
     22          8           0       -7.753182   -1.497022   -0.803958
     23          6           0       -6.365462    1.722061    0.178050
     24          6           0       -6.786885    3.163095    0.497303
     25          6           0       -7.598166    3.876882   -0.585486
     26          6           0       -7.364248    5.369710   -0.351934
     27          7           0       -8.111671    5.839627    0.825664
     28          1           0       -9.430090    1.057220    0.424099
     29          1           0       -7.946512    1.390400   -1.204730
     30          1           0       -5.539725    1.823071   -0.520059
     31          1           0       -5.939499    1.242162    1.057796
     32          1           0       -5.865876    3.703487    0.711591
     33          1           0       -7.377079    3.200474    1.415113
     34          1           0       -8.670755    3.748110   -0.435914
     35          1           0       -7.240499    3.599793   -1.568642
     36          1           0       -7.825495    5.898432   -1.187280
     37          1           0       -6.291219    5.516938   -0.183607
     38          1           0       -9.095636    5.995000    0.656633
     39          1           0       -8.077447    5.252475    1.642660
     40          1           0       -7.754294    6.733127    1.113658
     41          7           0       -5.853580   -0.584909   -1.527050
     42          6           0       -5.355177   -1.804347   -2.114388
     43          6           0       -4.607416   -2.694625   -1.122241
     44          8           0       -4.739094   -3.914381   -1.160399
     45          6           0       -4.423215   -1.520247   -3.289775
     46          6           0       -3.289563   -0.513470   -3.122047
     47          8           0       -3.552250    0.710956   -3.240268
     48          8           0       -2.088226   -0.870112   -3.158054
     49          1           0       -5.290846    0.248396   -1.559221
     50          1           0       -6.132784   -2.437382   -2.558791
     51          1           0       -5.036962   -1.135954   -4.105516
     52          1           0       -3.981797   -2.446743   -3.636412
     53          7           0       -3.749371   -2.093287   -0.290766
     54          6           0       -3.057117   -2.710815    0.830325
     55          6           0       -2.362988   -4.049976    0.674331
     56          8           0       -2.293493   -4.889225    1.571343
     57          1           0       -3.842681   -1.099953   -0.186933
     58          1           0       -3.748748   -2.790820    1.670471
     59          1           0       -2.267144   -2.012831    1.068988
     60          7           0       -1.796540   -4.263756   -0.518831
     61          6           0       -0.987135   -5.361037   -1.015861
     62          6           0        0.341620   -4.752123   -1.440282
     63          8           0        0.418791   -3.545336   -1.656408
     64          6           0       -1.691658   -6.059871   -2.172183
     65          6           0       -2.743321   -7.066886   -1.729437
     66          7           0       -3.869056   -6.543436   -1.253704
     67          8           0       -2.587715   -8.286140   -1.855157
     68          1           0       -1.664291   -3.416966   -1.061100
     69          1           0       -0.676172   -6.109820   -0.287695
     70          1           0       -1.006490   -6.579027   -2.845103
     71          1           0       -2.256447   -5.274177   -2.669676
     72          1           0       -3.974365   -5.557558   -1.043098
     73          1           0       -4.698023   -7.129619   -1.267912
     74          7           0        1.335523   -5.614524   -1.643557
     75          6           0        2.620656   -5.205502   -2.171130
     76          6           0        3.448345   -4.487971   -1.117669
     77          8           0        2.970530   -4.149524   -0.040707
     78          1           0        1.218547   -6.615032   -1.604813
     79          1           0        2.492228   -4.398384   -2.885948
     80          1           0        3.272402   -5.957491   -2.605571
     81          7           0        4.745887   -4.289160   -1.368190
     82          6           0        5.755265   -3.927002   -0.392179
     83          6           0        5.611055   -2.563449    0.273123
     84          8           0        6.297433   -2.330904    1.265599
     85          6           0        5.941889   -5.089042    0.583493
     86          6           0        7.257588   -5.196339    1.310146
     87          6           0        7.324020   -4.765690    2.632654
     88          6           0        8.356241   -5.764770    0.659646
     89          6           0        8.552570   -4.916209    3.301540
     90          6           0        9.571282   -5.877560    1.348380
     91          6           0        9.697052   -5.462018    2.689613
     92          8           0       10.940290   -5.244760    3.213502
     93          1           0        5.059990   -4.656650   -2.259531
     94          1           0        6.622302   -3.928929   -1.047879
     95          1           0        5.822935   -6.026877    0.038227
     96          1           0        5.139110   -4.966064    1.314808
     97          1           0        6.451766   -4.383535    3.136371
     98          1           0        8.309421   -6.032337   -0.385158
     99          1           0        8.650859   -4.487460    4.286584
    100          1           0       10.464572   -6.306055    0.916843
    101          1           0       11.667957   -5.598925    2.699238
    102          7           0        4.719936   -1.674310   -0.169528
    103          6           0        4.476901   -0.300846    0.208136
    104          6           0        5.542092    0.701287   -0.195968
    105          8           0        5.264956    1.635663   -0.961694
    106          6           0        3.931115   -0.292537    1.634652
    107          6           0        2.908365   -1.329858    2.084150
    108          6           0        3.344806    1.076699    1.937855
    109          6           0        1.544190   -1.438172    1.411920
    110          1           0        4.023477   -1.916048   -0.849092
    111          1           0        3.672777    0.074772   -0.438545
    112          1           0        4.800638   -0.388667    2.278228
    113          1           0        2.788780   -1.281228    3.169892
    114          1           0        3.336657   -2.309659    1.880294
    115          1           0        4.091556    1.868407    1.908474
    116          1           0        2.459932    1.354635    1.361443
    117          1           0        2.983365    1.205638    2.968309
    118          1           0        1.703211   -1.489459    0.337917
    119          1           0        1.105010   -2.423553    1.565363
    120          1           0        0.958534   -0.549728    1.672257
    121          7           0        6.768736    0.574402    0.305772
    122          6           0        7.953690    1.334148   -0.069956
    123          6           0        7.895812    2.824452    0.231779
    124          8           0        8.378017    3.604954   -0.581114
    125          6           0        9.163740    0.681744    0.573044
    126          8           0        9.085116    0.534002    1.979348
    127          1           0        6.982797   -0.155258    0.971936
    128          1           0        8.105951    1.290777   -1.153531
    129          1           0       10.091780    1.176266    0.284791
    130          1           0        9.182251   -0.322710    0.147215
    131          1           0        9.342590   -0.389935    2.046786
    132          7           0        7.181402    3.211688    1.296798
    133          6           0        7.010122    4.552159    1.826326
    134          6           0        6.424968    5.469428    0.762552
    135          8           0        6.831131    6.617229    0.620487
    136          6           0        8.319152    5.070456    2.427331
    137          1           0        6.901607    2.513012    1.950837
    138          1           0        6.291454    4.514767    2.647678
    139          1           0        8.440548    4.570322    3.380080
    140          1           0        9.111782    4.897584    1.693265
    141          1           0        8.338156    6.153728    2.557558
    142          7           0        5.528628    4.938494   -0.077676
    143          6           0        4.620518    5.723055   -0.887307
    144          6           0        3.165258    5.487979   -0.524049
    145          8           0        2.881648    4.473820    0.122516
    146          6           0        4.877815    5.435367   -2.362005
    147          1           0        5.213782    4.003616    0.155080
    148          1           0        4.762333    6.789430   -0.721981
    149          1           0        4.748766    4.375753   -2.551648
    150          1           0        4.214204    6.060544   -2.964230
    151          1           0        5.844156    5.870434   -2.622008
    152          7           0        2.253141    6.409414   -0.820700
    153          6           0        0.812532    6.385733   -0.637714
    154          6           0        0.329499    6.571228    0.796988
    155          8           0       -0.844500    6.289130    1.048084
    156          6           0        0.238319    5.164153   -1.336372
    157          6           0        0.387880    5.181054   -2.848736
    158          6           0       -0.201731    3.962999   -3.554499
    159          8           0        0.419528    3.256749   -4.378784
    160          8           0       -1.412159    3.741715   -3.363190
    161          1           0        2.631356    7.145418   -1.388020
    162          1           0        0.369015    7.144969   -1.284516
    163          1           0       -0.823724    5.106826   -1.103828
    164          1           0        0.632177    4.215341   -0.957515
    165          1           0        1.439048    5.356515   -3.111716
    166          1           0       -0.161848    6.051164   -3.224381
    167          7           0        1.123332    7.139108    1.708822
    168          6           0        0.906887    7.022390    3.133647
    169          1           0        0.180149    6.233037    3.326344
    170          1           0        1.848084    6.777349    3.625404
    171          1           0        0.528199    7.967665    3.522548
    172          1           0        2.030299    7.432899    1.394818
    173         20           0       -1.384266    1.350302   -4.441136
    174          8           0        0.586137    0.832766   -2.761086
    175          1           0        1.205316    0.102175   -2.663850
    176          1           0        1.076439    1.602879   -2.470517
 ---------------------------------------------------------------------

 SCF Done:  E(RB3LYP) =  -5333.39405695     A.U. after   29 cycles

 The electronic state is 1-A.
 Alpha  occ. eigenvalues -- -145.46094 -19.18557 -19.16951 -19.15996 -19.12347
 Alpha  occ. eigenvalues --  -19.12170 -19.11616 -19.11482 -19.11015 -19.10563
 Alpha  occ. eigenvalues --  -19.10176 -19.10116 -19.09949 -19.09841 -19.09750
 Alpha  occ. eigenvalues --  -19.09110 -19.08828 -19.07994 -19.07881 -19.07414
 Alpha  occ. eigenvalues --  -19.05886 -19.04014 -18.96155 -18.95421 -15.52064
 Alpha  occ. eigenvalues --  -14.57131 -14.38923 -14.38431 -14.38161 -14.37712
 Alpha  occ. eigenvalues --  -14.37154 -14.37016 -14.36232 -14.36164 -14.35605
 Alpha  occ. eigenvalues --  -14.34197 -14.33669 -14.33484 -14.30737 -14.30150
 Alpha  occ. eigenvalues --  -12.65667 -12.65632 -12.65562 -10.34449 -10.31381
 Alpha  occ. eigenvalues --  -10.30991 -10.30273 -10.29872 -10.29742 -10.29730
 Alpha  occ. eigenvalues --  -10.29162 -10.28772 -10.28548 -10.28531 -10.27565
 Alpha  occ. eigenvalues --  -10.27421 -10.27390 -10.27176 -10.26732 -10.26670
 Alpha  occ. eigenvalues --  -10.25901 -10.25826 -10.25744 -10.25290 -10.25135
 Alpha  occ. eigenvalues --  -10.24959 -10.24607 -10.24469 -10.24308 -10.23948
 Alpha  occ. eigenvalues --  -10.23945 -10.23878 -10.23788 -10.23738 -10.23556
 Alpha  occ. eigenvalues --  -10.22859 -10.21562 -10.20546 -10.20288 -10.20131
 Alpha  occ. eigenvalues --  -10.19906 -10.19717 -10.19653 -10.19558 -10.19530
 Alpha  occ. eigenvalues --  -10.19226 -10.18999 -10.18983 -10.18701 -10.17738
 Alpha  occ. eigenvalues --  -10.17685 -10.17562 -10.17531 -10.17024 -10.16086
 Alpha  occ. eigenvalues --  -10.15241 -10.10302  -1.88835  -1.16354  -1.16115
 Alpha  occ. eigenvalues --   -1.15791  -1.12922  -1.06378  -1.05392  -1.05365
 Alpha  occ. eigenvalues --   -1.05037  -1.04794  -1.04772  -1.04499  -1.04387
 Alpha  occ. eigenvalues --   -1.04287  -1.03819  -1.03374  -1.03303  -1.02941
 Alpha  occ. eigenvalues --   -1.01772  -1.01644  -1.00577  -1.00099  -0.98199
 Alpha  occ. eigenvalues --   -0.97336  -0.95866  -0.94910  -0.94724  -0.94673
 Alpha  occ. eigenvalues --   -0.94011  -0.93892  -0.93801  -0.93172  -0.93018
 Alpha  occ. eigenvalues --   -0.92930  -0.91719  -0.91144  -0.91125  -0.90739
 Alpha  occ. eigenvalues --   -0.89899  -0.88900  -0.87338  -0.85819  -0.85707
 Alpha  occ. eigenvalues --   -0.82398  -0.81873  -0.81463  -0.81123  -0.80535
 Alpha  occ. eigenvalues --   -0.79568  -0.79300  -0.78882  -0.77796  -0.76544
 Alpha  occ. eigenvalues --   -0.76030  -0.75980  -0.74895  -0.74876  -0.74641
 Alpha  occ. eigenvalues --   -0.73544  -0.73001  -0.72965  -0.71938  -0.71304
 Alpha  occ. eigenvalues --   -0.71190  -0.70989  -0.69256  -0.68202  -0.67959
 Alpha  occ. eigenvalues --   -0.67275  -0.67106  -0.66537  -0.66070  -0.64994
 Alpha  occ. eigenvalues --   -0.64213  -0.63919  -0.63733  -0.63339  -0.63079
 Alpha  occ. eigenvalues --   -0.62565  -0.61869  -0.61305  -0.61130  -0.60926
 Alpha  occ. eigenvalues --   -0.60745  -0.60116  -0.60053  -0.59999  -0.59163
 Alpha  occ. eigenvalues --   -0.59057  -0.57568  -0.57554  -0.57333  -0.57224
 Alpha  occ. eigenvalues --   -0.56734  -0.56548  -0.56394  -0.55980  -0.55947
 Alpha  occ. eigenvalues --   -0.55789  -0.55329  -0.55123  -0.54792  -0.54262
 Alpha  occ. eigenvalues --   -0.54246  -0.54096  -0.53675  -0.53477  -0.52539
 Alpha  occ. eigenvalues --   -0.52427  -0.51749  -0.51212  -0.51198  -0.51134
 Alpha  occ. eigenvalues --   -0.50945  -0.50869  -0.50420  -0.49981  -0.49389
 Alpha  occ. eigenvalues --   -0.49361  -0.48938  -0.48480  -0.48114  -0.48033
 Alpha  occ. eigenvalues --   -0.47941  -0.47846  -0.47612  -0.47254  -0.47168
 Alpha  occ. eigenvalues --   -0.47012  -0.46867  -0.46847  -0.46734  -0.46440
 Alpha  occ. eigenvalues --   -0.46302  -0.46168  -0.45774  -0.45691  -0.45536
 Alpha  occ. eigenvalues --   -0.45451  -0.45402  -0.45131  -0.45034  -0.44949
 Alpha  occ. eigenvalues --   -0.44703  -0.44524  -0.44277  -0.44162  -0.43904
 Alpha  occ. eigenvalues --   -0.43746  -0.43611  -0.43264  -0.43213  -0.43100
 Alpha  occ. eigenvalues --   -0.42986  -0.42901  -0.42568  -0.42440  -0.42401
 Alpha  occ. eigenvalues --   -0.42252  -0.42067  -0.42036  -0.41966  -0.41806
 Alpha  occ. eigenvalues --   -0.41718  -0.41672  -0.41354  -0.41316  -0.41170
 Alpha  occ. eigenvalues --   -0.40737  -0.40665  -0.40379  -0.40344  -0.40304
 Alpha  occ. eigenvalues --   -0.40161  -0.40006  -0.39835  -0.39684  -0.39621
 Alpha  occ. eigenvalues --   -0.39322  -0.39165  -0.39055  -0.38968  -0.38716
 Alpha  occ. eigenvalues --   -0.38572  -0.38384  -0.38119  -0.37975  -0.37898
 Alpha  occ. eigenvalues --   -0.37796  -0.37515  -0.37465  -0.37450  -0.37167
 Alpha  occ. eigenvalues --   -0.37119  -0.37045  -0.36791  -0.36511  -0.36428
 Alpha  occ. eigenvalues --   -0.36071  -0.36048  -0.35992  -0.35899  -0.35733
 Alpha  occ. eigenvalues --   -0.35620  -0.35546  -0.35483  -0.34932  -0.34593
 Alpha  occ. eigenvalues --   -0.34533  -0.34521  -0.34005  -0.33866  -0.33817
 Alpha  occ. eigenvalues --   -0.33517  -0.33445  -0.33263  -0.31220  -0.31177
 Alpha  occ. eigenvalues --   -0.30691  -0.30384  -0.30249  -0.29746  -0.29597
 Alpha  occ. eigenvalues --   -0.29145  -0.29012  -0.28787  -0.28193  -0.28136
 Alpha  occ. eigenvalues --   -0.28017  -0.27924  -0.27652  -0.27532  -0.27237
 Alpha  occ. eigenvalues --   -0.27218  -0.27065  -0.27010  -0.26664  -0.26495
 Alpha  occ. eigenvalues --   -0.26185  -0.26117  -0.25953  -0.25944  -0.25456
 Alpha  occ. eigenvalues --   -0.25155  -0.24999  -0.24985  -0.24866  -0.24805
 Alpha  occ. eigenvalues --   -0.24275  -0.24126  -0.23796  -0.23688  -0.22957
 Alpha  occ. eigenvalues --   -0.22784  -0.22715  -0.21639  -0.21118  -0.19961
 Alpha  occ. eigenvalues --   -0.13237  -0.12874  -0.10913
 Alpha virt. eigenvalues --   -0.09993  -0.09566  -0.04153  -0.03345  -0.02737
 Alpha virt. eigenvalues --   -0.01919  -0.01849  -0.01279  -0.00755  -0.00667
 Alpha virt. eigenvalues --   -0.00617  -0.00287   0.00074   0.00276   0.00383

 Mulliken charges:
               1
     1  C    0.070232
     2  C   -0.010836
     3  O   -0.303484
     4  H   -0.003455
     5  H    0.011821
     6  H    0.030879
     7  N   -0.131003
     8  C    0.128138
     9  C    0.054578
    10  O   -0.301390
    11  C    0.094053
    12  C    0.084352
    13  O   -0.410962
    14  O   -0.346853
    15  H    0.108751
    16  H   -0.031931
    17  H    0.016824
    18  H   -0.012277
    19  N   -0.113795
    20  C    0.104566
    21  C    0.085716
    22  O   -0.208229
    23  C    0.030480
    24  C   -0.021906
    25  C   -0.028575
    26  C    0.050584
    27  N    0.099724
    28  H    0.113279
    29  H    0.008543
    30  H    0.000300
    31  H    0.035945
    32  H    0.008009
    33  H   -0.003491
    34  H    0.030072
    35  H    0.061954
    36  H    0.057964
    37  H    0.084731
    38  H    0.159502
    39  H    0.159349
    40  H    0.156542
    41  N   -0.143604
    42  C    0.106970
    43  C    0.108177
    44  O   -0.272158
    45  C    0.135936
    46  C    0.046430
    47  O   -0.469904
    48  O   -0.406001
    49  H    0.122179
    50  H    0.035122
    51  H    0.014129
    52  H    0.011317
    53  N   -0.143083
    54  C    0.194461
    55  C    0.018712
    56  O   -0.259679
    57  H    0.115606
    58  H    0.051226
    59  H    0.026300
    60  N   -0.139051
    61  C    0.085971
    62  C    0.097837
    63  O   -0.283946
    64  C    0.101763
    65  C   -0.006263
    66  N   -0.048048
    67  O   -0.277048
    68  H    0.130922
    69  H    0.026210
    70  H   -0.009836
    71  H    0.006957
    72  H    0.127588
    73  H    0.126881
    74  N   -0.116876
    75  C    0.225479
    76  C   -0.006368
    77  O   -0.251465
    78  H    0.134875
    79  H    0.015627
    80  H    0.022305
    81  N   -0.150057
    82  C    0.123016
    83  C    0.101168
    84  O   -0.286984
    85  C    0.131001
    86  C   -0.032208
    87  C    0.064874
    88  C    0.012102
    89  C   -0.058120
    90  C   -0.058918
    91  C    0.186076
    92  O   -0.208014
    93  H    0.109686
    94  H   -0.002521
    95  H   -0.013328
    96  H    0.025100
    97  H   -0.022101
    98  H   -0.045879
    99  H   -0.021693
   100  H   -0.046156
   101  H    0.175275
   102  N   -0.081945
   103  C    0.140413
   104  C    0.054512
   105  O   -0.274600
   106  C   -0.057538
   107  C    0.014394
   108  C    0.048839
   109  C    0.027797
   110  H    0.125055
   111  H   -0.016963
   112  H   -0.008441
   113  H   -0.001253
   114  H    0.001683
   115  H   -0.011767
   116  H    0.016304
   117  H   -0.009991
   118  H   -0.025093
   119  H    0.032880
   120  H    0.008153
   121  N   -0.123582
   122  C    0.104487
   123  C    0.083922
   124  O   -0.257018
   125  C    0.184972
   126  O   -0.305284
   127  H    0.122095
   128  H    0.019888
   129  H    0.024830
   130  H    0.001273
   131  H    0.179455
   132  N   -0.133443
   133  C    0.045340
   134  C    0.049900
   135  O   -0.267951
   136  C    0.078320
   137  H    0.115138
   138  H    0.017201
   139  H   -0.002079
   140  H    0.030507
   141  H    0.023214
   142  N   -0.107750
   143  C    0.076088
   144  C    0.031715
   145  O   -0.283363
   146  C    0.091362
   147  H    0.139814
   148  H   -0.003986
   149  H    0.038893
   150  H   -0.022322
   151  H    0.035373
   152  N   -0.124343
   153  C    0.126533
   154  C    0.086387
   155  O   -0.289819
   156  C   -0.015658
   157  C    0.101928
   158  C    0.069010
   159  O   -0.423669
   160  O   -0.424549
   161  H    0.114896
   162  H    0.010000
   163  H    0.021900
   164  H    0.007634
   165  H   -0.016150
   166  H   -0.005669
   167  N   -0.131054
   168  C    0.129135
   169  H    0.042155
   170  H    0.024655
   171  H    0.023675
   172  H    0.111090
   173  Ca   1.363222
   174  O   -0.308552
   175  H    0.189705
   176  H    0.191417
 Sum of Mulliken charges =  -0.00000

 Dipole moment (field-independent basis, Debye):
    X=             21.3784    Y=             26.3385    Z=            -11.3528  Tot=             35.7720
 Quadrupole moment (field-independent basis, Debye-Ang):
   XX=           -831.2622   YY=           -496.8431   ZZ=           -503.1734
   XY=           -341.5510   XZ=             25.4776   YZ=             43.2508

 ESP charges:
               1
     1  C   -0.430235
     2  C    0.792163
     3  O   -0.605565
     4  H    0.097478
     5  H    0.088104
     6  H    0.126006
     7  N   -0.839560
     8  C    0.508336
     9  C    0.553648
    10  O   -0.548520
    11  C   -0.345608
    12  C    0.733798
    13  O   -0.716066
    14  O   -0.649468
    15  H    0.347797
    16  H   -0.073469
    17  H    0.126024
    18  H    0.075434
    19  N   -0.591397
    20  C    0.143021
    21  C    0.551433
    22  O   -0.457528
    23  C   -0.389750
    24  C    0.233872
    25  C   -0.072455
    26  C   -0.094111
    27  N   -0.264542
    28  H    0.318500
    29  H    0.050284
    30  H    0.110680
    31  H    0.128040
    32  H   -0.006206
    33  H   -0.039669
    34  H    0.065063
    35  H    0.078751
    36  H    0.097835
    37  H    0.119784
    38  H    0.302577
    39  H    0.278066
    40  H    0.276398
    41  N   -0.570068
    42  C    0.211845
    43  C    0.571603
    44  O   -0.621769
    45  C   -0.301247
    46  C    0.660267
    47  O   -0.769252
    48  O   -0.689780
    49  H    0.292671
    50  H    0.073258
    51  H    0.109199
    52  H    0.072878
    53  N   -0.192545
    54  C   -0.099372
    55  C    0.527234
    56  O   -0.537434
    57  H    0.215262
    58  H    0.090616
    59  H    0.057278
    60  N   -0.360144
    61  C    0.290655
    62  C    0.457686
    63  O   -0.444950
    64  C   -0.331864
    65  C    0.713643
    66  N   -0.865248
    67  O   -0.588754
    68  H    0.153627
    69  H    0.014407
    70  H    0.061413
    71  H    0.086576
    72  H    0.472175
    73  H    0.377722
    74  N   -0.494749
    75  C    0.038359
    76  C    0.596150
    77  O   -0.499185
    78  H    0.334572
    79  H    0.037904
    80  H    0.060011
    81  N   -0.747672
    82  C    0.503018
    83  C    0.211619
    84  O   -0.406953
    85  C   -0.333780
    86  C    0.113905
    87  C   -0.178352
    88  C   -0.208455
    89  C   -0.199885
    90  C   -0.225289
    91  C    0.300870
    92  O   -0.539474
    93  H    0.335414
    94  H    0.013335
    95  H    0.110294
    96  H    0.139513
    97  H    0.150535
    98  H    0.140179
    99  H    0.143659
   100  H    0.112723
   101  H    0.411492
   102  N   -0.493981
   103  C    0.092032
   104  C    0.386899
   105  O   -0.508070
   106  C    0.076216
   107  C    0.030043
   108  C   -0.195627
   109  C   -0.267540
   110  H    0.343271
   111  H    0.043382
   112  H   -0.000498
   113  H    0.011737
   114  H    0.049926
   115  H    0.022092
   116  H    0.072618
   117  H    0.056716
   118  H    0.046385
   119  H    0.099388
   120  H    0.070614
   121  N   -0.007927
   122  C   -0.272858
   123  C    0.562890
   124  O   -0.523161
   125  C    0.168400
   126  O   -0.606461
   127  H    0.142702
   128  H    0.124139
   129  H    0.058037
   130  H    0.010562
   131  H    0.426695
   132  N   -0.199542
   133  C    0.322528
   134  C    0.312046
   135  O   -0.489257
   136  C   -0.380993
   137  H    0.172573
   138  H    0.016007
   139  H    0.071561
   140  H    0.120924
   141  H    0.102059
   142  N   -0.367577
   143  C    0.639334
   144  C    0.321867
   145  O   -0.452440
   146  C   -0.376494
   147  H    0.060294
   148  H   -0.099842
   149  H    0.114499
   150  H    0.052689
   151  H    0.108294
   152  N   -0.489253
   153  C   -0.191978
   154  C    0.505414
   155  O   -0.515629
   156  C    0.327931
   157  C   -0.003514
   158  C    0.720095
   159  O   -0.786401
   160  O   -0.762168
   161  H    0.305314
   162  H    0.111231
   163  H   -0.062113
   164  H   -0.034608
   165  H   -0.036830
   166  H    0.003126
   167  N   -0.315201
   168  C   -0.050261
   169  H    0.084810
   170  H    0.070057
   171  H    0.044396
   172  H    0.255523
   173  Ca   1.619408
   174  O   -0.858451
   175  H    0.445284
   176  H    0.410382
 Sum of ESP charges =   0.00000

 Normal termination of Gaussian 16 at Tue Sep 17 18:41:25 2019.
