 Gaussian 16, Revision A.03,
 Gaussian 16:  ES64L-G16RevA.03 25-Dec-2016

 ----------------------------------------------------------------------
 #b3lyp/svp scf=(tight,noincore) Test #IOP(5/87=12) Density=Current Pop
 =(MK,readradii) iop(6/33=2) iop(6/42=6)
 ----------------------------------------------------------------------

 -----------------
 Ng-293_loop3_69.0
 -----------------
 Symbolic Z-matrix:
 Charge =  0 Multiplicity = 1

                         Standard orientation:
 ---------------------------------------------------------------------
 Center     Atomic      Atomic             Coordinates (Angstroms)
 Number     Number       Type             X           Y           Z
 ---------------------------------------------------------------------
      1          6           0        9.300426   -2.899391   -6.507437
      2          6           0        9.750651   -2.375218   -5.142029
      3          8           0       10.815444   -1.790105   -4.983100
      4          1           0        8.334545   -3.393380   -6.405424
      5          1           0        9.210070   -2.066766   -7.204980
      6          1           0       10.034663   -3.611673   -6.884125
      7          7           0        8.939987   -2.689389   -4.126391
      8          6           0        9.088955   -2.230358   -2.761656
      9          6           0        7.839721   -1.835528   -1.989890
     10          8           0        6.773271   -1.838702   -2.609627
     11          6           0        9.667874   -3.459455   -2.072473
     12          6           0       10.092825   -3.161463   -0.635630
     13          8           0       10.531153   -2.057865   -0.252172
     14          8           0        9.881088   -4.042423    0.219576
     15          1           0        8.065446   -3.153121   -4.318043
     16          1           0        9.709482   -1.336427   -2.720022
     17          1           0       10.586259   -3.800951   -2.553044
     18          1           0        8.947180   -4.277919   -2.025387
     19          7           0        7.911359   -1.156367   -0.838843
     20          6           0        6.876636   -0.606216    0.020448
     21          6           0        5.843081   -1.629352    0.490296
     22          8           0        5.739967   -2.751702    0.012073
     23          6           0        6.278174    0.632963   -0.622731
     24          6           0        7.238415    1.810224   -0.727106
     25          6           0        7.721254    2.329586    0.620607
     26          6           0        8.466545    3.636117    0.418325
     27          7           0        9.750706    3.528982   -0.299486
     28          1           0        8.826025   -1.162965   -0.422738
     29          1           0        7.329533   -0.289447    0.949880
     30          1           0        5.398110    0.925144   -0.041166
     31          1           0        5.947841    0.331875   -1.618736
     32          1           0        6.837048    2.613609   -1.351907
     33          1           0        8.070966    1.410873   -1.316238
     34          1           0        8.497869    1.669256    0.999597
     35          1           0        6.831412    2.433136    1.252397
     36          1           0        8.629531    4.126573    1.382165
     37          1           0        7.853455    4.375140   -0.093206
     38          1           0       10.363504    2.897365    0.199252
     39          1           0        9.689298    3.050060   -1.192269
     40          1           0       10.201281    4.427181   -0.374461
     41          7           0        5.068586   -1.334301    1.531259
     42          6           0        4.109159   -2.194316    2.212048
     43          6           0        2.807042   -2.369394    1.436395
     44          8           0        1.724061   -2.077573    1.949223
     45          6           0        4.022471   -1.857953    3.701358
     46          6           0        3.713888   -0.408060    4.015503
     47          8           0        3.503203    0.429839    3.105483
     48          8           0        3.804912    0.050860    5.177401
     49          1           0        5.228776   -0.490119    2.049038
     50          1           0        4.553683   -3.187506    2.188149
     51          1           0        4.970179   -2.047376    4.199824
     52          1           0        3.322157   -2.582408    4.099510
     53          7           0        2.894294   -2.707415    0.152016
     54          6           0        1.773214   -2.860256   -0.753755
     55          6           0        0.948676   -4.097443   -0.467739
     56          8           0        1.037235   -5.026844   -1.261131
     57          1           0        3.804379   -2.893311   -0.233584
     58          1           0        2.109938   -2.919179   -1.795506
     59          1           0        1.123529   -1.993849   -0.632724
     60          7           0        0.070721   -4.037486    0.548184
     61          6           0       -0.740520   -5.140119    1.025560
     62          6           0       -2.152512   -4.703685    1.384314
     63          8           0       -2.328539   -3.554501    1.781544
     64          6           0       -0.071030   -5.830758    2.215602
     65          6           0        1.055526   -6.813071    1.931291
     66          7           0        0.866927   -7.983835    1.314330
     67          8           0        2.210550   -6.455256    2.126194
     68          1           0       -0.108172   -3.129914    0.949322
     69          1           0       -0.891248   -5.877883    0.236329
     70          1           0       -0.714821   -6.535525    2.746485
     71          1           0        0.248387   -5.114485    2.976868
     72          1           0       -0.081120   -8.248538    1.091308
     73          1           0        1.667236   -8.426274    0.903534
     74          7           0       -3.111940   -5.628368    1.342388
     75          6           0       -4.531714   -5.417233    1.584181
     76          6           0       -5.226939   -4.455029    0.634535
     77          8           0       -4.834594   -4.361664   -0.521297
     78          1           0       -2.907166   -6.581912    1.086222
     79          1           0       -4.853133   -5.120039    2.578045
     80          1           0       -5.031199   -6.369219    1.419752
     81          7           0       -6.331019   -3.815983    1.053614
     82          6           0       -7.227120   -3.005490    0.249684
     83          6           0       -6.654973   -1.664978   -0.179240
     84          8           0       -7.195786   -0.968019   -1.037768
     85          6           0       -7.834227   -3.858233   -0.869088
     86          6           0       -9.297646   -3.616612   -1.128559
     87          6           0       -9.690837   -3.160613   -2.395431
     88          6           0      -10.263421   -3.931381   -0.161295
     89          6           0      -11.061205   -3.128102   -2.669538
     90          6           0      -11.633495   -3.759316   -0.404995
     91          6           0      -12.037931   -3.448837   -1.720835
     92          8           0      -13.357031   -3.249382   -2.024962
     93          1           0       -6.667089   -3.961604    1.988307
     94          1           0       -8.030282   -2.755426    0.944880
     95          1           0       -7.699971   -4.920232   -0.666272
     96          1           0       -7.174762   -3.612833   -1.692607
     97          1           0       -8.978537   -2.945030   -3.181276
     98          1           0       -9.896878   -4.279413    0.801056
     99          1           0      -11.358279   -2.791085   -3.647785
    100          1           0      -12.377858   -4.020983    0.322985
    101          1           0      -13.938432   -3.274882   -1.264290
    102          7           0       -5.476897   -1.264744    0.300916
    103          6           0       -4.702826   -0.082307   -0.029322
    104          6           0       -5.269056    1.280060    0.314102
    105          8           0       -4.477618    2.153971    0.676187
    106          6           0       -4.199533   -0.070881   -1.461336
    107          6           0       -3.343944   -1.309079   -1.745996
    108          6           0       -3.392194    1.149162   -1.898714
    109          6           0       -1.908087   -1.385848   -1.243083
    110          1           0       -5.027680   -1.844942    0.992779
    111          1           0       -3.915450   -0.133177    0.729329
    112          1           0       -5.133371   -0.010954   -2.023348
    113          1           0       -3.363929   -1.481852   -2.820868
    114          1           0       -3.925676   -2.206913   -1.539881
    115          1           0       -4.020080    2.025332   -2.079228
    116          1           0       -2.697778    1.260333   -1.067253
    117          1           0       -2.874364    1.031599   -2.850676
    118          1           0       -1.867080   -1.125886   -0.187082
    119          1           0       -1.473070   -2.370775   -1.377169
    120          1           0       -1.277367   -0.686351   -1.802274
    121          7           0       -6.583554    1.536802    0.279784
    122          6           0       -7.185274    2.768947    0.734485
    123          6           0       -6.522930    4.046080    0.240388
    124          8           0       -6.287339    4.964029    1.024012
    125          6           0       -8.643190    2.870587    0.268919
    126          8           0       -8.881611    2.470282   -1.061912
    127          1           0       -7.137239    0.751058   -0.035397
    128          1           0       -7.267374    2.710584    1.825335
    129          1           0       -8.978795    3.891278    0.435227
    130          1           0       -9.126219    2.252029    1.027450
    131          1           0       -9.631659    1.884148   -1.002130
    132          7           0       -6.186319    4.091568   -1.050357
    133          6           0       -5.408753    5.121453   -1.699994
    134          6           0       -4.196223    5.672824   -0.960087
    135          8           0       -4.133900    6.835743   -0.562427
    136          6           0       -6.434342    6.075825   -2.301360
    137          1           0       -6.680707    3.458380   -1.665055
    138          1           0       -4.982521    4.535584   -2.501295
    139          1           0       -6.021977    6.854259   -2.951050
    140          1           0       -7.173102    5.547005   -2.886239
    141          1           0       -6.886930    6.571108   -1.439236
    142          7           0       -3.216827    4.836500   -0.617237
    143          6           0       -2.053840    5.234325    0.163530
    144          6           0       -0.742387    5.259365   -0.602083
    145          8           0       -0.382141    4.300429   -1.282278
    146          6           0       -1.917507    4.415651    1.439886
    147          1           0       -3.219210    3.883985   -0.961635
    148          1           0       -2.213177    6.272199    0.446604
    149          1           0       -1.972782    3.376105    1.100785
    150          1           0       -0.923052    4.642352    1.803983
    151          1           0       -2.663154    4.596877    2.220249
    152          7           0        0.090903    6.261413   -0.322032
    153          6           0        1.485483    6.468671   -0.661867
    154          6           0        1.785363    6.400518   -2.147642
    155          8           0        2.942223    6.108730   -2.450848
    156          6           0        2.358296    5.501906    0.135983
    157          6           0        2.097391    5.563161    1.633306
    158          6           0        3.130492    4.884154    2.529661
    159          8           0        4.060339    5.482630    3.108722
    160          8           0        3.048907    3.639340    2.633022
    161          1           0       -0.261935    6.999625    0.279257
    162          1           0        1.697753    7.485414   -0.338022
    163          1           0        3.401976    5.644124   -0.132170
    164          1           0        2.168018    4.450022   -0.092566
    165          1           0        1.113763    5.124161    1.815938
    166          1           0        2.039699    6.622838    1.854793
    167          7           0        0.829174    6.683869   -3.037651
    168          6           0        0.980922    6.234299   -4.415823
    169          1           0        0.365099    5.349191   -4.578903
    170          1           0        0.663540    7.026396   -5.093550
    171          1           0        2.025953    5.989534   -4.606206
    172          1           0       -0.065359    7.024163   -2.716232
    173         20           0        2.972106    2.395865    4.920525
    174          8           0        1.599283    2.909835    7.133102
    175          1           0        0.673476    2.928896    7.376860
    176          1           0        2.016555    3.505094    7.751609
 ---------------------------------------------------------------------

 SCF Done:  E(RB3LYP) =  -5333.33769677     A.U. after   31 cycles

 The electronic state is 1-A.
 Alpha  occ. eigenvalues -- -145.46963 -19.25400 -19.17068 -19.15546 -19.12013
 Alpha  occ. eigenvalues --  -19.11672 -19.11524 -19.09086 -19.08599 -19.08173
 Alpha  occ. eigenvalues --  -19.08048 -19.07931 -19.07358 -19.07159 -19.07098
 Alpha  occ. eigenvalues --  -19.07063 -19.06794 -19.06775 -19.05725 -19.04456
 Alpha  occ. eigenvalues --  -19.04096 -19.04028 -18.96837 -18.95426 -15.52933
 Alpha  occ. eigenvalues --  -14.56327 -14.38932 -14.38852 -14.36962 -14.35461
 Alpha  occ. eigenvalues --  -14.35060 -14.34498 -14.34336 -14.34270 -14.33531
 Alpha  occ. eigenvalues --  -14.33237 -14.32845 -14.31875 -14.30408 -14.30192
 Alpha  occ. eigenvalues --  -12.66570 -12.66465 -12.66444 -10.32487 -10.31193
 Alpha  occ. eigenvalues --  -10.30479 -10.30270 -10.27911 -10.27334 -10.27043
 Alpha  occ. eigenvalues --  -10.27035 -10.26984 -10.26938 -10.26919 -10.26841
 Alpha  occ. eigenvalues --  -10.26425 -10.26178 -10.25939 -10.25780 -10.25348
 Alpha  occ. eigenvalues --  -10.25169 -10.25039 -10.24344 -10.24284 -10.23777
 Alpha  occ. eigenvalues --  -10.23486 -10.23450 -10.23316 -10.22946 -10.22821
 Alpha  occ. eigenvalues --  -10.22405 -10.21749 -10.21735 -10.21073 -10.20960
 Alpha  occ. eigenvalues --  -10.20741 -10.20461 -10.20358 -10.20098 -10.20051
 Alpha  occ. eigenvalues --  -10.19911 -10.19841 -10.19319 -10.18557 -10.18310
 Alpha  occ. eigenvalues --  -10.18021 -10.17636 -10.17273 -10.17264 -10.16565
 Alpha  occ. eigenvalues --  -10.16509 -10.16299 -10.15981 -10.15948 -10.15761
 Alpha  occ. eigenvalues --  -10.15468 -10.10721  -1.89607  -1.17411  -1.16697
 Alpha  occ. eigenvalues --   -1.16461  -1.11410  -1.11243  -1.05894  -1.05563
 Alpha  occ. eigenvalues --   -1.04920  -1.04279  -1.03925  -1.03116  -1.02404
 Alpha  occ. eigenvalues --   -1.02144  -1.01187  -1.01018  -1.00828  -1.00813
 Alpha  occ. eigenvalues --   -1.00182  -1.00161  -0.99821  -0.99157  -0.97939
 Alpha  occ. eigenvalues --   -0.96929  -0.95765  -0.94669  -0.93289  -0.92226
 Alpha  occ. eigenvalues --   -0.92009  -0.91650  -0.91532  -0.91205  -0.90391
 Alpha  occ. eigenvalues --   -0.90322  -0.89614  -0.89550  -0.89025  -0.88703
 Alpha  occ. eigenvalues --   -0.88570  -0.88231  -0.86896  -0.86455  -0.86110
 Alpha  occ. eigenvalues --   -0.81742  -0.80616  -0.80507  -0.79664  -0.79084
 Alpha  occ. eigenvalues --   -0.78853  -0.78216  -0.76720  -0.76430  -0.76062
 Alpha  occ. eigenvalues --   -0.75384  -0.74639  -0.74324  -0.74259  -0.72705
 Alpha  occ. eigenvalues --   -0.72576  -0.71984  -0.71468  -0.70797  -0.70064
 Alpha  occ. eigenvalues --   -0.69081  -0.68485  -0.68395  -0.67889  -0.67419
 Alpha  occ. eigenvalues --   -0.67047  -0.66037  -0.65048  -0.64531  -0.64410
 Alpha  occ. eigenvalues --   -0.63795  -0.63368  -0.63222  -0.62758  -0.62079
 Alpha  occ. eigenvalues --   -0.61570  -0.61438  -0.60588  -0.59851  -0.59795
 Alpha  occ. eigenvalues --   -0.59314  -0.59272  -0.58577  -0.58379  -0.58040
 Alpha  occ. eigenvalues --   -0.57835  -0.57450  -0.56709  -0.56645  -0.56590
 Alpha  occ. eigenvalues --   -0.56049  -0.55916  -0.55753  -0.55060  -0.54994
 Alpha  occ. eigenvalues --   -0.54643  -0.54216  -0.53886  -0.53680  -0.53536
 Alpha  occ. eigenvalues --   -0.53048  -0.52554  -0.52391  -0.51855  -0.51718
 Alpha  occ. eigenvalues --   -0.51637  -0.51194  -0.50977  -0.50246  -0.49963
 Alpha  occ. eigenvalues --   -0.49792  -0.49415  -0.48652  -0.48555  -0.48218
 Alpha  occ. eigenvalues --   -0.48063  -0.47963  -0.47845  -0.47684  -0.47204
 Alpha  occ. eigenvalues --   -0.47104  -0.46997  -0.46615  -0.46507  -0.46333
 Alpha  occ. eigenvalues --   -0.46095  -0.45818  -0.45716  -0.45377  -0.45238
 Alpha  occ. eigenvalues --   -0.45011  -0.44866  -0.44599  -0.44557  -0.44409
 Alpha  occ. eigenvalues --   -0.44196  -0.44031  -0.43742  -0.43602  -0.43346
 Alpha  occ. eigenvalues --   -0.43047  -0.42965  -0.42875  -0.42814  -0.42678
 Alpha  occ. eigenvalues --   -0.42663  -0.42403  -0.42132  -0.42009  -0.41879
 Alpha  occ. eigenvalues --   -0.41753  -0.41691  -0.41515  -0.41418  -0.41393
 Alpha  occ. eigenvalues --   -0.41025  -0.40931  -0.40829  -0.40801  -0.40548
 Alpha  occ. eigenvalues --   -0.40391  -0.40000  -0.39924  -0.39822  -0.39510
 Alpha  occ. eigenvalues --   -0.39449  -0.39367  -0.39259  -0.39091  -0.38924
 Alpha  occ. eigenvalues --   -0.38854  -0.38765  -0.38610  -0.38547  -0.38333
 Alpha  occ. eigenvalues --   -0.38112  -0.37890  -0.37610  -0.37414  -0.37381
 Alpha  occ. eigenvalues --   -0.37364  -0.37344  -0.37005  -0.36951  -0.36931
 Alpha  occ. eigenvalues --   -0.36820  -0.36720  -0.36707  -0.36321  -0.36260
 Alpha  occ. eigenvalues --   -0.36190  -0.36164  -0.36018  -0.35891  -0.35858
 Alpha  occ. eigenvalues --   -0.35400  -0.34997  -0.34764  -0.34702  -0.34666
 Alpha  occ. eigenvalues --   -0.34607  -0.34601  -0.34243  -0.33855  -0.33624
 Alpha  occ. eigenvalues --   -0.33475  -0.33373  -0.33244  -0.32860  -0.32745
 Alpha  occ. eigenvalues --   -0.32705  -0.31629  -0.31067  -0.30963  -0.30637
 Alpha  occ. eigenvalues --   -0.30429  -0.29870  -0.29556  -0.29300  -0.28476
 Alpha  occ. eigenvalues --   -0.27755  -0.27469  -0.27462  -0.27389  -0.27130
 Alpha  occ. eigenvalues --   -0.26726  -0.26582  -0.26567  -0.26189  -0.25734
 Alpha  occ. eigenvalues --   -0.25675  -0.25256  -0.25190  -0.24850  -0.24714
 Alpha  occ. eigenvalues --   -0.24408  -0.24230  -0.23894  -0.23871  -0.23715
 Alpha  occ. eigenvalues --   -0.23529  -0.23224  -0.23211  -0.23153  -0.22827
 Alpha  occ. eigenvalues --   -0.22788  -0.22689  -0.22585  -0.21738  -0.21317
 Alpha  occ. eigenvalues --   -0.21062  -0.20767  -0.20374  -0.19603  -0.19476
 Alpha  occ. eigenvalues --   -0.14263  -0.13832  -0.10613
 Alpha virt. eigenvalues --   -0.09693  -0.07926  -0.02855  -0.02290  -0.02001
 Alpha virt. eigenvalues --   -0.01793  -0.01710  -0.01503  -0.00716  -0.00561
 Alpha virt. eigenvalues --   -0.00178   0.00978   0.01394   0.01428   0.01481

 Mulliken charges:
               1
     1  C    0.062431
     2  C    0.011805
     3  O   -0.300660
     4  H   -0.010323
     5  H    0.023494
     6  H    0.032459
     7  N   -0.108148
     8  C    0.090022
     9  C    0.100762
    10  O   -0.307725
    11  C    0.106345
    12  C   -0.000783
    13  O   -0.415084
    14  O   -0.337276
    15  H    0.112242
    16  H   -0.009269
    17  H    0.004984
    18  H   -0.008252
    19  N   -0.130493
    20  C    0.087596
    21  C    0.094766
    22  O   -0.265521
    23  C    0.076251
    24  C   -0.028506
    25  C   -0.018197
    26  C    0.028036
    27  N    0.072223
    28  H    0.098576
    29  H   -0.010088
    30  H    0.018864
    31  H    0.033291
    32  H    0.016666
    33  H   -0.009631
    34  H    0.034282
    35  H    0.078304
    36  H    0.064518
    37  H    0.069699
    38  H    0.188732
    39  H    0.192426
    40  H    0.194762
    41  N   -0.121644
    42  C    0.112322
    43  C    0.088592
    44  O   -0.301306
    45  C    0.091066
    46  C    0.101449
    47  O   -0.396990
    48  O   -0.485085
    49  H    0.102088
    50  H    0.031959
    51  H    0.021086
    52  H    0.034660
    53  N   -0.137556
    54  C    0.231523
    55  C    0.041703
    56  O   -0.279649
    57  H    0.138087
    58  H    0.028031
    59  H    0.005371
    60  N   -0.131346
    61  C    0.116186
    62  C    0.102361
    63  O   -0.280257
    64  C    0.122709
    65  C   -0.019904
    66  N   -0.035510
    67  O   -0.255804
    68  H    0.142243
    69  H   -0.008194
    70  H   -0.028239
    71  H    0.023922
    72  H    0.095903
    73  H    0.140734
    74  N   -0.112149
    75  C    0.215418
    76  C    0.034793
    77  O   -0.252144
    78  H    0.123527
    79  H   -0.002049
    80  H    0.026196
    81  N   -0.156633
    82  C    0.094610
    83  C    0.059570
    84  O   -0.298186
    85  C    0.170594
    86  C   -0.038742
    87  C    0.024167
    88  C    0.000932
    89  C   -0.032604
    90  C   -0.037442
    91  C    0.176614
    92  O   -0.203722
    93  H    0.114215
    94  H    0.010202
    95  H    0.011374
    96  H    0.022767
    97  H   -0.016890
    98  H   -0.045165
    99  H   -0.022903
   100  H   -0.041825
   101  H    0.173421
   102  N   -0.097700
   103  C    0.171491
   104  C    0.027988
   105  O   -0.295753
   106  C   -0.131340
   107  C    0.041739
   108  C    0.076216
   109  C    0.009260
   110  H    0.124321
   111  H    0.010251
   112  H   -0.001951
   113  H   -0.024925
   114  H   -0.010055
   115  H   -0.009218
   116  H    0.034047
   117  H    0.012127
   118  H    0.016696
   119  H    0.019639
   120  H    0.018393
   121  N   -0.095557
   122  C    0.114268
   123  C    0.078902
   124  O   -0.264601
   125  C    0.175347
   126  O   -0.289508
   127  H    0.109704
   128  H    0.003401
   129  H    0.019478
   130  H   -0.006393
   131  H    0.176483
   132  N   -0.150421
   133  C    0.101606
   134  C    0.074029
   135  O   -0.274198
   136  C    0.072116
   137  H    0.125854
   138  H   -0.013435
   139  H    0.005369
   140  H   -0.005664
   141  H    0.036219
   142  N   -0.123986
   143  C    0.098236
   144  C    0.031943
   145  O   -0.274685
   146  C    0.102785
   147  H    0.130779
   148  H   -0.012046
   149  H    0.031422
   150  H   -0.031377
   151  H    0.033482
   152  N   -0.145996
   153  C    0.107854
   154  C    0.077974
   155  O   -0.287751
   156  C    0.026134
   157  C    0.110477
   158  C    0.029148
   159  O   -0.360805
   160  O   -0.457716
   161  H    0.121689
   162  H    0.010378
   163  H    0.006936
   164  H    0.025729
   165  H   -0.021271
   166  H   -0.046757
   167  N   -0.140661
   168  C    0.124043
   169  H    0.031381
   170  H    0.011775
   171  H    0.046198
   172  H    0.116324
   173  Ca   1.346133
   174  O   -0.313016
   175  H    0.201503
   176  H    0.187483
 Sum of Mulliken charges =  -0.00000

 Dipole moment (field-independent basis, Debye):
    X=            -16.9496    Y=             14.8763    Z=             17.7059  Tot=             28.6722
 Quadrupole moment (field-independent basis, Debye-Ang):
   XX=           -554.9473   YY=           -536.7946   ZZ=           -463.0778
   XY=            301.9733   XZ=             11.2775   YZ=              8.9214

 ESP charges:
               1
     1  C   -0.468837
     2  C    0.701761
     3  O   -0.581147
     4  H    0.099763
     5  H    0.117013
     6  H    0.138478
     7  N   -0.608600
     8  C    0.317099
     9  C    0.572789
    10  O   -0.593784
    11  C   -0.434959
    12  C    0.749858
    13  O   -0.730430
    14  O   -0.663310
    15  H    0.323724
    16  H   -0.010182
    17  H    0.130906
    18  H    0.104565
    19  N   -0.529950
    20  C    0.617778
    21  C    0.370765
    22  O   -0.482110
    23  C   -0.541083
    24  C    0.491452
    25  C   -0.405234
    26  C    0.233754
    27  N   -0.618722
    28  H    0.218059
    29  H   -0.068355
    30  H    0.098893
    31  H    0.146811
    32  H   -0.071599
    33  H   -0.114355
    34  H    0.104103
    35  H    0.153743
    36  H    0.047986
    37  H    0.073062
    38  H    0.395219
    39  H    0.384179
    40  H    0.388210
    41  N   -0.450080
    42  C    0.201019
    43  C    0.390286
    44  O   -0.508417
    45  C   -0.308456
    46  C    0.746062
    47  O   -0.668688
    48  O   -0.793612
    49  H    0.242920
    50  H    0.060056
    51  H    0.118425
    52  H    0.104068
    53  N   -0.276959
    54  C   -0.178021
    55  C    0.648325
    56  O   -0.555547
    57  H    0.291498
    58  H    0.117096
    59  H    0.098965
    60  N   -0.495256
    61  C    0.284663
    62  C    0.522549
    63  O   -0.492331
    64  C   -0.255268
    65  C    0.729521
    66  N   -0.861055
    67  O   -0.568668
    68  H    0.264048
    69  H   -0.025455
    70  H    0.012062
    71  H    0.106107
    72  H    0.351226
    73  H    0.418071
    74  N   -0.518562
    75  C    0.013881
    76  C    0.660116
    77  O   -0.541552
    78  H    0.328998
    79  H    0.039216
    80  H    0.076200
    81  N   -0.796418
    82  C    0.449922
    83  C    0.395645
    84  O   -0.526240
    85  C   -0.219208
    86  C    0.003091
    87  C   -0.151803
    88  C   -0.110487
    89  C   -0.216110
    90  C   -0.327074
    91  C    0.386213
    92  O   -0.570069
    93  H    0.356060
    94  H   -0.006441
    95  H    0.107907
    96  H    0.117114
    97  H    0.146636
    98  H    0.116169
    99  H    0.147348
   100  H    0.143935
   101  H    0.420832
   102  N   -0.483573
   103  C    0.074179
   104  C    0.402889
   105  O   -0.510047
   106  C   -0.087643
   107  C    0.230235
   108  C   -0.369774
   109  C   -0.250942
   110  H    0.291197
   111  H    0.106841
   112  H    0.090834
   113  H   -0.037256
   114  H    0.013461
   115  H    0.107864
   116  H    0.109102
   117  H    0.113874
   118  H    0.067976
   119  H    0.040614
   120  H    0.053394
   121  N   -0.320515
   122  C    0.140171
   123  C    0.217052
   124  O   -0.475741
   125  C   -0.022068
   126  O   -0.561872
   127  H    0.250354
   128  H    0.061516
   129  H    0.083688
   130  H    0.048692
   131  H    0.416597
   132  N    0.089204
   133  C    0.248708
   134  C    0.387717
   135  O   -0.512153
   136  C   -0.430297
   137  H    0.121509
   138  H   -0.016071
   139  H    0.104848
   140  H    0.105162
   141  H    0.113170
   142  N   -0.395880
   143  C    0.543902
   144  C    0.280321
   145  O   -0.442177
   146  C   -0.166570
   147  H    0.120992
   148  H   -0.081369
   149  H    0.058617
   150  H   -0.027787
   151  H    0.064300
   152  N   -0.397725
   153  C   -0.411364
   154  C    0.508150
   155  O   -0.517611
   156  C    0.588217
   157  C   -0.194440
   158  C    0.591467
   159  O   -0.672593
   160  O   -0.752284
   161  H    0.302609
   162  H    0.166530
   163  H   -0.088515
   164  H   -0.037506
   165  H    0.040912
   166  H   -0.021992
   167  N   -0.343288
   168  C    0.022255
   169  H    0.050315
   170  H    0.021262
   171  H    0.067902
   172  H    0.278529
   173  Ca   1.535139
   174  O   -0.785228
   175  H    0.433838
   176  H    0.396391
 Sum of ESP charges =   0.00000

 Normal termination of Gaussian 16 at Tue Sep 17 18:25:17 2019.
