 Gaussian 16, Revision A.03,
 Gaussian 16:  ES64L-G16RevA.03 25-Dec-2016

 ----------------------------------------------------------------------
 #b3lyp/svp scf=(tight,noincore) Test #IOP(5/87=12) Density=Current Pop
 =(MK,readradii) iop(6/33=2) iop(6/42=6)
 ----------------------------------------------------------------------

 -----------------
 Ng-295_loop3_38.0
 -----------------
 Symbolic Z-matrix:
 Charge =  0 Multiplicity = 1

                         Standard orientation:
 ---------------------------------------------------------------------
 Center     Atomic      Atomic             Coordinates (Angstroms)
 Number     Number       Type             X           Y           Z
 ---------------------------------------------------------------------
      1          6           0        9.420396   -5.113341    3.767395
      2          6           0        8.204017   -4.819654    2.891513
      3          8           0        7.518909   -5.702645    2.371270
      4          1           0        9.350528   -4.536591    4.690316
      5          1           0        9.448993   -6.176556    4.005993
      6          1           0       10.329156   -4.835386    3.233951
      7          7           0        8.106407   -3.516828    2.612199
      8          6           0        7.135285   -3.012931    1.665885
      9          6           0        7.703098   -2.648470    0.293968
     10          8           0        8.665412   -1.893212    0.282289
     11          6           0        6.497138   -1.786840    2.300920
     12          6           0        5.028592   -1.668710    1.925529
     13          8           0        4.307934   -0.906120    2.614955
     14          8           0        4.528321   -2.242592    0.936899
     15          1           0        8.752128   -2.868858    3.046342
     16          1           0        6.387901   -3.796380    1.535403
     17          1           0        7.048912   -0.935601    1.888685
     18          1           0        6.709777   -1.767212    3.375396
     19          7           0        7.172194   -3.306822   -0.743921
     20          6           0        7.819627   -3.351289   -2.032545
     21          6           0        7.870518   -2.004694   -2.743173
     22          8           0        8.527631   -1.927442   -3.779625
     23          6           0        7.169211   -4.448610   -2.868635
     24          6           0        5.654211   -4.322944   -3.073776
     25          6           0        5.089038   -5.370660   -4.021547
     26          6           0        3.594755   -5.163104   -4.262252
     27          7           0        2.788777   -5.233726   -3.032938
     28          1           0        6.426627   -3.956831   -0.537965
     29          1           0        8.862205   -3.608479   -1.831838
     30          1           0        7.413096   -5.413752   -2.435136
     31          1           0        7.545983   -4.368606   -3.887724
     32          1           0        5.380675   -3.348565   -3.486405
     33          1           0        5.144308   -4.315210   -2.110168
     34          1           0        5.127959   -6.287040   -3.426457
     35          1           0        5.704061   -5.410189   -4.912774
     36          1           0        3.335444   -5.889220   -5.028028
     37          1           0        3.386823   -4.195869   -4.731848
     38          1           0        1.853631   -5.494368   -3.311805
     39          1           0        3.214183   -5.830082   -2.341860
     40          1           0        2.650844   -4.279653   -2.721620
     41          7           0        7.200412   -0.959162   -2.255708
     42          6           0        7.048363    0.398728   -2.766116
     43          6           0        7.660966    1.428066   -1.838656
     44          8           0        7.783163    2.581958   -2.242883
     45          6           0        5.561801    0.645139   -2.974715
     46          6           0        4.697700    0.306695   -1.771725
     47          8           0        3.575642   -0.224573   -1.961566
     48          8           0        5.143498    0.412897   -0.615142
     49          1           0        6.885015   -1.077117   -1.305123
     50          1           0        7.569565    0.612203   -3.691792
     51          1           0        5.231932   -0.022848   -3.765841
     52          1           0        5.356170    1.697622   -3.196063
     53          7           0        8.095203    1.033013   -0.639543
     54          6           0        8.526889    1.956987    0.384185
     55          6           0        7.474360    2.797650    1.099424
     56          8           0        7.851138    3.686556    1.864202
     57          1           0        8.284230    0.050794   -0.530388
     58          1           0        9.318910    2.599460    0.007978
     59          1           0        8.926523    1.293743    1.159297
     60          7           0        6.186290    2.635357    0.773944
     61          6           0        5.070092    3.552278    0.823503
     62          6           0        3.882363    3.110472    1.684321
     63          8           0        3.504907    1.935912    1.639198
     64          6           0        4.716579    3.981738   -0.592404
     65          6           0        3.709963    5.125952   -0.669849
     66          7           0        4.133537    6.376133   -0.496840
     67          8           0        2.533087    4.819463   -0.807065
     68          1           0        5.924526    1.751010    0.362226
     69          1           0        5.465899    4.477384    1.215953
     70          1           0        4.305345    3.188021   -1.208683
     71          1           0        5.614998    4.342102   -1.095079
     72          1           0        5.123508    6.516545   -0.350408
     73          1           0        3.461067    7.128335   -0.438738
     74          7           0        3.329097    4.070139    2.418921
     75          6           0        2.331667    3.766475    3.421877
     76          6           0        0.844556    3.852997    3.120352
     77          8           0       -0.083329    3.693152    3.904494
     78          1           0        3.708344    4.997959    2.307468
     79          1           0        2.493180    4.438317    4.264398
     80          1           0        2.385188    2.783523    3.894677
     81          7           0        0.573107    4.255622    1.876042
     82          6           0       -0.725421    4.382829    1.249431
     83          6           0       -1.305315    3.052057    0.794165
     84          8           0       -0.499492    2.250306    0.334115
     85          6           0       -0.800986    5.554230    0.264184
     86          6           0       -2.121643    5.676571   -0.454006
     87          6           0       -2.241764    5.274075   -1.788198
     88          6           0       -3.205068    6.152719    0.292435
     89          6           0       -3.467404    5.499175   -2.416875
     90          6           0       -4.431785    6.352678   -0.355395
     91          6           0       -4.580430    6.002551   -1.714959
     92          8           0       -5.781945    6.143284   -2.343892
     93          1           0        1.343195    4.513225    1.270066
     94          1           0       -1.458033    4.623789    2.018598
     95          1           0        0.020733    5.425073   -0.437454
     96          1           0       -0.491257    6.370990    0.908134
     97          1           0       -1.355461    4.868745   -2.261457
     98          1           0       -2.971279    6.535475    1.264978
     99          1           0       -3.481223    5.211550   -3.464005
    100          1           0       -5.243396    6.799251    0.205730
    101          1           0       -6.361929    6.770257   -1.907288
    102          7           0       -2.539297    2.708760    1.157533
    103          6           0       -3.270637    1.505067    0.799812
    104          6           0       -3.592586    1.314328   -0.670483
    105          8           0       -2.741946    1.605146   -1.507344
    106          6           0       -2.696849    0.255430    1.473366
    107          6           0       -3.412762   -1.079651    1.339473
    108          6           0       -2.501437    0.529629    2.966527
    109          6           0       -2.438241   -2.249302    1.305910
    110          1           0       -3.077398    3.275999    1.790295
    111          1           0       -4.259684    1.664235    1.231265
    112          1           0       -1.720185    0.092783    1.021068
    113          1           0       -4.003589   -1.168792    0.424500
    114          1           0       -4.099973   -1.271573    2.173084
    115          1           0       -2.014690   -0.260992    3.538449
    116          1           0       -2.012572    1.474628    3.228422
    117          1           0       -3.523876    0.619038    3.319122
    118          1           0       -2.910004   -3.141674    1.720652
    119          1           0       -2.151829   -2.411981    0.265860
    120          1           0       -1.551894   -1.998821    1.898489
    121          7           0       -4.777003    0.727304   -0.861948
    122          6           0       -5.394370    0.411210   -2.140636
    123          6           0       -6.900110    0.586455   -2.186855
    124          8           0       -7.413843    0.678795   -3.302629
    125          6           0       -5.005067   -0.964574   -2.674829
    126          8           0       -5.397262   -1.955453   -1.748848
    127          1           0       -5.376604    0.549903   -0.073210
    128          1           0       -4.936172    1.153439   -2.790905
    129          1           0       -3.926593   -0.975782   -2.814716
    130          1           0       -5.460810   -1.144130   -3.640571
    131          1           0       -4.881134   -2.754472   -1.893351
    132          7           0       -7.619034    0.613336   -1.059102
    133          6           0       -9.034641    0.907534   -0.953247
    134          6           0       -9.901949    0.102960   -1.910816
    135          8           0      -10.730381    0.657638   -2.628961
    136          6           0       -9.349444    2.395159   -0.961679
    137          1           0       -7.128235    0.528164   -0.170754
    138          1           0       -9.395136    0.616558    0.033807
    139          1           0       -9.162053    2.898481   -1.914911
    140          1           0      -10.390562    2.574308   -0.694510
    141          1           0       -8.642383    2.829855   -0.240565
    142          7           0       -9.688324   -1.201908   -2.136613
    143          6           0       -8.900661   -2.210238   -1.457674
    144          6           0       -9.702224   -2.734607   -0.275204
    145          8           0      -10.888332   -3.038909   -0.440880
    146          6           0       -8.463542   -3.322146   -2.419281
    147          1           0      -10.285987   -1.619600   -2.839201
    148          1           0       -7.936564   -1.825276   -1.139994
    149          1           0       -9.293910   -3.597958   -3.060075
    150          1           0       -7.682234   -2.913091   -3.052394
    151          1           0       -8.191910   -4.275858   -1.965795
    152          7           0       -9.162434   -2.880216    0.929920
    153          6           0       -7.834079   -2.563499    1.426370
    154          6           0       -7.716217   -2.351816    2.932856
    155          8           0       -6.706608   -1.826242    3.387125
    156          6           0       -6.909525   -3.661872    0.926091
    157          6           0       -7.056039   -5.046234    1.555911
    158          6           0       -5.959773   -5.985290    1.061366
    159          8           0       -6.104254   -6.531699   -0.061649
    160          8           0       -4.934291   -6.247579    1.724006
    161          1           0       -9.851391   -3.240369    1.571970
    162          1           0       -7.526907   -1.622049    0.966895
    163          1           0       -5.897904   -3.363854    1.172482
    164          1           0       -6.986566   -3.768339   -0.156881
    165          1           0       -8.006805   -5.490326    1.278554
    166          1           0       -6.937870   -4.969476    2.633800
    167          7           0       -8.714966   -2.647021    3.757692
    168          6           0       -8.644050   -2.465151    5.196300
    169          1           0       -8.589010   -1.401123    5.425009
    170          1           0       -9.533966   -2.890056    5.661039
    171          1           0       -7.756369   -2.966327    5.583457
    172          1           0       -9.588858   -2.928814    3.330837
    173         20           0        2.752129   -0.272128    0.564729
    174          8           0        0.868229    0.261310    2.309597
    175          1           0        0.009498    0.610345    2.056310
    176          1           0        0.830321    0.223877    3.264198
 ---------------------------------------------------------------------

 SCF Done:  E(RB3LYP) =  -5333.42750402     A.U. after   38 cycles

 The electronic state is 1-A.
 Alpha  occ. eigenvalues -- -145.44023 -19.19954 -19.16913 -19.15798 -19.15069
 Alpha  occ. eigenvalues --  -19.13722 -19.13093 -19.11968 -19.11162 -19.10841
 Alpha  occ. eigenvalues --  -19.10840 -19.10838 -19.10748 -19.10363 -19.10125
 Alpha  occ. eigenvalues --  -19.10067 -19.09728 -19.08895 -19.08621 -19.07163
 Alpha  occ. eigenvalues --  -19.06892 -19.06883 -18.96994 -18.96705 -15.49872
 Alpha  occ. eigenvalues --  -14.56973 -14.41979 -14.39819 -14.39356 -14.37860
 Alpha  occ. eigenvalues --  -14.37731 -14.37563 -14.37113 -14.37007 -14.36542
 Alpha  occ. eigenvalues --  -14.35541 -14.35421 -14.35011 -14.34161 -14.32770
 Alpha  occ. eigenvalues --  -12.63479 -12.63449 -12.63399 -10.34634 -10.34050
 Alpha  occ. eigenvalues --  -10.32033 -10.31246 -10.30998 -10.30187 -10.29973
 Alpha  occ. eigenvalues --  -10.29754 -10.29692 -10.29589 -10.29210 -10.29020
 Alpha  occ. eigenvalues --  -10.28556 -10.28398 -10.27685 -10.27392 -10.27067
 Alpha  occ. eigenvalues --  -10.27016 -10.26929 -10.26603 -10.26443 -10.26118
 Alpha  occ. eigenvalues --  -10.25797 -10.25095 -10.24764 -10.24635 -10.24628
 Alpha  occ. eigenvalues --  -10.24483 -10.24467 -10.24109 -10.23627 -10.23499
 Alpha  occ. eigenvalues --  -10.22554 -10.22308 -10.22135 -10.21560 -10.20573
 Alpha  occ. eigenvalues --  -10.20530 -10.20489 -10.20435 -10.20275 -10.20023
 Alpha  occ. eigenvalues --  -10.19984 -10.19905 -10.19774 -10.19366 -10.18891
 Alpha  occ. eigenvalues --  -10.18041 -10.17689 -10.17583 -10.16822 -10.16516
 Alpha  occ. eigenvalues --  -10.15130 -10.11851  -1.86583  -1.14153  -1.13892
 Alpha  occ. eigenvalues --   -1.13638  -1.12665  -1.08083  -1.06800  -1.06176
 Alpha  occ. eigenvalues --   -1.05955  -1.05609  -1.05551  -1.05290  -1.04540
 Alpha  occ. eigenvalues --   -1.04108  -1.03867  -1.03159  -1.03140  -1.03103
 Alpha  occ. eigenvalues --   -1.02776  -1.02645  -1.02326  -1.02274  -1.00761
 Alpha  occ. eigenvalues --   -0.99908  -0.98181  -0.96895  -0.95405  -0.95035
 Alpha  occ. eigenvalues --   -0.94592  -0.94249  -0.94152  -0.93533  -0.93412
 Alpha  occ. eigenvalues --   -0.93317  -0.93038  -0.92173  -0.91788  -0.91737
 Alpha  occ. eigenvalues --   -0.91398  -0.90307  -0.89462  -0.89334  -0.86188
 Alpha  occ. eigenvalues --   -0.83630  -0.83053  -0.81988  -0.80704  -0.80486
 Alpha  occ. eigenvalues --   -0.80300  -0.79527  -0.79309  -0.77635  -0.77495
 Alpha  occ. eigenvalues --   -0.76908  -0.76386  -0.75481  -0.75118  -0.74779
 Alpha  occ. eigenvalues --   -0.74342  -0.73815  -0.73239  -0.73207  -0.71598
 Alpha  occ. eigenvalues --   -0.71481  -0.70857  -0.70356  -0.70044  -0.68255
 Alpha  occ. eigenvalues --   -0.67692  -0.67282  -0.67218  -0.66771  -0.65484
 Alpha  occ. eigenvalues --   -0.65078  -0.64944  -0.64385  -0.64366  -0.63409
 Alpha  occ. eigenvalues --   -0.63200  -0.62881  -0.62718  -0.61707  -0.61502
 Alpha  occ. eigenvalues --   -0.61225  -0.61086  -0.60929  -0.60716  -0.60467
 Alpha  occ. eigenvalues --   -0.59953  -0.59354  -0.59130  -0.59017  -0.58914
 Alpha  occ. eigenvalues --   -0.58636  -0.58470  -0.58457  -0.57551  -0.56584
 Alpha  occ. eigenvalues --   -0.56465  -0.56180  -0.55968  -0.55706  -0.55622
 Alpha  occ. eigenvalues --   -0.54621  -0.54426  -0.54105  -0.54047  -0.53916
 Alpha  occ. eigenvalues --   -0.53126  -0.52849  -0.52338  -0.52042  -0.51613
 Alpha  occ. eigenvalues --   -0.51366  -0.50904  -0.50851  -0.50695  -0.50619
 Alpha  occ. eigenvalues --   -0.50489  -0.50238  -0.50018  -0.49875  -0.49535
 Alpha  occ. eigenvalues --   -0.49304  -0.48590  -0.48211  -0.47966  -0.47794
 Alpha  occ. eigenvalues --   -0.47601  -0.47459  -0.47388  -0.47228  -0.47203
 Alpha  occ. eigenvalues --   -0.46940  -0.46903  -0.46825  -0.46716  -0.46508
 Alpha  occ. eigenvalues --   -0.46215  -0.46016  -0.45965  -0.45950  -0.45911
 Alpha  occ. eigenvalues --   -0.45623  -0.45258  -0.45131  -0.45026  -0.44882
 Alpha  occ. eigenvalues --   -0.44786  -0.44410  -0.44325  -0.44191  -0.43908
 Alpha  occ. eigenvalues --   -0.43632  -0.43520  -0.43510  -0.43274  -0.43115
 Alpha  occ. eigenvalues --   -0.42926  -0.42603  -0.42442  -0.42405  -0.42306
 Alpha  occ. eigenvalues --   -0.42222  -0.42053  -0.41868  -0.41784  -0.41645
 Alpha  occ. eigenvalues --   -0.41569  -0.41408  -0.41206  -0.41038  -0.40980
 Alpha  occ. eigenvalues --   -0.40886  -0.40602  -0.40572  -0.40389  -0.40213
 Alpha  occ. eigenvalues --   -0.39904  -0.39884  -0.39850  -0.39772  -0.39625
 Alpha  occ. eigenvalues --   -0.39470  -0.39322  -0.38954  -0.38874  -0.38818
 Alpha  occ. eigenvalues --   -0.38610  -0.38577  -0.38428  -0.38322  -0.38143
 Alpha  occ. eigenvalues --   -0.37989  -0.37666  -0.37546  -0.37491  -0.37148
 Alpha  occ. eigenvalues --   -0.36960  -0.36897  -0.36683  -0.36601  -0.36421
 Alpha  occ. eigenvalues --   -0.36110  -0.36006  -0.35912  -0.35806  -0.35480
 Alpha  occ. eigenvalues --   -0.35109  -0.34896  -0.34644  -0.34268  -0.33780
 Alpha  occ. eigenvalues --   -0.33647  -0.33559  -0.33446  -0.32945  -0.32655
 Alpha  occ. eigenvalues --   -0.31820  -0.31685  -0.31468  -0.31448  -0.31396
 Alpha  occ. eigenvalues --   -0.29997  -0.29494  -0.29252  -0.28988  -0.28940
 Alpha  occ. eigenvalues --   -0.28871  -0.28662  -0.28630  -0.28529  -0.28130
 Alpha  occ. eigenvalues --   -0.27802  -0.27772  -0.27742  -0.27305  -0.26978
 Alpha  occ. eigenvalues --   -0.26944  -0.26781  -0.26543  -0.26366  -0.26285
 Alpha  occ. eigenvalues --   -0.25811  -0.25805  -0.25685  -0.25469  -0.25341
 Alpha  occ. eigenvalues --   -0.25087  -0.25063  -0.24940  -0.24824  -0.24120
 Alpha  occ. eigenvalues --   -0.23382  -0.23199  -0.23131  -0.23000  -0.22177
 Alpha  occ. eigenvalues --   -0.14761  -0.14007  -0.11040
 Alpha virt. eigenvalues --   -0.09885  -0.06103  -0.04215  -0.03981  -0.03484
 Alpha virt. eigenvalues --   -0.02841  -0.02236  -0.01850  -0.01361  -0.01217
 Alpha virt. eigenvalues --   -0.01143  -0.00953  -0.00793  -0.00454  -0.00085

 Mulliken charges:
               1
     1  C    0.024033
     2  C    0.042432
     3  O   -0.290431
     4  H    0.024900
     5  H    0.031752
     6  H    0.039621
     7  N   -0.129604
     8  C    0.096607
     9  C    0.082988
    10  O   -0.291782
    11  C    0.090257
    12  C    0.123200
    13  O   -0.420641
    14  O   -0.446699
    15  H    0.121378
    16  H    0.000145
    17  H    0.010470
    18  H    0.006067
    19  N   -0.149626
    20  C    0.170686
    21  C    0.019751
    22  O   -0.275561
    23  C    0.058305
    24  C   -0.076526
    25  C   -0.000323
    26  C    0.030823
    27  N    0.129399
    28  H    0.144336
    29  H    0.036503
    30  H    0.021082
    31  H    0.028676
    32  H    0.023847
    33  H   -0.035426
    34  H    0.016742
    35  H    0.058566
    36  H    0.072756
    37  H    0.063929
    38  H    0.145407
    39  H    0.160670
    40  H    0.153011
    41  N   -0.148584
    42  C    0.151397
    43  C    0.029989
    44  O   -0.285126
    45  C    0.137016
    46  C    0.081804
    47  O   -0.446784
    48  O   -0.415948
    49  H    0.153740
    50  H    0.031092
    51  H    0.003023
    52  H    0.032732
    53  N   -0.165285
    54  C    0.202494
    55  C    0.031369
    56  O   -0.288607
    57  H    0.136917
    58  H    0.046457
    59  H    0.027392
    60  N   -0.136495
    61  C    0.106892
    62  C    0.183174
    63  O   -0.347733
    64  C    0.095104
    65  C   -0.055042
    66  N   -0.030307
    67  O   -0.255765
    68  H    0.159837
    69  H   -0.035111
    70  H    0.031065
    71  H    0.032167
    72  H    0.137172
    73  H    0.136242
    74  N   -0.131830
    75  C    0.203667
    76  C    0.006085
    77  O   -0.273997
    78  H    0.142573
    79  H    0.039504
    80  H    0.048813
    81  N   -0.130586
    82  C    0.120067
    83  C    0.110245
    84  O   -0.306788
    85  C    0.132176
    86  C   -0.072502
    87  C    0.027733
    88  C   -0.016175
    89  C   -0.019405
    90  C   -0.049074
    91  C    0.200711
    92  O   -0.200903
    93  H    0.126262
    94  H   -0.029187
    95  H    0.010255
    96  H   -0.010659
    97  H   -0.008122
    98  H   -0.025361
    99  H   -0.012976
   100  H   -0.038186
   101  H    0.178532
   102  N   -0.117194
   103  C    0.110872
   104  C    0.107559
   105  O   -0.252044
   106  C   -0.070014
   107  C   -0.037412
   108  C    0.023493
   109  C    0.013052
   110  H    0.134784
   111  H   -0.032361
   112  H   -0.028412
   113  H   -0.002729
   114  H    0.031582
   115  H    0.012740
   116  H    0.014606
   117  H    0.004662
   118  H    0.060224
   119  H   -0.014800
   120  H   -0.024730
   121  N   -0.154878
   122  C    0.101542
   123  C    0.089191
   124  O   -0.257767
   125  C    0.248533
   126  O   -0.301479
   127  H    0.128293
   128  H    0.034477
   129  H   -0.004371
   130  H    0.018783
   131  H    0.192199
   132  N   -0.146912
   133  C    0.033055
   134  C    0.066568
   135  O   -0.256945
   136  C    0.086938
   137  H    0.122313
   138  H    0.015299
   139  H    0.037117
   140  H    0.029065
   141  H   -0.025587
   142  N   -0.090930
   143  C    0.023007
   144  C    0.049437
   145  O   -0.290033
   146  C    0.056778
   147  H    0.129826
   148  H    0.008192
   149  H   -0.001444
   150  H    0.011988
   151  H    0.059048
   152  N   -0.112850
   153  C    0.152848
   154  C    0.043515
   155  O   -0.282783
   156  C    0.001062
   157  C    0.086127
   158  C    0.002842
   159  O   -0.380950
   160  O   -0.354309
   161  H    0.107248
   162  H   -0.030495
   163  H    0.004168
   164  H    0.004065
   165  H   -0.027138
   166  H   -0.030796
   167  N   -0.145034
   168  C    0.144124
   169  H    0.022111
   170  H    0.016830
   171  H    0.046033
   172  H    0.104769
   173  Ca   1.335243
   174  O   -0.330803
   175  H    0.204603
   176  H    0.205511
 Sum of Mulliken charges =  -0.00000

 Dipole moment (field-independent basis, Debye):
    X=             19.3601    Y=              8.3959    Z=             -3.0682  Tot=             21.3241
 Quadrupole moment (field-independent basis, Debye-Ang):
   XX=           -750.8167   YY=           -545.1937   ZZ=           -543.7523
   XY=           -147.3436   XZ=            -68.1160   YZ=             98.6731

 ESP charges:
               1
     1  C   -0.424590
     2  C    0.761433
     3  O   -0.600184
     4  H    0.103823
     5  H    0.117362
     6  H    0.119535
     7  N   -0.763142
     8  C    0.454243
     9  C    0.543567
    10  O   -0.525364
    11  C   -0.301531
    12  C    0.778104
    13  O   -0.733902
    14  O   -0.830412
    15  H    0.357330
    16  H    0.004821
    17  H    0.060434
    18  H    0.094850
    19  N   -0.526887
    20  C    0.120322
    21  C    0.443620
    22  O   -0.540019
    23  C   -0.367222
    24  C    0.366775
    25  C   -0.295716
    26  C    0.193583
    27  N   -0.418396
    28  H    0.313541
    29  H    0.111346
    30  H    0.119455
    31  H    0.106864
    32  H   -0.019388
    33  H   -0.084963
    34  H    0.054406
    35  H    0.131173
    36  H    0.048661
    37  H    0.043049
    38  H    0.297972
    39  H    0.342126
    40  H    0.282922
    41  N   -0.252609
    42  C    0.135531
    43  C    0.350283
    44  O   -0.519554
    45  C   -0.317726
    46  C    0.785049
    47  O   -0.773837
    48  O   -0.683286
    49  H    0.109873
    50  H    0.098466
    51  H    0.096554
    52  H    0.097578
    53  N   -0.040414
    54  C   -0.289467
    55  C    0.602664
    56  O   -0.568269
    57  H    0.132568
    58  H    0.140378
    59  H    0.118872
    60  N   -0.280390
    61  C    0.070144
    62  C    0.340271
    63  O   -0.466141
    64  C   -0.196836
    65  C    0.703197
    66  N   -0.838155
    67  O   -0.574846
    68  H    0.158506
    69  H    0.026066
    70  H    0.074575
    71  H    0.093337
    72  H    0.388906
    73  H    0.395741
    74  N   -0.231692
    75  C   -0.099886
    76  C    0.531522
    77  O   -0.562369
    78  H    0.261859
    79  H    0.094189
    80  H    0.113336
    81  N   -0.413150
    82  C    0.339818
    83  C    0.506390
    84  O   -0.548861
    85  C   -0.230864
    86  C    0.063154
    87  C   -0.167422
    88  C   -0.146261
    89  C   -0.236232
    90  C   -0.353349
    91  C    0.404455
    92  O   -0.549027
    93  H    0.185951
    94  H   -0.033245
    95  H    0.086238
    96  H    0.060120
    97  H    0.165101
    98  H    0.134361
    99  H    0.156260
   100  H    0.157434
   101  H    0.408984
   102  N   -0.327270
   103  C   -0.326886
   104  C    0.649574
   105  O   -0.491943
   106  C   -0.054473
   107  C    0.403223
   108  C   -0.236289
   109  C   -0.335998
   110  H    0.285737
   111  H    0.149618
   112  H    0.079269
   113  H   -0.048662
   114  H   -0.036407
   115  H    0.066500
   116  H    0.059420
   117  H    0.068882
   118  H    0.116138
   119  H    0.038798
   120  H    0.024298
   121  N   -0.295129
   122  C   -0.302169
   123  C    0.705274
   124  O   -0.513635
   125  C    0.135979
   126  O   -0.535458
   127  H    0.097168
   128  H    0.153416
   129  H    0.054331
   130  H    0.044902
   131  H    0.399630
   132  N   -0.521427
   133  C    0.221206
   134  C    0.518250
   135  O   -0.521771
   136  C   -0.333770
   137  H    0.344238
   138  H    0.035724
   139  H    0.119814
   140  H    0.103683
   141  H    0.054153
   142  N   -0.632628
   143  C    0.451462
   144  C    0.403423
   145  O   -0.557251
   146  C   -0.348986
   147  H    0.333561
   148  H    0.143420
   149  H    0.073837
   150  H    0.076666
   151  H    0.135698
   152  N   -0.266220
   153  C   -0.799371
   154  C    0.856600
   155  O   -0.581575
   156  C    0.713687
   157  C   -0.354884
   158  C    0.750734
   159  O   -0.684706
   160  O   -0.677426
   161  H    0.233032
   162  H    0.149015
   163  H   -0.143035
   164  H   -0.218426
   165  H    0.062121
   166  H    0.038012
   167  N   -0.417266
   168  C   -0.221570
   169  H    0.097043
   170  H    0.117167
   171  H    0.125663
   172  H    0.313927
   173  Ca   1.630847
   174  O   -0.893428
   175  H    0.421729
   176  H    0.467747
 Sum of ESP charges =   0.00000

 Normal termination of Gaussian 16 at Wed Sep 18 11:21:29 2019.
