 Gaussian 16, Revision A.03,
 Gaussian 16:  ES64L-G16RevA.03 25-Dec-2016

 ----------------------------------------------------------------------
 #b3lyp/svp scf=(tight,noincore) Test #IOP(5/87=12) Density=Current Pop
 =(MK,readradii) iop(6/33=2) iop(6/42=6)
 ----------------------------------------------------------------------

 -----------------
 Ng-293_loop3_54.0
 -----------------
 Symbolic Z-matrix:
 Charge =  0 Multiplicity = 1

                         Standard orientation:
 ---------------------------------------------------------------------
 Center     Atomic      Atomic             Coordinates (Angstroms)
 Number     Number       Type             X           Y           Z
 ---------------------------------------------------------------------
      1          6           0        9.610194   -0.281260    6.171607
      2          6           0        9.816690    0.295869    4.777482
      3          8           0       10.757185   -0.016985    4.055130
      4          1           0        8.921405    0.353364    6.728915
      5          1           0        9.194220   -1.285015    6.092042
      6          1           0       10.566538   -0.324302    6.693073
      7          7           0        8.804767    0.976411    4.223158
      8          6           0        8.704437    1.702202    2.973453
      9          6           0        8.844161    0.817414    1.738209
     10          8           0        8.346660   -0.301229    1.749663
     11          6           0        7.389368    2.476569    2.998956
     12          6           0        7.055588    3.337625    1.790538
     13          8           0        5.963719    3.940297    1.787707
     14          8           0        7.800594    3.524899    0.806926
     15          1           0        8.108240    1.181294    4.927553
     16          1           0        9.524273    2.412776    2.934063
     17          1           0        7.424941    3.138970    3.870999
     18          1           0        6.581733    1.833421    3.361153
     19          7           0        9.590790    1.320539    0.748659
     20          6           0        9.981674    0.796955   -0.538070
     21          6           0        8.871247    0.275152   -1.432929
     22          8           0        9.091431   -0.405846   -2.432809
     23          6           0       11.066668   -0.276725   -0.413981
     24          6           0       12.431529    0.023839    0.183528
     25          6           0       13.646130   -0.884770   -0.021099
     26          6           0       14.961888   -0.151045    0.211773
     27          7           0       15.051820    0.366618    1.584411
     28          1           0        9.836481    2.295250    0.843390
     29          1           0       10.324729    1.683247   -1.078163
     30          1           0       11.205745   -0.810975   -1.343247
     31          1           0       10.645604   -1.025428    0.266055
     32          1           0       12.299123    0.178254    1.254147
     33          1           0       12.693279    0.992975   -0.249672
     34          1           0       13.700311   -1.469421   -0.943133
     35          1           0       13.618670   -1.627699    0.770484
     36          1           0       15.159117    0.738315   -0.373324
     37          1           0       15.829454   -0.801095    0.058262
     38          1           0       14.323397    1.057487    1.623148
     39          1           0       14.995128   -0.352320    2.296811
     40          1           0       15.935091    0.822850    1.775424
     41          7           0        7.620897    0.574233   -1.056265
     42          6           0        6.406156    0.228581   -1.754427
     43          6           0        5.219177    1.133296   -1.446254
     44          8           0        4.997736    1.503907   -0.301260
     45          6           0        5.992462   -1.208488   -1.429634
     46          6           0        4.888353   -1.779643   -2.303891
     47          8           0        3.710123   -1.804346   -1.885246
     48          8           0        5.201250   -2.245976   -3.429560
     49          1           0        7.464935    1.123240   -0.222378
     50          1           0        6.558144    0.373433   -2.832535
     51          1           0        5.669687   -1.322672   -0.400422
     52          1           0        6.916961   -1.756778   -1.560705
     53          7           0        4.365929    1.429101   -2.432087
     54          6           0        3.196714    2.288036   -2.331251
     55          6           0        1.927144    1.442525   -2.316998
     56          8           0        1.764304    0.507328   -3.099678
     57          1           0        4.569606    1.104271   -3.369744
     58          1           0        3.129149    2.913102   -3.220705
     59          1           0        3.276381    2.919023   -1.450906
     60          7           0        0.937726    1.847080   -1.529859
     61          6           0       -0.354995    1.206243   -1.328862
     62          6           0       -1.430597    2.267040   -1.142072
     63          8           0       -2.565991    1.801978   -1.063352
     64          6           0       -0.210626    0.273765   -0.131514
     65          6           0        0.863853   -0.792503   -0.272820
     66          7           0        1.882806   -0.678900    0.575076
     67          8           0        0.983546   -1.562115   -1.230876
     68          1           0        1.134166    2.677938   -0.983153
     69          1           0       -0.632926    0.631716   -2.207311
     70          1           0       -1.108204   -0.308355    0.084103
     71          1           0       -0.095260    0.888016    0.760891
     72          1           0        1.962990    0.048865    1.264807
     73          1           0        2.587512   -1.367729    0.368908
     74          7           0       -1.208563    3.587037   -1.144900
     75          6           0       -2.200416    4.639836   -1.192251
     76          6           0       -3.388415    4.483719   -0.255402
     77          8           0       -3.272026    4.435168    0.966235
     78          1           0       -0.253799    3.891127   -1.078153
     79          1           0       -2.561070    4.683146   -2.220479
     80          1           0       -1.740769    5.610897   -1.031117
     81          7           0       -4.628156    4.459606   -0.748412
     82          6           0       -5.901563    4.225727   -0.097847
     83          6           0       -5.909939    2.887426    0.640179
     84          8           0       -6.715683    2.649554    1.526065
     85          6           0       -6.254353    5.419088    0.786704
     86          6           0       -6.419526    6.715045    0.039300
     87          6           0       -5.347194    7.607889   -0.121434
     88          6           0       -7.656352    6.988523   -0.571741
     89          6           0       -5.595069    8.822380   -0.761957
     90          6           0       -7.926922    8.161219   -1.286007
     91          6           0       -6.826798    9.026436   -1.409804
     92          8           0       -7.018671   10.233146   -2.027894
     93          1           0       -4.679494    4.401691   -1.754797
     94          1           0       -6.720956    4.170669   -0.808455
     95          1           0       -5.405381    5.570666    1.452490
     96          1           0       -7.124956    5.183612    1.411845
     97          1           0       -4.392497    7.499316    0.359570
     98          1           0       -8.400179    6.200620   -0.566159
     99          1           0       -4.854170    9.595711   -0.903477
    100          1           0       -8.871122    8.377424   -1.764799
    101          1           0       -7.902605   10.277207   -2.418175
    102          7           0       -5.114248    1.914841    0.202055
    103          6           0       -5.141828    0.520128    0.611829
    104          6           0       -6.402484   -0.208574    0.189647
    105          8           0       -6.316016   -1.284667   -0.390566
    106          6           0       -4.740869    0.346811    2.078319
    107          6           0       -3.380461    0.950516    2.413177
    108          6           0       -4.786387   -1.111655    2.510762
    109          6           0       -3.150470    1.247884    3.894689
    110          1           0       -4.536079    2.103520   -0.600828
    111          1           0       -4.367471   -0.001293    0.066952
    112          1           0       -5.486679    0.805905    2.717538
    113          1           0       -3.314319    1.866553    1.830251
    114          1           0       -2.533734    0.309779    2.176726
    115          1           0       -5.823509   -1.411410    2.668956
    116          1           0       -4.383649   -1.688321    1.670847
    117          1           0       -4.148556   -1.327109    3.366830
    118          1           0       -3.878601    1.982547    4.242103
    119          1           0       -3.204874    0.379213    4.558354
    120          1           0       -2.197261    1.747343    4.046458
    121          7           0       -7.606589    0.188702    0.632030
    122          6           0       -8.942397   -0.314802    0.413166
    123          6           0       -9.105725   -1.680992    1.073657
    124          8           0       -9.922851   -2.424411    0.528741
    125          6           0       -9.932867    0.630210    1.082808
    126          8           0       -9.850043    2.017135    0.880127
    127          1           0       -7.608463    1.068721    1.129186
    128          1           0       -9.100620   -0.506913   -0.653773
    129          1           0       -9.707232    0.527793    2.146763
    130          1           0      -10.930827    0.211464    0.968225
    131          1           0      -10.418329    2.443679    1.537401
    132          7           0       -8.335934   -2.023562    2.108967
    133          6           0       -8.123178   -3.365551    2.610166
    134          6           0       -7.665527   -4.417383    1.619911
    135          8           0       -8.129794   -5.547271    1.749555
    136          6           0       -9.326847   -3.654815    3.499832
    137          1           0       -7.920977   -1.247507    2.612702
    138          1           0       -7.265812   -3.228651    3.272195
    139          1           0       -9.562079   -2.792906    4.131955
    140          1           0      -10.171844   -3.881285    2.842724
    141          1           0       -9.244431   -4.588545    4.057915
    142          7           0       -6.827690   -4.081182    0.634518
    143          6           0       -6.326625   -5.034791   -0.323063
    144          6           0       -4.807889   -4.936332   -0.295709
    145          8           0       -4.151423   -4.094783    0.305413
    146          6           0       -6.819887   -4.612385   -1.717898
    147          1           0       -6.563501   -3.106615    0.558200
    148          1           0       -6.686569   -6.039591   -0.129626
    149          1           0       -7.901893   -4.517376   -1.658432
    150          1           0       -6.350380   -3.663285   -1.981287
    151          1           0       -6.589921   -5.346432   -2.488670
    152          7           0       -4.191088   -5.918335   -0.963637
    153          6           0       -2.781934   -6.268095   -0.893968
    154          6           0       -2.286871   -6.814667    0.431012
    155          8           0       -1.096055   -6.832118    0.737531
    156          6           0       -1.867694   -5.198598   -1.485864
    157          6           0       -0.647003   -5.822400   -2.150759
    158          6           0        0.340295   -4.799173   -2.691453
    159          8           0        0.027712   -4.109938   -3.686966
    160          8           0        1.442023   -4.642434   -2.119940
    161          1           0       -4.841442   -6.456855   -1.510568
    162          1           0       -2.731278   -7.093739   -1.601037
    163          1           0       -1.494933   -4.535405   -0.715329
    164          1           0       -2.400654   -4.540376   -2.187146
    165          1           0       -0.910569   -6.581466   -2.888357
    166          1           0       -0.084367   -6.369504   -1.391406
    167          7           0       -3.213189   -7.166542    1.333186
    168          6           0       -3.031346   -7.610035    2.700207
    169          1           0       -3.818221   -7.189297    3.325663
    170          1           0       -3.079576   -8.698174    2.739174
    171          1           0       -2.059902   -7.275982    3.065138
    172          1           0       -4.151439   -7.039861    0.977885
    173         20           0        1.896581   -2.358451   -3.612622
    174          8           0        3.023500   -1.066094   -5.478410
    175          1           0        2.900282   -0.115623   -5.527617
    176          1           0        3.613636   -1.262768   -6.213026
 ---------------------------------------------------------------------

 SCF Done:  E(RB3LYP) =  -5333.43169360     A.U. after   23 cycles

 The electronic state is 1-A.
 Alpha  occ. eigenvalues -- -145.37649 -19.18895 -19.16190 -19.13524 -19.13147
 Alpha  occ. eigenvalues --  -19.12583 -19.10875 -19.09759 -19.08925 -19.08802
 Alpha  occ. eigenvalues --  -19.08201 -19.07888 -19.07183 -19.06654 -19.06370
 Alpha  occ. eigenvalues --  -19.06142 -19.05774 -19.05703 -19.02792 -19.01997
 Alpha  occ. eigenvalues --  -19.01273 -19.00379 -18.96894 -18.94837 -15.43540
 Alpha  occ. eigenvalues --  -14.56853 -14.40390 -14.38837 -14.37555 -14.34611
 Alpha  occ. eigenvalues --  -14.34554 -14.34286 -14.33741 -14.33410 -14.33395
 Alpha  occ. eigenvalues --  -14.32711 -14.32295 -14.32178 -14.32047 -14.30908
 Alpha  occ. eigenvalues --  -12.57168 -12.57107 -12.57049 -10.34347 -10.32306
 Alpha  occ. eigenvalues --  -10.31060 -10.30664 -10.28466 -10.28266 -10.27461
 Alpha  occ. eigenvalues --  -10.27344 -10.26930 -10.26889 -10.26842 -10.26339
 Alpha  occ. eigenvalues --  -10.26086 -10.25855 -10.25332 -10.25227 -10.25115
 Alpha  occ. eigenvalues --  -10.24948 -10.24909 -10.24580 -10.24252 -10.23949
 Alpha  occ. eigenvalues --  -10.23120 -10.22804 -10.22479 -10.22070 -10.22054
 Alpha  occ. eigenvalues --  -10.21549 -10.21006 -10.20916 -10.20737 -10.20313
 Alpha  occ. eigenvalues --  -10.19920 -10.19704 -10.19684 -10.19640 -10.19615
 Alpha  occ. eigenvalues --  -10.19595 -10.19327 -10.18978 -10.18817 -10.18718
 Alpha  occ. eigenvalues --  -10.18492 -10.17198 -10.16811 -10.16536 -10.15989
 Alpha  occ. eigenvalues --  -10.15984 -10.15816 -10.15564 -10.14193 -10.13432
 Alpha  occ. eigenvalues --  -10.12514 -10.11950  -1.80335  -1.12626  -1.08018
 Alpha  occ. eigenvalues --   -1.07778  -1.07370  -1.06794  -1.05472  -1.04782
 Alpha  occ. eigenvalues --   -1.04666  -1.04436  -1.03547  -1.02335  -1.01583
 Alpha  occ. eigenvalues --   -1.01491  -1.01306  -1.00963  -1.00489  -1.00080
 Alpha  occ. eigenvalues --   -0.99593  -0.99267  -0.98780  -0.98339  -0.96866
 Alpha  occ. eigenvalues --   -0.96704  -0.95630  -0.95113  -0.94137  -0.91903
 Alpha  occ. eigenvalues --   -0.91508  -0.91411  -0.90779  -0.90489  -0.90280
 Alpha  occ. eigenvalues --   -0.89937  -0.89318  -0.89182  -0.88474  -0.88056
 Alpha  occ. eigenvalues --   -0.87843  -0.87519  -0.86307  -0.85336  -0.85274
 Alpha  occ. eigenvalues --   -0.81350  -0.80500  -0.80431  -0.80069  -0.79487
 Alpha  occ. eigenvalues --   -0.77627  -0.76881  -0.76856  -0.76279  -0.75080
 Alpha  occ. eigenvalues --   -0.75071  -0.74762  -0.74368  -0.73769  -0.73340
 Alpha  occ. eigenvalues --   -0.73063  -0.72220  -0.72062  -0.70827  -0.70077
 Alpha  occ. eigenvalues --   -0.70026  -0.69421  -0.68997  -0.68031  -0.66529
 Alpha  occ. eigenvalues --   -0.66144  -0.64984  -0.64306  -0.63795  -0.63033
 Alpha  occ. eigenvalues --   -0.62779  -0.62599  -0.62298  -0.62142  -0.61600
 Alpha  occ. eigenvalues --   -0.60987  -0.60755  -0.59827  -0.59755  -0.59544
 Alpha  occ. eigenvalues --   -0.58839  -0.58040  -0.57739  -0.57735  -0.57635
 Alpha  occ. eigenvalues --   -0.57504  -0.57338  -0.56762  -0.56076  -0.55980
 Alpha  occ. eigenvalues --   -0.55824  -0.55367  -0.54842  -0.54551  -0.54318
 Alpha  occ. eigenvalues --   -0.54281  -0.54185  -0.53998  -0.53591  -0.53376
 Alpha  occ. eigenvalues --   -0.53000  -0.52580  -0.52156  -0.51673  -0.51459
 Alpha  occ. eigenvalues --   -0.51406  -0.51355  -0.50841  -0.50016  -0.49852
 Alpha  occ. eigenvalues --   -0.49754  -0.49295  -0.49094  -0.48789  -0.47831
 Alpha  occ. eigenvalues --   -0.47666  -0.47374  -0.47289  -0.47227  -0.46979
 Alpha  occ. eigenvalues --   -0.46552  -0.46506  -0.46334  -0.46192  -0.46022
 Alpha  occ. eigenvalues --   -0.45797  -0.45617  -0.45378  -0.45093  -0.44653
 Alpha  occ. eigenvalues --   -0.44588  -0.44507  -0.44427  -0.44274  -0.44062
 Alpha  occ. eigenvalues --   -0.43857  -0.43708  -0.43684  -0.43464  -0.43358
 Alpha  occ. eigenvalues --   -0.43182  -0.43138  -0.42984  -0.42597  -0.42579
 Alpha  occ. eigenvalues --   -0.42431  -0.42170  -0.42015  -0.41965  -0.41655
 Alpha  occ. eigenvalues --   -0.41484  -0.41426  -0.41282  -0.40988  -0.40784
 Alpha  occ. eigenvalues --   -0.40460  -0.40351  -0.40275  -0.40094  -0.39762
 Alpha  occ. eigenvalues --   -0.39680  -0.39611  -0.39420  -0.39309  -0.39261
 Alpha  occ. eigenvalues --   -0.38963  -0.38796  -0.38585  -0.38492  -0.38245
 Alpha  occ. eigenvalues --   -0.38153  -0.38079  -0.38008  -0.37707  -0.37570
 Alpha  occ. eigenvalues --   -0.37502  -0.37428  -0.37121  -0.37088  -0.37020
 Alpha  occ. eigenvalues --   -0.36914  -0.36776  -0.36533  -0.36292  -0.36179
 Alpha  occ. eigenvalues --   -0.36101  -0.35980  -0.35653  -0.35622  -0.35266
 Alpha  occ. eigenvalues --   -0.35243  -0.35138  -0.35100  -0.34964  -0.34801
 Alpha  occ. eigenvalues --   -0.34494  -0.34404  -0.34244  -0.34022  -0.34006
 Alpha  occ. eigenvalues --   -0.33706  -0.33677  -0.33269  -0.33093  -0.33052
 Alpha  occ. eigenvalues --   -0.32871  -0.32844  -0.32563  -0.32025  -0.31918
 Alpha  occ. eigenvalues --   -0.31030  -0.30873  -0.30788  -0.30545  -0.30357
 Alpha  occ. eigenvalues --   -0.30089  -0.30035  -0.28802  -0.28777  -0.28749
 Alpha  occ. eigenvalues --   -0.28210  -0.27815  -0.27626  -0.27043  -0.26605
 Alpha  occ. eigenvalues --   -0.26587  -0.26426  -0.26323  -0.25761  -0.25445
 Alpha  occ. eigenvalues --   -0.25144  -0.25009  -0.24823  -0.24406  -0.24024
 Alpha  occ. eigenvalues --   -0.23966  -0.23707  -0.23599  -0.23263  -0.22888
 Alpha  occ. eigenvalues --   -0.22821  -0.22672  -0.22513  -0.22360  -0.22341
 Alpha  occ. eigenvalues --   -0.21903  -0.21650  -0.21441  -0.20702  -0.20357
 Alpha  occ. eigenvalues --   -0.19559  -0.19487  -0.18599  -0.17382  -0.16279
 Alpha  occ. eigenvalues --   -0.15056  -0.13284  -0.10516
 Alpha virt. eigenvalues --   -0.09233  -0.03603  -0.02529  -0.02203  -0.02190
 Alpha virt. eigenvalues --   -0.02059  -0.01535  -0.00435  -0.00362  -0.00012
 Alpha virt. eigenvalues --    0.00529   0.00872   0.01942   0.02229   0.02570

 Mulliken charges:
               1
     1  C    0.051230
     2  C    0.005383
     3  O   -0.326172
     4  H    0.004073
     5  H    0.058206
     6  H    0.015637
     7  N   -0.084972
     8  C    0.144255
     9  C    0.073082
    10  O   -0.269746
    11  C    0.001958
    12  C    0.059406
    13  O   -0.373067
    14  O   -0.394370
    15  H    0.103255
    16  H   -0.042517
    17  H   -0.013550
    18  H   -0.002220
    19  N   -0.117712
    20  C    0.131448
    21  C    0.053198
    22  O   -0.290471
    23  C    0.059366
    24  C   -0.049213
    25  C    0.043149
    26  C    0.012632
    27  N    0.077072
    28  H    0.102934
    29  H    0.009915
    30  H    0.012486
    31  H    0.027695
    32  H    0.020418
    33  H   -0.018171
    34  H    0.057882
    35  H    0.022114
    36  H    0.056226
    37  H    0.057064
    38  H    0.185420
    39  H    0.184389
    40  H    0.165158
    41  N   -0.102206
    42  C    0.080646
    43  C    0.070667
    44  O   -0.253334
    45  C    0.185673
    46  C    0.061543
    47  O   -0.450398
    48  O   -0.405206
    49  H    0.152574
    50  H   -0.020610
    51  H   -0.003041
    52  H    0.005984
    53  N   -0.131631
    54  C    0.202932
    55  C    0.094122
    56  O   -0.346736
    57  H    0.112701
    58  H    0.020497
    59  H    0.041780
    60  N   -0.158031
    61  C    0.137136
    62  C    0.080714
    63  O   -0.293742
    64  C    0.072173
    65  C    0.080008
    66  N   -0.034894
    67  O   -0.316950
    68  H    0.123114
    69  H    0.044257
    70  H    0.068062
    71  H   -0.010045
    72  H    0.126645
    73  H    0.161697
    74  N   -0.107292
    75  C    0.226705
    76  C    0.034972
    77  O   -0.268078
    78  H    0.110234
    79  H    0.000597
    80  H    0.045250
    81  N   -0.121810
    82  C    0.103762
    83  C    0.106583
    84  O   -0.300726
    85  C    0.138540
    86  C   -0.040151
    87  C   -0.007472
    88  C   -0.015438
    89  C   -0.005602
    90  C   -0.020863
    91  C    0.128173
    92  O   -0.209773
    93  H    0.114811
    94  H    0.023997
    95  H    0.009133
    96  H    0.019472
    97  H   -0.018050
    98  H   -0.023239
    99  H   -0.020915
   100  H   -0.036350
   101  H    0.172591
   102  N   -0.105521
   103  C    0.177370
   104  C    0.052171
   105  O   -0.281490
   106  C   -0.114953
   107  C    0.017460
   108  C    0.078332
   109  C    0.021225
   110  H    0.117195
   111  H    0.004935
   112  H   -0.012936
   113  H    0.013382
   114  H   -0.017370
   115  H   -0.043214
   116  H    0.034646
   117  H    0.004889
   118  H    0.003106
   119  H    0.005571
   120  H   -0.000650
   121  N   -0.137209
   122  C    0.096222
   123  C    0.029970
   124  O   -0.269623
   125  C    0.235933
   126  O   -0.299644
   127  H    0.139722
   128  H    0.025097
   129  H   -0.038231
   130  H    0.013152
   131  H    0.178003
   132  N   -0.147409
   133  C    0.074848
   134  C    0.063376
   135  O   -0.281053
   136  C    0.083542
   137  H    0.133056
   138  H    0.020723
   139  H   -0.008644
   140  H    0.028907
   141  H    0.010436
   142  N   -0.127734
   143  C    0.060974
   144  C    0.045507
   145  O   -0.244241
   146  C    0.056014
   147  H    0.154317
   148  H    0.018579
   149  H    0.037359
   150  H    0.032738
   151  H   -0.006841
   152  N   -0.145705
   153  C    0.134675
   154  C    0.043274
   155  O   -0.257030
   156  C    0.061810
   157  C    0.086918
   158  C    0.088103
   159  O   -0.487974
   160  O   -0.377032
   161  H    0.107884
   162  H   -0.004603
   163  H    0.016701
   164  H   -0.004240
   165  H   -0.031904
   166  H    0.016645
   167  N   -0.147509
   168  C    0.137057
   169  H    0.020137
   170  H    0.017799
   171  H    0.042656
   172  H    0.103468
   173  Ca   1.328279
   174  O   -0.306444
   175  H    0.180963
   176  H    0.196045
 Sum of Mulliken charges =  -0.00000

 Dipole moment (field-independent basis, Debye):
    X=             27.4032    Y=             12.1950    Z=             -3.5300  Tot=             30.2012
 Quadrupole moment (field-independent basis, Debye-Ang):
   XX=             46.6061   YY=           -620.6373   ZZ=           -485.5270
   XY=            -54.0938   XZ=             72.5681   YZ=            -46.2176

 ESP charges:
               1
     1  C   -0.418739
     2  C    0.679198
     3  O   -0.611639
     4  H    0.084687
     5  H    0.151941
     6  H    0.104539
     7  N   -0.555492
     8  C    0.122791
     9  C    0.801460
    10  O   -0.563257
    11  C   -0.406510
    12  C    0.730650
    13  O   -0.685629
    14  O   -0.693582
    15  H    0.308163
    16  H    0.017049
    17  H    0.105737
    18  H    0.103682
    19  N   -0.720799
    20  C    0.127828
    21  C    0.447420
    22  O   -0.518682
    23  C   -0.310415
    24  C    0.337080
    25  C   -0.309487
    26  C    0.111851
    27  N   -0.259100
    28  H    0.317109
    29  H    0.095733
    30  H    0.069061
    31  H    0.141233
    32  H   -0.046474
    33  H   -0.050349
    34  H    0.130714
    35  H    0.088961
    36  H    0.058060
    37  H    0.053774
    38  H    0.264953
    39  H    0.305923
    40  H    0.282375
    41  N   -0.250738
    42  C   -0.144117
    43  C    0.544762
    44  O   -0.452785
    45  C   -0.105876
    46  C    0.630552
    47  O   -0.714702
    48  O   -0.691449
    49  H    0.244598
    50  H    0.075349
    51  H    0.052584
    52  H    0.099011
    53  N   -0.353993
    54  C   -0.108660
    55  C    0.683716
    56  O   -0.547427
    57  H    0.260246
    58  H    0.071626
    59  H    0.108722
    60  N   -0.782058
    61  C    0.282456
    62  C    0.484710
    63  O   -0.520326
    64  C   -0.356786
    65  C    0.843407
    66  N   -0.835105
    67  O   -0.669014
    68  H    0.363262
    69  H    0.078936
    70  H    0.087440
    71  H    0.101055
    72  H    0.387630
    73  H    0.426764
    74  N   -0.352852
    75  C   -0.107646
    76  C    0.565178
    77  O   -0.504957
    78  H    0.272989
    79  H    0.067941
    80  H    0.132312
    81  N   -0.582514
    82  C    0.189125
    83  C    0.606540
    84  O   -0.549153
    85  C   -0.307804
    86  C    0.264458
    87  C   -0.374564
    88  C   -0.233572
    89  C   -0.083568
    90  C   -0.225619
    91  C    0.250735
    92  O   -0.537095
    93  H    0.309272
    94  H    0.055893
    95  H    0.135217
    96  H    0.088830
    97  H    0.195040
    98  H    0.149747
    99  H    0.127864
   100  H    0.139280
   101  H    0.405424
   102  N   -0.742450
   103  C    0.172946
   104  C    0.479986
   105  O   -0.541271
   106  C    0.541221
   107  C    0.003232
   108  C   -0.621105
   109  C   -0.179828
   110  H    0.372458
   111  H    0.014935
   112  H   -0.094364
   113  H    0.017491
   114  H    0.001092
   115  H    0.113039
   116  H    0.111647
   117  H    0.160655
   118  H    0.037842
   119  H    0.024346
   120  H    0.047243
   121  N   -0.309202
   122  C    0.123969
   123  C    0.318780
   124  O   -0.493340
   125  C    0.230189
   126  O   -0.622152
   127  H    0.226068
   128  H    0.062441
   129  H   -0.025172
   130  H    0.008031
   131  H    0.412997
   132  N   -0.282678
   133  C    0.300809
   134  C    0.427012
   135  O   -0.524947
   136  C   -0.330384
   137  H    0.206427
   138  H   -0.002392
   139  H    0.067634
   140  H    0.110549
   141  H    0.075870
   142  N   -0.496710
   143  C    0.599882
   144  C    0.326677
   145  O   -0.478553
   146  C   -0.404458
   147  H    0.224333
   148  H   -0.055640
   149  H    0.124266
   150  H    0.121930
   151  H    0.055274
   152  N   -0.399106
   153  C   -0.037078
   154  C    0.350447
   155  O   -0.463088
   156  C    0.121107
   157  C   -0.092732
   158  C    0.674878
   159  O   -0.801619
   160  O   -0.688368
   161  H    0.250708
   162  H    0.080033
   163  H    0.054403
   164  H   -0.001188
   165  H    0.012024
   166  H    0.022918
   167  N   -0.158113
   168  C   -0.054437
   169  H    0.063290
   170  H    0.034198
   171  H    0.076849
   172  H    0.140365
   173  Ca   1.603602
   174  O   -0.840676
   175  H    0.401332
   176  H    0.451515
 Sum of ESP charges =  -0.00000

 Normal termination of Gaussian 16 at Tue Sep 17 11:36:29 2019.
