 Gaussian 16, Revision A.03,
 Gaussian 16:  ES64L-G16RevA.03 25-Dec-2016

 ----------------------------------------------------------------------
 #b3lyp/svp scf=(tight,noincore) Test #IOP(5/87=12) Density=Current Pop
 =(MK,readradii) iop(6/33=2) iop(6/42=6)
 ----------------------------------------------------------------------

 -----------------
 Ng-293_loop3_74.0
 -----------------
 Symbolic Z-matrix:
 Charge =  0 Multiplicity = 1

                         Standard orientation:
 ---------------------------------------------------------------------
 Center     Atomic      Atomic             Coordinates (Angstroms)
 Number     Number       Type             X           Y           Z
 ---------------------------------------------------------------------
      1          6           0        4.780876   -3.883719    5.835126
      2          6           0        4.845186   -3.124335    4.515542
      3          8           0        4.099152   -3.432214    3.587995
      4          1           0        4.501466   -4.920054    5.644251
      5          1           0        5.756507   -3.854446    6.319310
      6          1           0        4.038128   -3.421080    6.485485
      7          7           0        5.720278   -2.125307    4.313905
      8          6           0        6.045339   -1.465275    3.073303
      9          6           0        6.721093   -2.327788    2.012347
     10          8           0        7.805262   -1.949459    1.566539
     11          6           0        4.829995   -0.738122    2.521863
     12          6           0        4.044900    0.118043    3.505331
     13          8           0        2.936698    0.549577    3.108259
     14          8           0        4.477844    0.328878    4.665808
     15          1           0        6.289179   -1.873416    5.108828
     16          1           0        6.721815   -0.641721    3.290188
     17          1           0        4.193118   -1.441409    1.981145
     18          1           0        5.180451   -0.112430    1.699921
     19          7           0        6.162386   -3.486205    1.643812
     20          6           0        6.509085   -4.418790    0.593486
     21          6           0        6.460335   -3.870976   -0.822821
     22          8           0        6.738693   -4.574002   -1.798102
     23          6           0        5.664221   -5.682509    0.691561
     24          6           0        4.243948   -5.636920    0.131522
     25          6           0        3.305568   -4.614360    0.778217
     26          6           0        2.082715   -4.578524   -0.131865
     27          7           0        1.277049   -3.367999    0.095359
     28          1           0        5.285026   -3.627401    2.124232
     29          1           0        7.576189   -4.606288    0.734320
     30          1           0        5.676403   -6.094642    1.691510
     31          1           0        6.166889   -6.460659    0.115707
     32          1           0        3.893706   -6.621671    0.427655
     33          1           0        4.221848   -5.547646   -0.951871
     34          1           0        3.725095   -3.611000    0.868029
     35          1           0        3.001958   -5.089192    1.702368
     36          1           0        1.531596   -5.481757    0.118409
     37          1           0        2.333185   -4.753983   -1.183282
     38          1           0        1.358107   -3.043417    1.056491
     39          1           0        1.619484   -2.641203   -0.524807
     40          1           0        0.297952   -3.405103   -0.156419
     41          7           0        5.873215   -2.681033   -0.974562
     42          6           0        5.663524   -2.018210   -2.240301
     43          6           0        5.847616   -0.513704   -2.070977
     44          8           0        5.833180    0.045924   -0.973704
     45          6           0        4.298026   -2.304660   -2.860754
     46          6           0        2.998178   -2.106456   -2.082994
     47          8           0        1.961811   -2.592333   -2.578541
     48          8           0        3.081609   -1.534246   -0.977727
     49          1           0        5.550939   -2.182344   -0.165768
     50          1           0        6.417653   -2.398970   -2.929946
     51          1           0        4.434596   -3.318867   -3.249126
     52          1           0        4.276432   -1.711866   -3.779628
     53          7           0        6.075567    0.096325   -3.232400
     54          6           0        6.483835    1.492429   -3.197591
     55          6           0        5.375636    2.502897   -2.929730
     56          8           0        5.678322    3.698891   -2.938609
     57          1           0        6.252033   -0.535874   -3.997439
     58          1           0        6.931498    1.854815   -4.119640
     59          1           0        7.233779    1.545548   -2.417294
     60          7           0        4.198111    2.047439   -2.495574
     61          6           0        3.061732    2.939994   -2.560283
     62          6           0        2.863314    3.773773   -1.305874
     63          8           0        2.695317    4.983612   -1.428619
     64          6           0        1.892574    2.007184   -2.878300
     65          6           0        0.564321    2.729338   -2.715088
     66          7           0        0.338907    3.645666   -3.661941
     67          8           0       -0.226562    2.532656   -1.804967
     68          1           0        4.207238    1.105132   -2.149924
     69          1           0        3.136452    3.707829   -3.332582
     70          1           0        1.883072    1.161414   -2.181318
     71          1           0        1.951763    1.656337   -3.913869
     72          1           0        1.046427    3.818579   -4.364732
     73          1           0       -0.618566    3.956522   -3.575259
     74          7           0        2.933472    3.136945   -0.124126
     75          6           0        2.512958    3.681277    1.152499
     76          6           0        1.029098    3.951776    1.329665
     77          8           0        0.473452    3.735833    2.404991
     78          1           0        3.288692    2.201147   -0.122826
     79          1           0        3.129881    4.573962    1.251594
     80          1           0        2.773142    2.898465    1.863843
     81          7           0        0.352693    4.509827    0.325845
     82          6           0       -0.959929    5.125150    0.315728
     83          6           0       -2.100681    4.196857    0.718664
     84          8           0       -3.135590    4.657865    1.204292
     85          6           0       -0.853707    6.390525    1.164281
     86          6           0        0.471752    7.072959    0.926077
     87          6           0        0.822521    7.554751   -0.336198
     88          6           0        1.277713    7.303949    2.054116
     89          6           0        2.020293    8.249188   -0.506197
     90          6           0        2.418580    8.092227    1.907686
     91          6           0        2.826948    8.523717    0.619877
     92          8           0        3.918086    9.322191    0.478256
     93          1           0        0.928371    4.578239   -0.499815
     94          1           0       -1.172843    5.413073   -0.708268
     95          1           0       -1.045284    6.220966    2.225388
     96          1           0       -1.577263    7.136814    0.854249
     97          1           0        0.221535    7.273072   -1.191810
     98          1           0        1.028954    6.922682    3.035163
     99          1           0        2.284712    8.675012   -1.461370
    100          1           0        3.058383    8.430672    2.711618
    101          1           0        4.421540    9.454045    1.287607
    102          7           0       -1.915262    2.893793    0.512159
    103          6           0       -2.876242    1.851001    0.833412
    104          6           0       -4.122886    1.916764   -0.032643
    105          8           0       -4.276400    1.139619   -0.970609
    106          6           0       -3.170997    1.713714    2.318798
    107          6           0       -1.912151    1.452908    3.142319
    108          6           0       -4.079387    0.543479    2.684689
    109          6           0       -1.123845    0.204181    2.774956
    110          1           0       -0.996400    2.717482    0.135984
    111          1           0       -2.367310    0.942894    0.535536
    112          1           0       -3.698134    2.601078    2.659549
    113          1           0       -2.219430    1.408901    4.196379
    114          1           0       -1.219413    2.294129    3.094773
    115          1           0       -3.651566   -0.362585    2.250736
    116          1           0       -4.133394    0.388659    3.764696
    117          1           0       -5.061911    0.729529    2.236212
    118          1           0       -0.563326    0.369724    1.856907
    119          1           0       -0.312404   -0.025856    3.460700
    120          1           0       -1.609033   -0.777257    2.791484
    121          7           0       -5.118161    2.794159    0.125492
    122          6           0       -6.323904    2.880670   -0.673507
    123          6           0       -7.332870    1.754102   -0.546106
    124          8           0       -7.832023    1.315922   -1.576467
    125          6           0       -7.044989    4.140214   -0.195399
    126          8           0       -6.307239    5.322474   -0.355045
    127          1           0       -4.932836    3.606908    0.693025
    128          1           0       -6.095673    3.101146   -1.713075
    129          1           0       -7.287060    4.040176    0.861575
    130          1           0       -7.897832    4.207815   -0.881685
    131          1           0       -6.847119    6.083242   -0.584743
    132          7           0       -7.564517    1.256875    0.670654
    133          6           0       -8.543271    0.271257    1.081992
    134          6           0       -8.339979   -1.090923    0.436982
    135          8           0       -8.812089   -2.083007    0.985690
    136          6           0       -9.910232    0.912798    0.870232
    137          1           0       -6.998476    1.626013    1.416131
    138          1           0       -8.429765    0.111307    2.158343
    139          1           0      -10.626531    0.132840    1.147325
    140          1           0       -9.952434    1.787605    1.511116
    141          1           0      -10.060163    1.219802   -0.166768
    142          7           0       -7.622108   -1.262802   -0.675456
    143          6           0       -7.290204   -2.562110   -1.205114
    144          6           0       -6.209157   -3.299523   -0.419455
    145          8           0       -5.402049   -2.679520    0.269872
    146          6           0       -7.018393   -2.578990   -2.704859
    147          1           0       -7.203204   -0.456313   -1.131301
    148          1           0       -8.278038   -3.026309   -1.203093
    149          1           0       -5.948164   -2.606748   -2.891245
    150          1           0       -7.433577   -3.447826   -3.222204
    151          1           0       -7.446501   -1.695672   -3.182324
    152          7           0       -6.145387   -4.607147   -0.668160
    153          6           0       -5.097220   -5.466412   -0.151333
    154          6           0       -4.955783   -5.662611    1.353161
    155          8           0       -4.023522   -6.276272    1.876621
    156          6           0       -3.815223   -5.337942   -0.974545
    157          6           0       -3.068880   -4.000860   -0.957679
    158          6           0       -1.919540   -4.025148   -1.955440
    159          8           0       -0.749838   -4.211370   -1.546517
    160          8           0       -2.157987   -3.830427   -3.170647
    161          1           0       -6.817868   -4.970395   -1.320708
    162          1           0       -5.480126   -6.403608   -0.543438
    163          1           0       -3.996111   -5.634373   -2.008763
    164          1           0       -3.151589   -6.173977   -0.740375
    165          1           0       -2.701818   -3.821343    0.045385
    166          1           0       -3.708963   -3.204183   -1.343165
    167          7           0       -5.888797   -5.221962    2.187075
    168          6           0       -5.893305   -5.367847    3.635280
    169          1           0       -5.851397   -6.426504    3.892844
    170          1           0       -5.027063   -4.857381    4.055789
    171          1           0       -6.805250   -4.930961    4.042034
    172          1           0       -6.550617   -4.582764    1.765150
    173         20           0        0.261419   -4.159748   -3.862978
    174          8           0       -0.051491   -1.624996   -4.196928
    175          1           0       -0.148751   -0.824635   -4.716314
    176          1           0        0.335747   -1.320739   -3.374508
 ---------------------------------------------------------------------

 SCF Done:  E(RB3LYP) =  -5333.42386860     A.U. after   48 cycles

 The electronic state is 1-A.
 Alpha  occ. eigenvalues -- -145.49392 -19.20990 -19.14521 -19.13876 -19.13487
 Alpha  occ. eigenvalues --  -19.12913 -19.12600 -19.12455 -19.12338 -19.12241
 Alpha  occ. eigenvalues --  -19.10482 -19.10307 -19.10123 -19.10019 -19.09772
 Alpha  occ. eigenvalues --  -19.08433 -19.08319 -19.08307 -19.07524 -19.07394
 Alpha  occ. eigenvalues --  -19.07251 -19.06839 -19.01962 -19.01933 -15.55396
 Alpha  occ. eigenvalues --  -14.45401 -14.38715 -14.37692 -14.37279 -14.36717
 Alpha  occ. eigenvalues --  -14.36115 -14.35372 -14.35070 -14.34545 -14.33641
 Alpha  occ. eigenvalues --  -14.33627 -14.33623 -14.33125 -14.32660 -14.32523
 Alpha  occ. eigenvalues --  -12.68966 -12.68952 -12.68919 -10.32208 -10.30975
 Alpha  occ. eigenvalues --  -10.30869 -10.30490 -10.29161 -10.28862 -10.28818
 Alpha  occ. eigenvalues --  -10.28408 -10.28341 -10.27995 -10.27431 -10.27317
 Alpha  occ. eigenvalues --  -10.27305 -10.26269 -10.26134 -10.25978 -10.25796
 Alpha  occ. eigenvalues --  -10.25546 -10.25247 -10.25220 -10.24637 -10.24029
 Alpha  occ. eigenvalues --  -10.24001 -10.23447 -10.23023 -10.22777 -10.22558
 Alpha  occ. eigenvalues --  -10.22415 -10.21992 -10.21904 -10.21784 -10.21212
 Alpha  occ. eigenvalues --  -10.21188 -10.20875 -10.20839 -10.20491 -10.20455
 Alpha  occ. eigenvalues --  -10.20427 -10.20158 -10.19649 -10.18984 -10.18682
 Alpha  occ. eigenvalues --  -10.18541 -10.16685 -10.16561 -10.16523 -10.16365
 Alpha  occ. eigenvalues --  -10.16354 -10.16097 -10.16062 -10.15475 -10.14233
 Alpha  occ. eigenvalues --  -10.14147 -10.13978  -1.92288  -1.19685  -1.19607
 Alpha  occ. eigenvalues --   -1.19424  -1.08103  -1.07577  -1.06965  -1.05684
 Alpha  occ. eigenvalues --   -1.05477  -1.03869  -1.03598  -1.03573  -1.02778
 Alpha  occ. eigenvalues --   -1.02598  -1.02506  -1.01915  -1.01914  -1.01690
 Alpha  occ. eigenvalues --   -1.01679  -1.01446  -1.01066  -1.00445  -1.00195
 Alpha  occ. eigenvalues --   -0.99603  -0.98321  -0.97177  -0.95534  -0.95437
 Alpha  occ. eigenvalues --   -0.94192  -0.94139  -0.93393  -0.92969  -0.92718
 Alpha  occ. eigenvalues --   -0.91556  -0.90932  -0.90606  -0.90542  -0.90109
 Alpha  occ. eigenvalues --   -0.90022  -0.89602  -0.89246  -0.85743  -0.83491
 Alpha  occ. eigenvalues --   -0.82299  -0.81517  -0.80953  -0.80472  -0.79440
 Alpha  occ. eigenvalues --   -0.78583  -0.78424  -0.76980  -0.76477  -0.75625
 Alpha  occ. eigenvalues --   -0.75263  -0.75255  -0.74043  -0.72764  -0.72429
 Alpha  occ. eigenvalues --   -0.71965  -0.71546  -0.71095  -0.70409  -0.69930
 Alpha  occ. eigenvalues --   -0.69101  -0.68263  -0.67851  -0.66957  -0.66189
 Alpha  occ. eigenvalues --   -0.65522  -0.63994  -0.63572  -0.63185  -0.62908
 Alpha  occ. eigenvalues --   -0.62742  -0.62084  -0.61772  -0.61096  -0.60930
 Alpha  occ. eigenvalues --   -0.60553  -0.60525  -0.60261  -0.60056  -0.59906
 Alpha  occ. eigenvalues --   -0.59572  -0.59341  -0.59231  -0.58574  -0.58431
 Alpha  occ. eigenvalues --   -0.57907  -0.57382  -0.57367  -0.57136  -0.56743
 Alpha  occ. eigenvalues --   -0.56242  -0.55909  -0.55579  -0.55438  -0.55141
 Alpha  occ. eigenvalues --   -0.54834  -0.54454  -0.53875  -0.53317  -0.53165
 Alpha  occ. eigenvalues --   -0.53105  -0.52925  -0.52787  -0.52672  -0.52368
 Alpha  occ. eigenvalues --   -0.52269  -0.51753  -0.51080  -0.50921  -0.50831
 Alpha  occ. eigenvalues --   -0.50213  -0.49754  -0.49706  -0.49286  -0.49227
 Alpha  occ. eigenvalues --   -0.49110  -0.48502  -0.48468  -0.48384  -0.47898
 Alpha  occ. eigenvalues --   -0.47692  -0.47433  -0.47317  -0.47069  -0.46574
 Alpha  occ. eigenvalues --   -0.46416  -0.46154  -0.46032  -0.45978  -0.45811
 Alpha  occ. eigenvalues --   -0.45753  -0.45538  -0.45442  -0.45374  -0.45273
 Alpha  occ. eigenvalues --   -0.45098  -0.45012  -0.44740  -0.44375  -0.44269
 Alpha  occ. eigenvalues --   -0.44134  -0.44034  -0.43674  -0.43303  -0.43298
 Alpha  occ. eigenvalues --   -0.43262  -0.43046  -0.42925  -0.42910  -0.42660
 Alpha  occ. eigenvalues --   -0.42244  -0.42186  -0.42135  -0.42089  -0.41977
 Alpha  occ. eigenvalues --   -0.41640  -0.41437  -0.41239  -0.41135  -0.41085
 Alpha  occ. eigenvalues --   -0.41005  -0.40757  -0.40741  -0.40549  -0.40417
 Alpha  occ. eigenvalues --   -0.40372  -0.40346  -0.40155  -0.39945  -0.39925
 Alpha  occ. eigenvalues --   -0.39752  -0.39450  -0.39364  -0.39242  -0.38831
 Alpha  occ. eigenvalues --   -0.38814  -0.38509  -0.38486  -0.38441  -0.38360
 Alpha  occ. eigenvalues --   -0.38282  -0.38183  -0.38031  -0.37954  -0.37639
 Alpha  occ. eigenvalues --   -0.37551  -0.37520  -0.37371  -0.37263  -0.37198
 Alpha  occ. eigenvalues --   -0.37000  -0.36807  -0.36539  -0.36078  -0.35934
 Alpha  occ. eigenvalues --   -0.35924  -0.35575  -0.35501  -0.35447  -0.35302
 Alpha  occ. eigenvalues --   -0.35145  -0.34754  -0.34720  -0.34495  -0.34308
 Alpha  occ. eigenvalues --   -0.34072  -0.33904  -0.33817  -0.33764  -0.32315
 Alpha  occ. eigenvalues --   -0.31921  -0.31757  -0.31598  -0.31381  -0.31027
 Alpha  occ. eigenvalues --   -0.30952  -0.30798  -0.30452  -0.30447  -0.30295
 Alpha  occ. eigenvalues --   -0.30179  -0.29956  -0.29795  -0.29489  -0.28950
 Alpha  occ. eigenvalues --   -0.28761  -0.28415  -0.28070  -0.28015  -0.27884
 Alpha  occ. eigenvalues --   -0.27741  -0.27335  -0.27234  -0.26616  -0.26530
 Alpha  occ. eigenvalues --   -0.26227  -0.26222  -0.25563  -0.25441  -0.25162
 Alpha  occ. eigenvalues --   -0.25038  -0.24892  -0.24699  -0.24377  -0.24323
 Alpha  occ. eigenvalues --   -0.24260  -0.24160  -0.23716  -0.23670  -0.23269
 Alpha  occ. eigenvalues --   -0.22535  -0.22371  -0.22001  -0.21591  -0.19354
 Alpha  occ. eigenvalues --   -0.18636  -0.18133  -0.15930
 Alpha virt. eigenvalues --   -0.14900  -0.03797  -0.02097  -0.01465  -0.00975
 Alpha virt. eigenvalues --   -0.00488  -0.00219   0.00004   0.00185   0.00460
 Alpha virt. eigenvalues --    0.00600   0.00896   0.01014   0.01536   0.01621

 Mulliken charges:
               1
     1  C    0.079401
     2  C    0.039617
     3  O   -0.348848
     4  H    0.022977
     5  H    0.006841
     6  H    0.058132
     7  N   -0.077391
     8  C    0.136846
     9  C    0.013641
    10  O   -0.268073
    11  C   -0.013325
    12  C    0.117318
    13  O   -0.325876
    14  O   -0.329698
    15  H    0.115471
    16  H    0.001393
    17  H   -0.014343
    18  H    0.018851
    19  N   -0.182325
    20  C    0.160335
    21  C    0.052576
    22  O   -0.303257
    23  C    0.077575
    24  C   -0.039498
    25  C   -0.022482
    26  C    0.073834
    27  N    0.114686
    28  H    0.149807
    29  H    0.019045
    30  H    0.005483
    31  H    0.011221
    32  H   -0.001063
    33  H    0.007830
    34  H    0.053344
    35  H    0.033467
    36  H    0.029559
    37  H   -0.004279
    38  H    0.188811
    39  H    0.109976
    40  H    0.156954
    41  N   -0.126151
    42  C    0.125342
    43  C    0.042608
    44  O   -0.251066
    45  C    0.047301
    46  C    0.186416
    47  O   -0.494112
    48  O   -0.353219
    49  H    0.161772
    50  H    0.006702
    51  H    0.009195
    52  H   -0.023237
    53  N   -0.158069
    54  C    0.217620
    55  C    0.017258
    56  O   -0.265026
    57  H    0.125868
    58  H    0.031648
    59  H    0.058791
    60  N   -0.136251
    61  C    0.102420
    62  C    0.074979
    63  O   -0.263370
    64  C    0.078206
    65  C   -0.037344
    66  N   -0.038920
    67  O   -0.243741
    68  H    0.145349
    69  H    0.009957
    70  H    0.018378
    71  H    0.000225
    72  H    0.128198
    73  H    0.140257
    74  N   -0.163655
    75  C    0.227905
    76  C    0.020133
    77  O   -0.259878
    78  H    0.128282
    79  H    0.047261
    80  H    0.051278
    81  N   -0.157365
    82  C    0.121064
    83  C    0.067026
    84  O   -0.304061
    85  C    0.192014
    86  C   -0.066486
    87  C    0.024925
    88  C    0.002101
    89  C    0.002941
    90  C   -0.034418
    91  C    0.143661
    92  O   -0.204820
    93  H    0.136688
    94  H    0.007310
    95  H    0.001132
    96  H   -0.000240
    97  H   -0.048788
    98  H   -0.016979
    99  H   -0.036985
   100  H   -0.055475
   101  H    0.173103
   102  N   -0.109792
   103  C    0.233446
   104  C    0.046437
   105  O   -0.281467
   106  C   -0.102882
   107  C    0.040759
   108  C    0.074575
   109  C   -0.008305
   110  H    0.143117
   111  H   -0.028992
   112  H   -0.008401
   113  H   -0.015893
   114  H    0.033742
   115  H    0.014684
   116  H    0.003018
   117  H   -0.031508
   118  H   -0.006004
   119  H    0.018143
   120  H   -0.017409
   121  N   -0.130539
   122  C    0.154726
   123  C    0.063117
   124  O   -0.297266
   125  C    0.180039
   126  O   -0.305478
   127  H    0.136135
   128  H   -0.009163
   129  H   -0.014541
   130  H    0.004767
   131  H    0.172428
   132  N   -0.134025
   133  C    0.072970
   134  C    0.085126
   135  O   -0.312135
   136  C    0.055566
   137  H    0.132526
   138  H    0.023431
   139  H    0.025898
   140  H    0.008804
   141  H    0.034694
   142  N   -0.105833
   143  C    0.058333
   144  C    0.090711
   145  O   -0.265116
   146  C    0.031471
   147  H    0.141520
   148  H    0.006143
   149  H    0.024564
   150  H    0.006451
   151  H    0.039160
   152  N   -0.147391
   153  C    0.144095
   154  C    0.058205
   155  O   -0.289684
   156  C    0.005982
   157  C    0.164499
   158  C    0.104134
   159  O   -0.486853
   160  O   -0.432713
   161  H    0.118462
   162  H    0.002742
   163  H   -0.026986
   164  H   -0.001432
   165  H    0.005668
   166  H    0.046789
   167  N   -0.134162
   168  C    0.146610
   169  H    0.027327
   170  H    0.031145
   171  H    0.021721
   172  H    0.122321
   173  Ca   1.225517
   174  O   -0.324055
   175  H    0.190320
   176  H    0.195791
 Sum of Mulliken charges =  -0.00000

 Dipole moment (field-independent basis, Debye):
    X=             -6.0133    Y=            -14.4081    Z=            -20.7178  Tot=             25.9419
 Quadrupole moment (field-independent basis, Debye-Ang):
   XX=           -605.7003   YY=           -522.3552   ZZ=           -488.9608
   XY=            -31.8960   XZ=            -25.7934   YZ=             29.6631

 ESP charges:
               1
     1  C   -0.455286
     2  C    0.837776
     3  O   -0.652838
     4  H    0.125566
     5  H    0.087216
     6  H    0.149797
     7  N   -0.701492
     8  C    0.224988
     9  C    0.361741
    10  O   -0.524062
    11  C   -0.065044
    12  C    0.700673
    13  O   -0.629410
    14  O   -0.603031
    15  H    0.360178
    16  H    0.050007
    17  H    0.038558
    18  H   -0.007110
    19  N   -0.050619
    20  C   -0.343628
    21  C    0.648522
    22  O   -0.569488
    23  C    0.105320
    24  C   -0.139064
    25  C    0.503535
    26  C   -0.263700
    27  N   -0.179042
    28  H    0.007507
    29  H    0.150881
    30  H    0.034882
    31  H    0.021083
    32  H    0.009199
    33  H    0.019979
    34  H   -0.055015
    35  H   -0.042066
    36  H    0.081537
    37  H    0.083964
    38  H    0.271231
    39  H    0.236670
    40  H    0.266265
    41  N   -0.542485
    42  C    0.406631
    43  C    0.362884
    44  O   -0.424195
    45  C   -0.340721
    46  C    0.835524
    47  O   -0.791676
    48  O   -0.635940
    49  H    0.280562
    50  H   -0.009168
    51  H    0.072794
    52  H    0.000884
    53  N   -0.335257
    54  C   -0.240718
    55  C    0.624887
    56  O   -0.528267
    57  H    0.288490
    58  H    0.123377
    59  H    0.156033
    60  N   -0.583859
    61  C    0.319397
    62  C    0.468520
    63  O   -0.503974
    64  C   -0.388894
    65  C    0.734781
    66  N   -0.870749
    67  O   -0.620400
    68  H    0.286450
    69  H    0.012960
    70  H    0.097988
    71  H    0.085068
    72  H    0.408647
    73  H    0.406374
    74  N   -0.285538
    75  C   -0.288673
    76  C    0.627761
    77  O   -0.544518
    78  H    0.283054
    79  H    0.156387
    80  H    0.140734
    81  N   -0.362472
    82  C    0.371917
    83  C    0.277104
    84  O   -0.526070
    85  C   -0.361644
    86  C    0.197986
    87  C   -0.285691
    88  C   -0.167630
    89  C   -0.179056
    90  C   -0.341579
    91  C    0.395795
    92  O   -0.574769
    93  H    0.185493
    94  H    0.008885
    95  H    0.129780
    96  H    0.090745
    97  H    0.158468
    98  H    0.153678
    99  H    0.140390
   100  H    0.142588
   101  H    0.413585
   102  N   -0.275446
   103  C    0.219884
   104  C    0.454461
   105  O   -0.559586
   106  C    0.024688
   107  C    0.078658
   108  C   -0.193409
   109  C   -0.230642
   110  H    0.233048
   111  H    0.007140
   112  H    0.016130
   113  H   -0.015486
   114  H    0.021538
   115  H    0.049840
   116  H    0.084789
   117  H   -0.051179
   118  H    0.043065
   119  H    0.089757
   120  H    0.044311
   121  N   -0.405301
   122  C    0.241389
   123  C    0.371681
   124  O   -0.538284
   125  C    0.095379
   126  O   -0.603918
   127  H    0.296319
   128  H    0.051968
   129  H    0.014248
   130  H    0.042188
   131  H    0.410452
   132  N   -0.531730
   133  C    0.292649
   134  C    0.540154
   135  O   -0.586513
   136  C   -0.369973
   137  H    0.323913
   138  H    0.049530
   139  H    0.087063
   140  H    0.089888
   141  H    0.137030
   142  N   -0.520940
   143  C    0.446725
   144  C    0.214713
   145  O   -0.400773
   146  C   -0.205052
   147  H    0.338599
   148  H   -0.016420
   149  H    0.053019
   150  H    0.034359
   151  H    0.072600
   152  N   -0.551968
   153  C   -0.315559
   154  C    0.577296
   155  O   -0.541026
   156  C    0.555928
   157  C   -0.591866
   158  C    0.743511
   159  O   -0.653532
   160  O   -0.678988
   161  H    0.361348
   162  H    0.141735
   163  H   -0.061433
   164  H   -0.105825
   165  H    0.162026
   166  H    0.215437
   167  N   -0.288057
   168  C   -0.228003
   169  H    0.104844
   170  H    0.124522
   171  H    0.106562
   172  H    0.309384
   173  Ca   1.250591
   174  O   -0.686356
   175  H    0.389026
   176  H    0.385038
 Sum of ESP charges =  -0.00000

 Normal termination of Gaussian 16 at Tue Sep 17 18:56:35 2019.
