 Gaussian 16, Revision A.03,
 Gaussian 16:  ES64L-G16RevA.03 25-Dec-2016

 ----------------------------------------------------------------------
 #b3lyp/svp scf=(tight,noincore) Test #IOP(5/87=12) Density=Current Pop
 =(MK,readradii) iop(6/33=2) iop(6/42=6)
 ----------------------------------------------------------------------

 -----------------
 Ng-293_loop3_46.0
 -----------------
 Symbolic Z-matrix:
 Charge =  0 Multiplicity = 1

                         Standard orientation:
 ---------------------------------------------------------------------
 Center     Atomic      Atomic             Coordinates (Angstroms)
 Number     Number       Type             X           Y           Z
 ---------------------------------------------------------------------
      1          6           0       -9.680585   -1.505146    5.752932
      2          6           0       -9.838241   -2.031019    4.327063
      3          8           0      -10.972728   -2.032105    3.844010
      4          1           0       -9.195056   -2.262729    6.367726
      5          1           0       -9.071496   -0.601026    5.742322
      6          1           0      -10.662650   -1.276552    6.167029
      7          7           0       -8.786382   -2.511178    3.662956
      8          6           0       -8.775889   -2.887211    2.268291
      9          6           0       -8.512159   -1.668252    1.393600
     10          8           0       -7.673708   -0.804255    1.603619
     11          6           0       -7.704641   -3.934636    1.973961
     12          6           0       -6.278180   -3.692049    2.431955
     13          8           0       -5.339450   -4.346147    1.918005
     14          8           0       -6.042234   -2.831292    3.308439
     15          1           0       -7.908780   -2.625094    4.162893
     16          1           0       -9.773554   -3.266599    2.060136
     17          1           0       -7.734047   -4.110801    0.895303
     18          1           0       -8.003422   -4.899216    2.389673
     19          7           0       -9.153552   -1.803902    0.223123
     20          6           0       -9.451675   -0.838665   -0.812028
     21          6           0       -8.328804   -0.152756   -1.574321
     22          8           0       -8.672837    0.531909   -2.524202
     23          6           0      -10.453448    0.158885   -0.232766
     24          6           0      -11.819833   -0.500563   -0.057501
     25          6           0      -12.930601    0.532831   -0.027635
     26          6           0      -14.299326   -0.123145    0.117924
     27          7           0      -15.342205    0.907531    0.054603
     28          1           0       -9.574946   -2.713407    0.096127
     29          1           0       -9.975339   -1.390489   -1.592711
     30          1           0      -10.507136    1.030882   -0.890748
     31          1           0      -10.064346    0.593333    0.686176
     32          1           0      -11.794222   -1.138961    0.828610
     33          1           0      -11.994661   -1.150469   -0.907418
     34          1           0      -12.912179    1.194481   -0.890931
     35          1           0      -12.722393    1.123373    0.866574
     36          1           0      -14.190662   -0.760051    1.004402
     37          1           0      -14.500973   -0.830492   -0.696200
     38          1           0      -15.195445    1.397178   -0.815343
     39          1           0      -16.262835    0.514004   -0.090579
     40          1           0      -15.437339    1.602114    0.779520
     41          7           0       -7.063261   -0.443412   -1.226584
     42          6           0       -5.868616   -0.016474   -1.920447
     43          6           0       -4.839606   -1.136777   -1.896808
     44          8           0       -4.729355   -1.824174   -0.891806
     45          6           0       -5.376791    1.261554   -1.244241
     46          6           0       -4.399221    2.077255   -2.077540
     47          8           0       -4.085303    1.634578   -3.200925
     48          8           0       -3.971813    3.190982   -1.688137
     49          1           0       -6.985846   -1.116254   -0.479864
     50          1           0       -6.084309    0.310931   -2.942398
     51          1           0       -4.798644    0.907800   -0.395299
     52          1           0       -6.242076    1.822175   -0.895120
     53          7           0       -4.041749   -1.322077   -2.954158
     54          6           0       -2.913813   -2.224770   -3.040790
     55          6           0       -1.563680   -1.570876   -2.784540
     56          8           0       -1.164594   -0.531003   -3.317169
     57          1           0       -3.967349   -0.545682   -3.599740
     58          1           0       -2.885189   -2.786066   -3.970428
     59          1           0       -3.071223   -3.076586   -2.377290
     60          7           0       -0.777858   -2.225572   -1.933272
     61          6           0        0.367318   -1.660028   -1.257157
     62          6           0        1.637587   -2.499706   -1.384660
     63          8           0        2.717719   -1.912462   -1.337114
     64          6           0        0.075502   -1.533841    0.238175
     65          6           0       -1.185284   -0.744587    0.604776
     66          7           0       -2.195315   -1.476744    1.086839
     67          8           0       -1.297339    0.470586    0.590707
     68          1           0       -1.219892   -3.004463   -1.461008
     69          1           0        0.465988   -0.631656   -1.605891
     70          1           0        0.894069   -1.047985    0.762382
     71          1           0        0.009376   -2.520734    0.683451
     72          1           0       -2.026989   -2.451283    1.286188
     73          1           0       -3.070040   -1.030590    1.312235
     74          7           0        1.554923   -3.816638   -1.579229
     75          6           0        2.692551   -4.684597   -1.820778
     76          6           0        3.699198   -4.563344   -0.687482
     77          8           0        3.338955   -4.766816    0.465004
     78          1           0        0.641019   -4.164548   -1.797033
     79          1           0        3.244046   -4.400941   -2.709650
     80          1           0        2.376728   -5.732119   -1.844305
     81          7           0        4.992562   -4.371134   -0.968844
     82          6           0        6.131348   -4.166428   -0.105501
     83          6           0        5.875579   -3.043873    0.900904
     84          8           0        6.667995   -2.875389    1.820953
     85          6           0        6.541562   -5.504484    0.510316
     86          6           0        7.001995   -6.566948   -0.461421
     87          6           0        6.062780   -7.434038   -1.017326
     88          6           0        8.346789   -6.663430   -0.854640
     89          6           0        6.471241   -8.351594   -1.988228
     90          6           0        8.746185   -7.623129   -1.782627
     91          6           0        7.810813   -8.490618   -2.389375
     92          8           0        8.155607   -9.427826   -3.313799
     93          1           0        5.129214   -4.099871   -1.934216
     94          1           0        6.975530   -3.884169   -0.738184
     95          1           0        5.704316   -5.834559    1.130130
     96          1           0        7.434118   -5.335501    1.109472
     97          1           0        5.042967   -7.318705   -0.674427
     98          1           0        8.958643   -5.923046   -0.361825
     99          1           0        5.686430   -8.918785   -2.464008
    100          1           0        9.788765   -7.678151   -2.073141
    101          1           0        9.029993   -9.282538   -3.685471
    102          7           0        4.872849   -2.195170    0.665032
    103          6           0        4.543052   -0.961367    1.350278
    104          6           0        5.564609    0.143443    1.106115
    105          8           0        5.164130    1.263713    0.807433
    106          6           0        4.111077   -1.067424    2.809302
    107          6           0        3.319919   -2.338935    3.089891
    108          6           0        3.388412    0.146912    3.378461
    109          6           0        2.877042   -2.636464    4.524024
    110          1           0        4.220635   -2.296303   -0.103335
    111          1           0        3.608046   -0.557358    0.946000
    112          1           0        5.020513   -1.169847    3.415797
    113          1           0        3.839462   -3.219407    2.717141
    114          1           0        2.390472   -2.210941    2.548555
    115          1           0        2.386357    0.267540    2.949702
    116          1           0        3.361882   -0.047522    4.451863
    117          1           0        3.953018    1.032286    3.073940
    118          1           0        3.631775   -2.332682    5.247415
    119          1           0        1.942994   -2.086943    4.675286
    120          1           0        2.604582   -3.670355    4.714118
    121          7           0        6.858352   -0.144461    1.054732
    122          6           0        7.824770    0.556169    0.215592
    123          6           0        8.369609    1.862195    0.769709
    124          8           0        9.030263    2.545313   -0.013735
    125          6           0        8.966201   -0.332556   -0.257592
    126          8           0        8.563444   -1.590128   -0.736444
    127          1           0        7.066198   -1.108304    1.258952
    128          1           0        7.301057    0.906932   -0.678383
    129          1           0        9.483311   -0.398288    0.700519
    130          1           0        9.598866    0.156748   -1.004263
    131          1           0        7.759995   -1.445406   -1.248719
    132          7           0        8.020684    2.215770    2.003255
    133          6           0        7.983239    3.574806    2.505071
    134          6           0        7.418790    4.495831    1.428497
    135          8           0        8.098784    5.423311    0.998625
    136          6           0        9.336047    4.004301    3.068139
    137          1           0        7.433892    1.525197    2.450116
    138          1           0        7.305159    3.575083    3.366411
    139          1           0        9.348027    4.948153    3.608417
    140          1           0        9.698548    3.176328    3.690116
    141          1           0       10.059747    4.067747    2.251051
    142          7           0        6.178193    4.216093    1.022215
    143          6           0        5.471830    4.978201    0.008932
    144          6           0        4.171357    5.503376    0.620456
    145          8           0        3.763325    5.034895    1.675034
    146          6           0        5.175018    4.103075   -1.204434
    147          1           0        5.611789    3.477976    1.408052
    148          1           0        6.100020    5.849164   -0.184461
    149          1           0        4.838085    4.814718   -1.963209
    150          1           0        6.065493    3.633354   -1.629070
    151          1           0        4.466073    3.301078   -0.999985
    152          7           0        3.502424    6.391844   -0.111701
    153          6           0        2.161805    6.907066    0.087768
    154          6           0        1.968370    7.477593    1.492646
    155          8           0        0.966732    7.239437    2.156349
    156          6           0        1.083892    5.979033   -0.440775
    157          6           0        1.281587    5.588424   -1.905746
    158          6           0       -0.021130    5.214842   -2.587409
    159          8           0        0.002312    5.086178   -3.829623
    160          8           0       -1.042696    4.945359   -1.919066
    161          1           0        3.980516    6.786008   -0.914548
    162          1           0        2.064085    7.755811   -0.593028
    163          1           0        0.161625    6.545253   -0.298587
    164          1           0        1.139251    5.090608    0.178125
    165          1           0        2.070630    4.836440   -1.934606
    166          1           0        1.716436    6.397235   -2.508598
    167          7           0        2.983913    8.206261    1.959033
    168          6           0        3.152433    8.536059    3.357758
    169          1           0        3.606103    7.691757    3.877400
    170          1           0        3.799191    9.408925    3.450942
    171          1           0        2.179931    8.755018    3.799599
    172          1           0        3.749220    8.447627    1.358077
    173         20           0       -2.785024    4.359243   -3.617670
    174          8           0       -2.651388    6.086412   -5.456156
    175          1           0       -2.614842    7.030945   -5.301489
    176          1           0       -2.955352    6.002602   -6.357645
 ---------------------------------------------------------------------

 SCF Done:  E(RB3LYP) =  -5333.40498469     A.U. after   45 cycles

 The electronic state is 1-A.
 Alpha  occ. eigenvalues -- -145.43888 -19.23759 -19.16086 -19.13416 -19.11279
 Alpha  occ. eigenvalues --  -19.09361 -19.09073 -19.08654 -19.08597 -19.07776
 Alpha  occ. eigenvalues --  -19.07180 -19.07137 -19.07033 -19.07030 -19.06219
 Alpha  occ. eigenvalues --  -19.05938 -19.05726 -19.05670 -19.05318 -19.05233
 Alpha  occ. eigenvalues --  -19.05010 -19.04668 -18.96927 -18.96273 -15.49892
 Alpha  occ. eigenvalues --  -14.57940 -14.37619 -14.36013 -14.35528 -14.33977
 Alpha  occ. eigenvalues --  -14.33768 -14.33760 -14.33678 -14.33371 -14.33032
 Alpha  occ. eigenvalues --  -14.32541 -14.32230 -14.31001 -14.30292 -14.29724
 Alpha  occ. eigenvalues --  -12.63520 -12.63441 -12.63382 -10.34483 -10.29688
 Alpha  occ. eigenvalues --  -10.28666 -10.27958 -10.27737 -10.26905 -10.26786
 Alpha  occ. eigenvalues --  -10.26434 -10.25847 -10.25789 -10.25586 -10.25335
 Alpha  occ. eigenvalues --  -10.25149 -10.24867 -10.24842 -10.24831 -10.24532
 Alpha  occ. eigenvalues --  -10.24469 -10.24162 -10.23936 -10.23690 -10.23302
 Alpha  occ. eigenvalues --  -10.23213 -10.22799 -10.22588 -10.22123 -10.21743
 Alpha  occ. eigenvalues --  -10.21226 -10.20873 -10.20532 -10.20333 -10.20169
 Alpha  occ. eigenvalues --  -10.19937 -10.19334 -10.19131 -10.18725 -10.18454
 Alpha  occ. eigenvalues --  -10.18322 -10.18119 -10.18030 -10.17859 -10.17739
 Alpha  occ. eigenvalues --  -10.16752 -10.16317 -10.15945 -10.15806 -10.15488
 Alpha  occ. eigenvalues --  -10.15090 -10.14955 -10.14730 -10.14555 -10.14456
 Alpha  occ. eigenvalues --  -10.14179 -10.13204  -1.86685  -1.14433  -1.13893
 Alpha  occ. eigenvalues --   -1.13628  -1.13417  -1.09596  -1.04632  -1.04582
 Alpha  occ. eigenvalues --   -1.03221  -1.02592  -1.01847  -1.01795  -1.01353
 Alpha  occ. eigenvalues --   -1.01299  -1.00721  -1.00653  -1.00279  -1.00125
 Alpha  occ. eigenvalues --   -1.00028  -0.99887  -0.98845  -0.98206  -0.98166
 Alpha  occ. eigenvalues --   -0.97889  -0.94055  -0.93092  -0.92021  -0.91456
 Alpha  occ. eigenvalues --   -0.91399  -0.91285  -0.90834  -0.90775  -0.90319
 Alpha  occ. eigenvalues --   -0.89958  -0.89786  -0.89496  -0.89254  -0.88513
 Alpha  occ. eigenvalues --   -0.88468  -0.88075  -0.87003  -0.85224  -0.84322
 Alpha  occ. eigenvalues --   -0.81198  -0.80841  -0.79599  -0.78903  -0.78117
 Alpha  occ. eigenvalues --   -0.77032  -0.76805  -0.76270  -0.75189  -0.74877
 Alpha  occ. eigenvalues --   -0.74164  -0.73529  -0.73322  -0.72733  -0.72497
 Alpha  occ. eigenvalues --   -0.72115  -0.71796  -0.71350  -0.71125  -0.70334
 Alpha  occ. eigenvalues --   -0.68669  -0.67923  -0.67402  -0.66632  -0.66603
 Alpha  occ. eigenvalues --   -0.65113  -0.64303  -0.63948  -0.63851  -0.63519
 Alpha  occ. eigenvalues --   -0.62920  -0.62182  -0.61714  -0.61530  -0.61384
 Alpha  occ. eigenvalues --   -0.60842  -0.60555  -0.59869  -0.59533  -0.59144
 Alpha  occ. eigenvalues --   -0.58895  -0.57966  -0.57490  -0.57162  -0.57059
 Alpha  occ. eigenvalues --   -0.56608  -0.56568  -0.55923  -0.55671  -0.55081
 Alpha  occ. eigenvalues --   -0.54883  -0.54826  -0.54723  -0.54598  -0.54415
 Alpha  occ. eigenvalues --   -0.53872  -0.53180  -0.52946  -0.52919  -0.52064
 Alpha  occ. eigenvalues --   -0.51854  -0.51468  -0.51179  -0.51052  -0.50958
 Alpha  occ. eigenvalues --   -0.49914  -0.49687  -0.49356  -0.48989  -0.48838
 Alpha  occ. eigenvalues --   -0.48772  -0.48712  -0.48340  -0.48085  -0.47734
 Alpha  occ. eigenvalues --   -0.47174  -0.47099  -0.47015  -0.46834  -0.46532
 Alpha  occ. eigenvalues --   -0.46287  -0.45959  -0.45872  -0.45471  -0.45282
 Alpha  occ. eigenvalues --   -0.45154  -0.44923  -0.44851  -0.44766  -0.44260
 Alpha  occ. eigenvalues --   -0.44169  -0.44046  -0.43840  -0.43466  -0.43257
 Alpha  occ. eigenvalues --   -0.43163  -0.42952  -0.42939  -0.42922  -0.42408
 Alpha  occ. eigenvalues --   -0.42077  -0.41925  -0.41794  -0.41657  -0.41426
 Alpha  occ. eigenvalues --   -0.41336  -0.41244  -0.41179  -0.41131  -0.40944
 Alpha  occ. eigenvalues --   -0.40888  -0.40777  -0.40680  -0.40589  -0.40342
 Alpha  occ. eigenvalues --   -0.40234  -0.40071  -0.39998  -0.39788  -0.39619
 Alpha  occ. eigenvalues --   -0.39317  -0.39283  -0.39066  -0.38979  -0.38798
 Alpha  occ. eigenvalues --   -0.38715  -0.38605  -0.38455  -0.38395  -0.38091
 Alpha  occ. eigenvalues --   -0.38044  -0.37832  -0.37720  -0.37270  -0.37260
 Alpha  occ. eigenvalues --   -0.37245  -0.36934  -0.36785  -0.36755  -0.36429
 Alpha  occ. eigenvalues --   -0.36377  -0.36305  -0.35999  -0.35925  -0.35820
 Alpha  occ. eigenvalues --   -0.35631  -0.35524  -0.35457  -0.35314  -0.35300
 Alpha  occ. eigenvalues --   -0.35205  -0.35159  -0.35042  -0.34948  -0.34857
 Alpha  occ. eigenvalues --   -0.34441  -0.34222  -0.34181  -0.33707  -0.33650
 Alpha  occ. eigenvalues --   -0.33477  -0.33403  -0.33313  -0.32974  -0.32802
 Alpha  occ. eigenvalues --   -0.32511  -0.32356  -0.32190  -0.32116  -0.31756
 Alpha  occ. eigenvalues --   -0.31628  -0.31277  -0.30785  -0.30381  -0.29307
 Alpha  occ. eigenvalues --   -0.28938  -0.28596  -0.28190  -0.28090  -0.27943
 Alpha  occ. eigenvalues --   -0.27676  -0.27123  -0.26703  -0.26039  -0.25940
 Alpha  occ. eigenvalues --   -0.25756  -0.25449  -0.25272  -0.25198  -0.25023
 Alpha  occ. eigenvalues --   -0.24811  -0.24650  -0.24273  -0.24259  -0.23790
 Alpha  occ. eigenvalues --   -0.23459  -0.23096  -0.22943  -0.22893  -0.22796
 Alpha  occ. eigenvalues --   -0.22722  -0.22508  -0.22366  -0.22284  -0.22233
 Alpha  occ. eigenvalues --   -0.22159  -0.21907  -0.21761  -0.21472  -0.21435
 Alpha  occ. eigenvalues --   -0.21216  -0.20965  -0.20955  -0.20582  -0.20481
 Alpha  occ. eigenvalues --   -0.14654  -0.13803  -0.11482
 Alpha virt. eigenvalues --   -0.10545  -0.07331  -0.04527  -0.04340  -0.00808
 Alpha virt. eigenvalues --   -0.00760  -0.00483   0.00209   0.00494   0.00603
 Alpha virt. eigenvalues --    0.01068   0.01958   0.02063   0.02216   0.02671

 Mulliken charges:
               1
     1  C    0.062694
     2  C   -0.001074
     3  O   -0.344801
     4  H    0.025005
     5  H    0.037187
     6  H    0.002373
     7  N   -0.098597
     8  C    0.120207
     9  C    0.071427
    10  O   -0.238435
    11  C    0.061800
    12  C    0.064133
    13  O   -0.367680
    14  O   -0.364251
    15  H    0.115658
    16  H   -0.042519
    17  H   -0.035806
    18  H    0.001616
    19  N   -0.156188
    20  C    0.084417
    21  C    0.070129
    22  O   -0.302365
    23  C    0.053501
    24  C    0.002619
    25  C   -0.049771
    26  C    0.034711
    27  N    0.134079
    28  H    0.115927
    29  H    0.002923
    30  H   -0.002092
    31  H    0.029482
    32  H    0.044277
    33  H   -0.019038
    34  H    0.015047
    35  H    0.038558
    36  H    0.101121
    37  H    0.055117
    38  H    0.144640
    39  H    0.141338
    40  H    0.159393
    41  N   -0.108516
    42  C    0.107889
    43  C    0.060445
    44  O   -0.259584
    45  C    0.098814
    46  C    0.138443
    47  O   -0.412489
    48  O   -0.444949
    49  H    0.148434
    50  H   -0.008551
    51  H    0.040091
    52  H    0.022068
    53  N   -0.116781
    54  C    0.196975
    55  C    0.054714
    56  O   -0.267132
    57  H    0.130092
    58  H    0.016508
    59  H    0.003162
    60  N   -0.144371
    61  C    0.101964
    62  C    0.124726
    63  O   -0.303507
    64  C    0.020242
    65  C    0.007137
    66  N   -0.034773
    67  O   -0.236901
    68  H    0.118328
    69  H    0.052778
    70  H    0.056821
    71  H   -0.011423
    72  H    0.119703
    73  H    0.157496
    74  N   -0.113360
    75  C    0.269235
    76  C   -0.035384
    77  O   -0.265668
    78  H    0.109461
    79  H   -0.009001
    80  H    0.041118
    81  N   -0.126293
    82  C    0.111425
    83  C    0.114078
    84  O   -0.303998
    85  C    0.148624
    86  C   -0.090489
    87  C   -0.007022
    88  C    0.022436
    89  C   -0.030305
    90  C   -0.044112
    91  C    0.199959
    92  O   -0.198505
    93  H    0.116536
    94  H    0.006979
    95  H    0.015192
    96  H    0.007111
    97  H   -0.026905
    98  H   -0.025584
    99  H   -0.033572
   100  H   -0.042968
   101  H    0.178009
   102  N   -0.110920
   103  C    0.156950
   104  C    0.040122
   105  O   -0.274434
   106  C   -0.129355
   107  C    0.026970
   108  C    0.068498
   109  C    0.025839
   110  H    0.139617
   111  H    0.010697
   112  H   -0.019572
   113  H    0.019309
   114  H   -0.033398
   115  H    0.015760
   116  H    0.015010
   117  H    0.016423
   118  H    0.004584
   119  H    0.008551
   120  H    0.006076
   121  N   -0.129813
   122  C    0.048902
   123  C    0.039008
   124  O   -0.281762
   125  C    0.250030
   126  O   -0.303068
   127  H    0.124893
   128  H    0.015826
   129  H   -0.001941
   130  H    0.028177
   131  H    0.167729
   132  N   -0.102578
   133  C    0.057810
   134  C    0.065219
   135  O   -0.267442
   136  C    0.091836
   137  H    0.121589
   138  H    0.013532
   139  H    0.011509
   140  H   -0.014556
   141  H    0.030155
   142  N   -0.126815
   143  C    0.064328
   144  C    0.055191
   145  O   -0.262272
   146  C    0.079980
   147  H    0.128956
   148  H    0.005283
   149  H   -0.013156
   150  H    0.026227
   151  H    0.041411
   152  N   -0.132511
   153  C    0.029427
   154  C    0.086013
   155  O   -0.250026
   156  C    0.105454
   157  C    0.032720
   158  C    0.104775
   159  O   -0.411453
   160  O   -0.440422
   161  H    0.118039
   162  H   -0.012653
   163  H    0.012402
   164  H    0.035311
   165  H    0.022634
   166  H   -0.031315
   167  N   -0.150449
   168  C    0.131291
   169  H    0.033525
   170  H    0.002527
   171  H    0.035758
   172  H    0.098438
   173  Ca   1.360816
   174  O   -0.311904
   175  H    0.204899
   176  H    0.194173
 Sum of Mulliken charges =  -0.00000

 Dipole moment (field-independent basis, Debye):
    X=            -42.1231    Y=              9.2174    Z=            -23.1466  Tot=             48.9396
 Quadrupole moment (field-independent basis, Debye-Ang):
   XX=             77.3175   YY=           -518.9129   ZZ=           -518.3958
   XY=           -161.7994   XZ=             77.2874   YZ=            -19.7708

 ESP charges:
               1
     1  C   -0.413929
     2  C    0.730717
     3  O   -0.630815
     4  H    0.109390
     5  H    0.112613
     6  H    0.098556
     7  N   -0.619136
     8  C    0.355806
     9  C    0.431909
    10  O   -0.465622
    11  C   -0.306287
    12  C    0.753064
    13  O   -0.680960
    14  O   -0.672691
    15  H    0.307682
    16  H   -0.039612
    17  H    0.020987
    18  H    0.071234
    19  N   -0.400458
    20  C   -0.215588
    21  C    0.774144
    22  O   -0.606949
    23  C    0.064834
    24  C   -0.029300
    25  C   -0.054770
    26  C    0.168325
    27  N   -0.404551
    28  H    0.268543
    29  H    0.103971
    30  H    0.002788
    31  H    0.060701
    32  H    0.036461
    33  H    0.015956
    34  H    0.020639
    35  H    0.032987
    36  H    0.068267
    37  H    0.038024
    38  H    0.294469
    39  H    0.290998
    40  H    0.319884
    41  N   -0.648024
    42  C    0.111468
    43  C    0.586079
    44  O   -0.489521
    45  C   -0.102421
    46  C    0.764942
    47  O   -0.742971
    48  O   -0.788892
    49  H    0.356199
    50  H    0.023926
    51  H    0.079280
    52  H    0.058989
    53  N   -0.524721
    54  C    0.061686
    55  C    0.658447
    56  O   -0.528154
    57  H    0.301421
    58  H    0.030854
    59  H    0.076844
    60  N   -0.781751
    61  C    0.310063
    62  C    0.518916
    63  O   -0.548082
    64  C   -0.325973
    65  C    0.864945
    66  N   -0.928561
    67  O   -0.579345
    68  H    0.307942
    69  H    0.075293
    70  H    0.054260
    71  H    0.037990
    72  H    0.407910
    73  H    0.435476
    74  N   -0.320068
    75  C   -0.252362
    76  C    0.726857
    77  O   -0.577400
    78  H    0.293901
    79  H    0.093802
    80  H    0.155459
    81  N   -0.762566
    82  C    0.315430
    83  C    0.526378
    84  O   -0.559821
    85  C   -0.469903
    86  C    0.251300
    87  C   -0.271764
    88  C   -0.161491
    89  C   -0.195316
    90  C   -0.314121
    91  C    0.356145
    92  O   -0.535210
    93  H    0.352013
    94  H    0.049199
    95  H    0.190038
    96  H    0.116255
    97  H    0.179844
    98  H    0.137822
    99  H    0.129442
   100  H    0.145215
   101  H    0.402896
   102  N   -0.436895
   103  C   -0.298170
   104  C    0.791831
   105  O   -0.567544
   106  C    0.443295
   107  C    0.084177
   108  C   -0.414237
   109  C   -0.347166
   110  H    0.308445
   111  H    0.102350
   112  H   -0.081609
   113  H    0.038946
   114  H    0.010690
   115  H    0.105138
   116  H    0.089473
   117  H    0.085279
   118  H    0.073919
   119  H    0.075247
   120  H    0.093925
   121  N   -0.655642
   122  C    0.056923
   123  C    0.402600
   124  O   -0.498884
   125  C    0.287349
   126  O   -0.584413
   127  H    0.362926
   128  H    0.066018
   129  H    0.017819
   130  H    0.001868
   131  H    0.358241
   132  N   -0.296810
   133  C    0.138444
   134  C    0.576443
   135  O   -0.515482
   136  C   -0.355089
   137  H    0.220468
   138  H    0.066690
   139  H    0.099675
   140  H    0.074856
   141  H    0.117853
   142  N   -0.748444
   143  C    0.642699
   144  C    0.382223
   145  O   -0.449589
   146  C   -0.210501
   147  H    0.287842
   148  H   -0.092952
   149  H   -0.019483
   150  H    0.072610
   151  H    0.078824
   152  N   -0.500142
   153  C    0.264593
   154  C    0.395425
   155  O   -0.469477
   156  C   -0.129419
   157  C    0.114898
   158  C    0.609243
   159  O   -0.732752
   160  O   -0.687514
   161  H    0.258827
   162  H   -0.025547
   163  H    0.013067
   164  H    0.065799
   165  H   -0.006605
   166  H   -0.024787
   167  N   -0.377819
   168  C    0.003134
   169  H    0.060055
   170  H    0.039154
   171  H    0.058109
   172  H    0.248498
   173  Ca   1.585564
   174  O   -0.812539
   175  H    0.427018
   176  H    0.432270
 Sum of ESP charges =  -0.00000

 Normal termination of Gaussian 16 at Tue Sep 17 10:23:25 2019.
