 Gaussian 16, Revision A.03,
 Gaussian 16:  ES64L-G16RevA.03 25-Dec-2016

 ----------------------------------------------------------------------
 #b3lyp/svp scf=(tight,noincore) Test #IOP(5/87=12) Density=Current Pop
 =(MK,readradii) iop(6/33=2) iop(6/42=6)
 ----------------------------------------------------------------------

 ----------------
 Ng-295_loop3_6.0
 ----------------
 Symbolic Z-matrix:
 Charge =  0 Multiplicity = 1

                         Standard orientation:
 ---------------------------------------------------------------------
 Center     Atomic      Atomic             Coordinates (Angstroms)
 Number     Number       Type             X           Y           Z
 ---------------------------------------------------------------------
      1          6           0       -1.325809    6.993253    4.507370
      2          6           0       -1.175243    6.151250    3.239711
      3          8           0       -0.602976    6.662240    2.280233
      4          1           0       -0.875389    7.972814    4.347812
      5          1           0       -2.383724    7.114201    4.740552
      6          1           0       -0.824904    6.494114    5.337275
      7          7           0       -1.667595    4.913361    3.169562
      8          6           0       -1.981313    4.131012    1.992357
      9          6           0       -3.263136    4.713450    1.406699
     10          8           0       -4.203555    5.000563    2.128072
     11          6           0       -2.203335    2.679435    2.401539
     12          6           0       -2.118167    1.708994    1.227831
     13          8           0       -2.645684    0.587937    1.444063
     14          8           0       -1.686504    1.912923    0.076406
     15          1           0       -2.020417    4.611949    4.068042
     16          1           0       -1.210746    4.140397    1.219609
     17          1           0       -3.120762    2.503431    2.957101
     18          1           0       -1.403520    2.421569    3.106026
     19          7           0       -3.384023    4.757092    0.070892
     20          6           0       -4.401112    5.604491   -0.532387
     21          6           0       -5.338627    4.889369   -1.489918
     22          8           0       -6.303006    5.507839   -1.945843
     23          6           0       -3.729270    6.853454   -1.094900
     24          6           0       -2.472954    7.353262   -0.384363
     25          6           0       -2.036881    8.759206   -0.783564
     26          6           0       -0.928782    9.343741    0.086513
     27          7           0       -0.725138   10.770838   -0.200756
     28          1           0       -2.682401    4.443940   -0.577692
     29          1           0       -5.072315    6.006623    0.231338
     30          1           0       -4.427664    7.686496   -1.104271
     31          1           0       -3.326289    6.617973   -2.077221
     32          1           0       -1.674829    6.619157   -0.538592
     33          1           0       -2.678667    7.288887    0.687243
     34          1           0       -2.900111    9.396218   -0.598767
     35          1           0       -1.743650    8.835741   -1.832973
     36          1           0        0.052927    8.909630   -0.068390
     37          1           0       -1.153885    9.326881    1.149972
     38          1           0       -1.551364   11.303319    0.035071
     39          1           0        0.030495   11.147329    0.343923
     40          1           0       -0.560275   10.889396   -1.190535
     41          7           0       -4.958524    3.670221   -1.870179
     42          6           0       -5.754962    2.916778   -2.822340
     43          6           0       -6.972983    2.170693   -2.273996
     44          8           0       -7.920912    1.864512   -2.982010
     45          6           0       -4.866166    1.823232   -3.398448
     46          6           0       -3.944206    0.959928   -2.551042
     47          8           0       -4.264135    0.783412   -1.346099
     48          8           0       -2.927038    0.440331   -3.055710
     49          1           0       -4.004070    3.384559   -1.683586
     50          1           0       -6.059173    3.563782   -3.639739
     51          1           0       -4.268626    2.238407   -4.215867
     52          1           0       -5.440406    1.077379   -3.951396
     53          7           0       -7.093850    1.969601   -0.961955
     54          6           0       -8.141943    1.199066   -0.322362
     55          6           0       -7.965105   -0.307377   -0.261891
     56          8           0       -8.880851   -1.011707    0.166511
     57          1           0       -6.367705    2.308604   -0.357067
     58          1           0       -9.124606    1.319378   -0.780181
     59          1           0       -8.149221    1.530845    0.709418
     60          7           0       -6.794374   -0.841326   -0.638838
     61          6           0       -6.393064   -2.189843   -0.302013
     62          6           0       -5.116711   -2.288034    0.530982
     63          8           0       -4.208373   -1.477959    0.344164
     64          6           0       -6.195196   -2.941886   -1.611738
     65          6           0       -5.924544   -4.440586   -1.483894
     66          7           0       -6.871180   -5.284047   -1.069220
     67          8           0       -4.809123   -4.842874   -1.795987
     68          1           0       -6.112789   -0.164417   -0.939894
     69          1           0       -7.176140   -2.709412    0.249929
     70          1           0       -5.369964   -2.517150   -2.178828
     71          1           0       -7.027715   -2.968676   -2.315154
     72          1           0       -7.762700   -4.912807   -0.771441
     73          1           0       -6.824702   -6.293357   -1.150046
     74          7           0       -5.050113   -3.234704    1.467295
     75          6           0       -4.117011   -3.157908    2.566669
     76          6           0       -2.659473   -3.504100    2.307570
     77          8           0       -1.810388   -2.982384    3.034940
     78          1           0       -5.847586   -3.842151    1.565508
     79          1           0       -4.325272   -3.925781    3.321915
     80          1           0       -4.278419   -2.160870    2.972210
     81          7           0       -2.373461   -4.269177    1.252130
     82          6           0       -1.031411   -4.771274    1.033724
     83          6           0       -0.079663   -3.658605    0.618100
     84          8           0       -0.521187   -2.627822    0.131847
     85          6           0       -1.044271   -5.882761   -0.005089
     86          6           0       -1.757391   -7.163294    0.336518
     87          6           0       -3.064859   -7.407877   -0.113935
     88          6           0       -1.083723   -8.029609    1.204947
     89          6           0       -3.739417   -8.542736    0.347222
     90          6           0       -1.725725   -9.203470    1.631191
     91          6           0       -3.052759   -9.419345    1.210621
     92          8           0       -3.760024  -10.443327    1.758012
     93          1           0       -3.101396   -4.663023    0.675332
     94          1           0       -0.665925   -5.105755    2.005960
     95          1           0        0.012489   -6.062901   -0.207595
     96          1           0       -1.403272   -5.488550   -0.963533
     97          1           0       -3.588837   -6.696944   -0.735081
     98          1           0       -0.103830   -7.821649    1.619992
     99          1           0       -4.763596   -8.702979    0.058121
    100          1           0       -1.242702   -9.827416    2.366161
    101          1           0       -3.266728  -10.963463    2.386596
    102          7           0        1.185645   -3.935161    0.952632
    103          6           0        2.407047   -3.192351    0.757669
    104          6           0        2.515707   -2.633690   -0.661588
    105          8           0        1.730917   -2.876829   -1.574324
    106          6           0        2.557123   -2.214874    1.928060
    107          6           0        2.698677   -3.053336    3.194332
    108          6           0        1.665208   -1.002295    2.113372
    109          6           0        3.115749   -2.325345    4.471352
    110          1           0        1.336082   -4.894269    1.236323
    111          1           0        3.220517   -3.913370    0.815084
    112          1           0        3.541369   -1.766918    1.743953
    113          1           0        3.545586   -3.719322    3.026684
    114          1           0        1.777590   -3.607603    3.381378
    115          1           0        1.479739   -0.432165    1.203288
    116          1           0        0.725512   -1.385681    2.518943
    117          1           0        2.129750   -0.382503    2.879570
    118          1           0        4.030645   -1.799463    4.207132
    119          1           0        2.281077   -1.705807    4.805412
    120          1           0        3.223778   -3.088411    5.238333
    121          7           0        3.659519   -2.011940   -0.948333
    122          6           0        4.155262   -1.684265   -2.267033
    123          6           0        5.577170   -2.135403   -2.562418
    124          8           0        5.949980   -2.389447   -3.703941
    125          6           0        4.003601   -0.192022   -2.531622
    126          8           0        4.616179    0.495862   -1.462854
    127          1           0        4.147905   -1.680289   -0.127306
    128          1           0        3.590297   -2.208972   -3.049782
    129          1           0        2.969374    0.139632   -2.640621
    130          1           0        4.633600    0.041859   -3.391216
    131          1           0        4.516739    1.443246   -1.531227
    132          7           0        6.351185   -2.357346   -1.501079
    133          6           0        7.765004   -2.687284   -1.389469
    134          6           0        8.620308   -2.158900   -2.528357
    135          8           0        9.395990   -2.895284   -3.133465
    136          6           0        7.916665   -4.179528   -1.124879
    137          1           0        5.921011   -2.138772   -0.614018
    138          1           0        8.086267   -2.127898   -0.511815
    139          1           0        7.561350   -4.723411   -2.002913
    140          1           0        8.934185   -4.493357   -0.896704
    141          1           0        7.184826   -4.465308   -0.362421
    142          7           0        8.618202   -0.876447   -2.911777
    143          6           0        8.131169    0.283902   -2.190329
    144          6           0        9.129936    0.825331   -1.176417
    145          8           0       10.337790    0.815360   -1.396619
    146          6           0        7.716255    1.321186   -3.217552
    147          1           0        9.276851   -0.738186   -3.660753
    148          1           0        7.218587    0.040909   -1.644207
    149          1           0        6.796603    1.011527   -3.706276
    150          1           0        7.444374    2.289234   -2.779529
    151          1           0        8.535279    1.451757   -3.914367
    152          7           0        8.827108    1.420599   -0.015705
    153          6           0        7.536342    1.497971    0.647649
    154          6           0        7.292461    0.446584    1.712171
    155          8           0        6.162044    0.033520    1.944409
    156          6           0        7.203957    2.847492    1.281930
    157          6           0        6.834497    3.913626    0.253407
    158          6           0        6.349619    5.211773    0.877352
    159          8           0        7.188294    5.970805    1.430157
    160          8           0        5.142476    5.517409    0.991340
    161          1           0        9.600530    1.758881    0.533825
    162          1           0        6.721588    1.342289   -0.064206
    163          1           0        8.080956    3.111150    1.873923
    164          1           0        6.380061    2.693227    1.974893
    165          1           0        6.083006    3.618828   -0.487508
    166          1           0        7.716358    4.211391   -0.305214
    167          7           0        8.325494    0.115835    2.492138
    168          6           0        8.183215   -0.513195    3.789665
    169          1           0        7.198283   -0.974377    3.863889
    170          1           0        8.951772   -1.277790    3.909730
    171          1           0        8.291566    0.238006    4.571863
    172          1           0        9.197738    0.595716    2.331187
    173         20           0       -2.007727   -0.536922   -0.828954
    174          8           0        0.410678    0.470293   -0.919158
    175          1           0        0.768580    1.066102   -0.259978
    176          1           0        0.760018    0.804313   -1.754198
 ---------------------------------------------------------------------

 SCF Done:  E(RB3LYP) =  -5333.45181542     A.U. after   45 cycles

 The electronic state is 1-A.
 Alpha  occ. eigenvalues -- -145.39307 -19.17818 -19.17492 -19.14714 -19.13428
 Alpha  occ. eigenvalues --  -19.13409 -19.11971 -19.10939 -19.10671 -19.10432
 Alpha  occ. eigenvalues --  -19.09979 -19.09879 -19.09512 -19.08896 -19.08838
 Alpha  occ. eigenvalues --  -19.08374 -19.08016 -19.07436 -19.07205 -19.07124
 Alpha  occ. eigenvalues --  -19.06612 -19.04435 -18.95721 -18.95240 -15.45122
 Alpha  occ. eigenvalues --  -14.55115 -14.39643 -14.38666 -14.38314 -14.37264
 Alpha  occ. eigenvalues --  -14.36766 -14.36423 -14.36252 -14.35975 -14.35902
 Alpha  occ. eigenvalues --  -14.35144 -14.34955 -14.34389 -14.34119 -14.33098
 Alpha  occ. eigenvalues --  -12.58715 -12.58696 -12.58677 -10.32074 -10.31945
 Alpha  occ. eigenvalues --  -10.31449 -10.31203 -10.29936 -10.29747 -10.29023
 Alpha  occ. eigenvalues --  -10.28825 -10.28605 -10.28599 -10.27811 -10.27178
 Alpha  occ. eigenvalues --  -10.27096 -10.27051 -10.27037 -10.26709 -10.26663
 Alpha  occ. eigenvalues --  -10.26573 -10.26210 -10.25797 -10.25389 -10.25327
 Alpha  occ. eigenvalues --  -10.25261 -10.25109 -10.24360 -10.23853 -10.23813
 Alpha  occ. eigenvalues --  -10.23618 -10.23329 -10.22827 -10.22491 -10.22425
 Alpha  occ. eigenvalues --  -10.21929 -10.21703 -10.21525 -10.21377 -10.21311
 Alpha  occ. eigenvalues --  -10.21126 -10.20933 -10.20922 -10.20760 -10.20571
 Alpha  occ. eigenvalues --  -10.20420 -10.20378 -10.18872 -10.18723 -10.18443
 Alpha  occ. eigenvalues --  -10.18163 -10.17955 -10.17796 -10.17765 -10.15961
 Alpha  occ. eigenvalues --  -10.15586 -10.12323  -1.81910  -1.11008  -1.09483
 Alpha  occ. eigenvalues --   -1.09286  -1.09184  -1.06533  -1.06467  -1.06012
 Alpha  occ. eigenvalues --   -1.04983  -1.04337  -1.04286  -1.03558  -1.03433
 Alpha  occ. eigenvalues --   -1.03065  -1.03004  -1.02728  -1.02528  -1.02422
 Alpha  occ. eigenvalues --   -1.02163  -1.02159  -1.01427  -1.01402  -1.00982
 Alpha  occ. eigenvalues --   -1.00521  -0.96091  -0.95925  -0.94107  -0.93981
 Alpha  occ. eigenvalues --   -0.93892  -0.93159  -0.92867  -0.92618  -0.92274
 Alpha  occ. eigenvalues --   -0.92226  -0.92140  -0.91679  -0.90346  -0.90311
 Alpha  occ. eigenvalues --   -0.90001  -0.89618  -0.89591  -0.86767  -0.86722
 Alpha  occ. eigenvalues --   -0.83568  -0.81254  -0.81106  -0.80445  -0.79305
 Alpha  occ. eigenvalues --   -0.79301  -0.78907  -0.78218  -0.76870  -0.76674
 Alpha  occ. eigenvalues --   -0.76494  -0.76345  -0.75762  -0.75424  -0.75156
 Alpha  occ. eigenvalues --   -0.73506  -0.73358  -0.73179  -0.71762  -0.71548
 Alpha  occ. eigenvalues --   -0.71229  -0.69990  -0.69340  -0.68160  -0.67569
 Alpha  occ. eigenvalues --   -0.66912  -0.66627  -0.66332  -0.65573  -0.65499
 Alpha  occ. eigenvalues --   -0.65118  -0.64499  -0.63920  -0.63521  -0.62703
 Alpha  occ. eigenvalues --   -0.62422  -0.62328  -0.61807  -0.61278  -0.61057
 Alpha  occ. eigenvalues --   -0.60894  -0.60182  -0.60032  -0.59295  -0.59151
 Alpha  occ. eigenvalues --   -0.58768  -0.58200  -0.58198  -0.57828  -0.57725
 Alpha  occ. eigenvalues --   -0.57630  -0.57574  -0.56981  -0.56795  -0.56639
 Alpha  occ. eigenvalues --   -0.56532  -0.55735  -0.55187  -0.54653  -0.54556
 Alpha  occ. eigenvalues --   -0.54032  -0.53421  -0.53277  -0.53108  -0.52678
 Alpha  occ. eigenvalues --   -0.52440  -0.51750  -0.51367  -0.51008  -0.50873
 Alpha  occ. eigenvalues --   -0.50810  -0.50474  -0.50190  -0.49881  -0.49778
 Alpha  occ. eigenvalues --   -0.49520  -0.49410  -0.49050  -0.48990  -0.48947
 Alpha  occ. eigenvalues --   -0.48500  -0.47938  -0.47746  -0.47729  -0.47342
 Alpha  occ. eigenvalues --   -0.47171  -0.47108  -0.46816  -0.46695  -0.46521
 Alpha  occ. eigenvalues --   -0.46355  -0.46301  -0.46156  -0.46113  -0.45636
 Alpha  occ. eigenvalues --   -0.45632  -0.45552  -0.45507  -0.45321  -0.45051
 Alpha  occ. eigenvalues --   -0.44768  -0.44549  -0.44445  -0.44276  -0.44083
 Alpha  occ. eigenvalues --   -0.43693  -0.43340  -0.43285  -0.43115  -0.42976
 Alpha  occ. eigenvalues --   -0.42852  -0.42836  -0.42644  -0.42430  -0.42370
 Alpha  occ. eigenvalues --   -0.42257  -0.42227  -0.42073  -0.41959  -0.41676
 Alpha  occ. eigenvalues --   -0.41562  -0.41434  -0.41433  -0.41203  -0.41067
 Alpha  occ. eigenvalues --   -0.40868  -0.40859  -0.40814  -0.40553  -0.40289
 Alpha  occ. eigenvalues --   -0.40250  -0.40152  -0.40070  -0.39731  -0.39603
 Alpha  occ. eigenvalues --   -0.39577  -0.39454  -0.39300  -0.39259  -0.39085
 Alpha  occ. eigenvalues --   -0.38964  -0.38868  -0.38747  -0.38694  -0.38558
 Alpha  occ. eigenvalues --   -0.38083  -0.37827  -0.37772  -0.37743  -0.37455
 Alpha  occ. eigenvalues --   -0.37278  -0.37074  -0.36769  -0.36642  -0.36470
 Alpha  occ. eigenvalues --   -0.36434  -0.36289  -0.36193  -0.36115  -0.36108
 Alpha  occ. eigenvalues --   -0.35605  -0.35454  -0.35340  -0.35293  -0.34940
 Alpha  occ. eigenvalues --   -0.34810  -0.34765  -0.34615  -0.34400  -0.34228
 Alpha  occ. eigenvalues --   -0.33857  -0.33184  -0.33086  -0.32949  -0.31534
 Alpha  occ. eigenvalues --   -0.30964  -0.30869  -0.30385  -0.29993  -0.29619
 Alpha  occ. eigenvalues --   -0.29348  -0.29142  -0.28712  -0.28305  -0.28086
 Alpha  occ. eigenvalues --   -0.27940  -0.27648  -0.27523  -0.27245  -0.27088
 Alpha  occ. eigenvalues --   -0.26926  -0.26668  -0.26524  -0.26422  -0.26290
 Alpha  occ. eigenvalues --   -0.26135  -0.25992  -0.25936  -0.25772  -0.25636
 Alpha  occ. eigenvalues --   -0.25604  -0.25339  -0.24859  -0.24855  -0.24717
 Alpha  occ. eigenvalues --   -0.24377  -0.24217  -0.23851  -0.23576  -0.23258
 Alpha  occ. eigenvalues --   -0.23101  -0.22881  -0.22550  -0.22380  -0.20769
 Alpha  occ. eigenvalues --   -0.13915  -0.12740  -0.09704
 Alpha virt. eigenvalues --   -0.08526  -0.03762  -0.02851  -0.02460  -0.02157
 Alpha virt. eigenvalues --   -0.02000  -0.01787  -0.01082  -0.00577  -0.00210
 Alpha virt. eigenvalues --   -0.00085   0.00260   0.00735   0.00850   0.00996

 Mulliken charges:
               1
     1  C    0.044910
     2  C    0.016083
     3  O   -0.311618
     4  H    0.015720
     5  H    0.035401
     6  H    0.037946
     7  N   -0.098254
     8  C    0.131254
     9  C    0.073546
    10  O   -0.272275
    11  C    0.082200
    12  C    0.108077
    13  O   -0.426832
    14  O   -0.436661
    15  H    0.117091
    16  H   -0.000058
    17  H    0.020087
    18  H    0.024074
    19  N   -0.146368
    20  C    0.103826
    21  C    0.077503
    22  O   -0.272144
    23  C    0.042093
    24  C    0.009802
    25  C   -0.014981
    26  C    0.065421
    27  N    0.116204
    28  H    0.125879
    29  H    0.032621
    30  H    0.010790
    31  H   -0.017100
    32  H    0.016392
    33  H    0.022819
    34  H   -0.002299
    35  H    0.019772
    36  H    0.080233
    37  H    0.057046
    38  H    0.130445
    39  H    0.147255
    40  H    0.139884
    41  N   -0.135850
    42  C    0.202618
    43  C    0.039355
    44  O   -0.266984
    45  C    0.021879
    46  C    0.094083
    47  O   -0.414816
    48  O   -0.430737
    49  H    0.136416
    50  H    0.015781
    51  H    0.003172
    52  H    0.032805
    53  N   -0.146298
    54  C    0.233122
    55  C    0.002494
    56  O   -0.302194
    57  H    0.126442
    58  H    0.047068
    59  H    0.030078
    60  N   -0.127796
    61  C    0.131454
    62  C    0.108660
    63  O   -0.289942
    64  C    0.118753
    65  C   -0.049553
    66  N   -0.050983
    67  O   -0.260440
    68  H    0.146014
    69  H   -0.013358
    70  H    0.018587
    71  H    0.035527
    72  H    0.125295
    73  H    0.138589
    74  N   -0.135900
    75  C    0.190060
    76  C    0.044902
    77  O   -0.277612
    78  H    0.123906
    79  H    0.036304
    80  H    0.063681
    81  N   -0.110322
    82  C    0.045662
    83  C    0.178954
    84  O   -0.339948
    85  C    0.116336
    86  C    0.033730
    87  C   -0.017431
    88  C   -0.026096
    89  C   -0.016325
    90  C   -0.036143
    91  C    0.178181
    92  O   -0.197408
    93  H    0.123209
    94  H    0.001806
    95  H   -0.012782
    96  H    0.017354
    97  H   -0.018999
    98  H   -0.034407
    99  H   -0.034867
   100  H   -0.036992
   101  H    0.170434
   102  N   -0.124076
   103  C    0.083352
   104  C    0.103462
   105  O   -0.264224
   106  C   -0.100619
   107  C   -0.041994
   108  C    0.082527
   109  C    0.045196
   110  H    0.127998
   111  H    0.014454
   112  H   -0.001953
   113  H   -0.025279
   114  H    0.006863
   115  H   -0.023948
   116  H    0.040340
   117  H    0.024963
   118  H    0.035452
   119  H    0.019619
   120  H    0.003447
   121  N   -0.161792
   122  C    0.110381
   123  C    0.053831
   124  O   -0.254562
   125  C    0.243641
   126  O   -0.317021
   127  H    0.143588
   128  H    0.044025
   129  H   -0.020517
   130  H    0.008331
   131  H    0.185491
   132  N   -0.140434
   133  C    0.054429
   134  C    0.053211
   135  O   -0.257054
   136  C    0.109222
   137  H    0.106294
   138  H    0.013805
   139  H    0.025689
   140  H    0.032095
   141  H   -0.026681
   142  N   -0.086793
   143  C    0.031496
   144  C    0.063121
   145  O   -0.277030
   146  C    0.056491
   147  H    0.127643
   148  H    0.007747
   149  H    0.014991
   150  H    0.020418
   151  H    0.019885
   152  N   -0.088615
   153  C    0.046601
   154  C    0.050507
   155  O   -0.291434
   156  C    0.071594
   157  C    0.098737
   158  C    0.003832
   159  O   -0.385970
   160  O   -0.373358
   161  H    0.118902
   162  H   -0.003424
   163  H   -0.022091
   164  H    0.010550
   165  H   -0.061866
   166  H   -0.025070
   167  N   -0.147486
   168  C    0.116001
   169  H    0.040618
   170  H    0.019655
   171  H    0.030141
   172  H    0.104397
   173  Ca   1.345986
   174  O   -0.285494
   175  H    0.193069
   176  H    0.190391
 Sum of Mulliken charges =  -0.00000

 Dipole moment (field-independent basis, Debye):
    X=            -16.1313    Y=              5.0393    Z=              6.9343  Tot=             18.2674
 Quadrupole moment (field-independent basis, Debye-Ang):
   XX=           -800.9963   YY=           -247.5625   ZZ=           -570.3072
   XY=            -47.0804   XZ=              5.7187   YZ=            -75.0303

 ESP charges:
               1
     1  C   -0.453044
     2  C    0.872692
     3  O   -0.665928
     4  H    0.120851
     5  H    0.106464
     6  H    0.123054
     7  N   -0.826731
     8  C    0.574716
     9  C    0.537755
    10  O   -0.557667
    11  C   -0.413933
    12  C    0.797999
    13  O   -0.730735
    14  O   -0.846053
    15  H    0.336884
    16  H   -0.027256
    17  H    0.130439
    18  H    0.105665
    19  N   -0.684105
    20  C    0.367186
    21  C    0.246954
    22  O   -0.496097
    23  C   -0.257452
    24  C    0.421402
    25  C   -0.384777
    26  C    0.296905
    27  N   -0.331322
    28  H    0.345655
    29  H    0.055913
    30  H    0.052214
    31  H    0.034175
    32  H   -0.066422
    33  H   -0.056140
    34  H    0.078911
    35  H    0.090495
    36  H    0.049702
    37  H    0.018068
    38  H    0.262843
    39  H    0.277300
    40  H    0.265671
    41  N   -0.170064
    42  C   -0.065546
    43  C    0.420199
    44  O   -0.516389
    45  C   -0.334907
    46  C    0.819474
    47  O   -0.749984
    48  O   -0.756943
    49  H    0.230627
    50  H    0.150401
    51  H    0.082383
    52  H    0.122819
    53  N   -0.101197
    54  C   -0.475451
    55  C    0.651049
    56  O   -0.581329
    57  H    0.232685
    58  H    0.201394
    59  H    0.169277
    60  N   -0.327952
    61  C    0.094015
    62  C    0.362991
    63  O   -0.419598
    64  C   -0.479252
    65  C    0.872747
    66  N   -0.965970
    67  O   -0.604407
    68  H    0.274985
    69  H    0.038191
    70  H    0.123980
    71  H    0.158080
    72  H    0.407915
    73  H    0.426023
    74  N   -0.126768
    75  C   -0.409460
    76  C    0.639372
    77  O   -0.536819
    78  H    0.226863
    79  H    0.161584
    80  H    0.189995
    81  N   -0.410153
    82  C    0.250828
    83  C    0.409495
    84  O   -0.558203
    85  C   -0.344972
    86  C    0.111593
    87  C   -0.153442
    88  C   -0.123578
    89  C   -0.257173
    90  C   -0.349834
    91  C    0.411484
    92  O   -0.565529
    93  H    0.177846
    94  H    0.001513
    95  H    0.084140
    96  H    0.153543
    97  H    0.145701
    98  H    0.134132
    99  H    0.156715
   100  H    0.160805
   101  H    0.415077
   102  N   -0.228186
   103  C   -0.644561
   104  C    0.976704
   105  O   -0.566568
   106  C    0.421564
   107  C    0.246696
   108  C   -0.364183
   109  C   -0.321185
   110  H    0.257475
   111  H    0.188909
   112  H   -0.046048
   113  H   -0.066780
   114  H   -0.058128
   115  H    0.093022
   116  H    0.097447
   117  H    0.081373
   118  H    0.067406
   119  H    0.082351
   120  H    0.075785
   121  N   -0.654746
   122  C   -0.124310
   123  C    0.649097
   124  O   -0.532294
   125  C    0.121305
   126  O   -0.608216
   127  H    0.279050
   128  H    0.138745
   129  H    0.052167
   130  H    0.020658
   131  H    0.431099
   132  N   -0.486499
   133  C    0.377172
   134  C    0.536628
   135  O   -0.535386
   136  C   -0.358505
   137  H    0.295463
   138  H   -0.052274
   139  H    0.105129
   140  H    0.102831
   141  H    0.069417
   142  N   -0.683236
   143  C    0.581184
   144  C    0.388020
   145  O   -0.546034
   146  C   -0.321415
   147  H    0.353239
   148  H   -0.065541
   149  H    0.088232
   150  H    0.085984
   151  H    0.081217
   152  N   -0.473733
   153  C   -0.192577
   154  C    0.530063
   155  O   -0.523581
   156  C    0.221733
   157  C   -0.302269
   158  C    0.690817
   159  O   -0.678759
   160  O   -0.671909
   161  H    0.343134
   162  H    0.093432
   163  H   -0.018878
   164  H    0.019813
   165  H    0.017113
   166  H    0.071744
   167  N   -0.365406
   168  C   -0.040101
   169  H    0.077446
   170  H    0.048750
   171  H    0.057744
   172  H    0.272494
   173  Ca   1.599025
   174  O   -0.673739
   175  H    0.382751
   176  H    0.376367
 Sum of ESP charges =  -0.00000

 Normal termination of Gaussian 16 at Wed Sep 18 11:24:11 2019.
