 Gaussian 16, Revision A.03,
 Gaussian 16:  ES64L-G16RevA.03 25-Dec-2016

 ----------------------------------------------------------------------
 #b3lyp/svp scf=(tight,noincore) Test #IOP(5/87=12) Density=Current Pop
 =(MK,readradii) iop(6/33=2) iop(6/42=6)
 ----------------------------------------------------------------------

 -----------------
 Ng-293_loop3_15.0
 -----------------
 Symbolic Z-matrix:
 Charge =  0 Multiplicity = 1

                         Standard orientation:
 ---------------------------------------------------------------------
 Center     Atomic      Atomic             Coordinates (Angstroms)
 Number     Number       Type             X           Y           Z
 ---------------------------------------------------------------------
      1          6           0       -8.912743    1.617755   -6.829756
      2          6           0       -9.605552    1.516442   -5.484263
      3          8           0      -10.687891    0.929935   -5.451840
      4          1           0       -7.957564    2.127499   -6.708366
      5          1           0       -8.741700    0.617132   -7.227801
      6          1           0       -9.539456    2.182444   -7.520367
      7          7           0       -9.024005    2.137807   -4.445943
      8          6           0       -9.319165    1.877945   -3.051076
      9          6           0       -8.194233    1.350975   -2.181749
     10          8           0       -7.021752    1.634232   -2.463799
     11          6           0       -9.870671    3.135863   -2.367568
     12          6           0      -10.397532    2.919253   -0.960693
     13          8           0      -11.013319    1.877858   -0.663872
     14          8           0      -10.284929    3.867879   -0.147964
     15          1           0       -8.243093    2.722773   -4.692701
     16          1           0      -10.094766    1.122969   -3.105430
     17          1           0      -10.733804    3.457772   -2.959747
     18          1           0       -9.150922    3.953075   -2.382549
     19          7           0       -8.491395    0.615226   -1.110036
     20          6           0       -7.696870    0.244099    0.042741
     21          6           0       -7.140665    1.449243    0.796176
     22          8           0       -7.585483    2.561988    0.555270
     23          6           0       -6.641157   -0.758967   -0.415765
     24          6           0       -7.101882   -2.069929   -1.052641
     25          6           0       -7.903490   -3.014617   -0.176063
     26          6           0       -7.305147   -4.402729   -0.411290
     27          7           0       -8.318403   -5.393242   -0.788509
     28          1           0       -9.466002    0.379277   -0.969434
     29          1           0       -8.306179   -0.357020    0.710797
     30          1           0       -6.052418   -0.980806    0.475736
     31          1           0       -5.861261   -0.302291   -1.027818
     32          1           0       -6.154388   -2.494799   -1.409768
     33          1           0       -7.679809   -1.814204   -1.932530
     34          1           0       -8.890693   -3.027949   -0.638937
     35          1           0       -7.928545   -2.801231    0.895263
     36          1           0       -6.822097   -4.693709    0.522034
     37          1           0       -6.488745   -4.288337   -1.126344
     38          1           0       -7.952497   -6.322431   -0.940896
     39          1           0       -9.055755   -5.604389   -0.131676
     40          1           0       -8.751012   -5.111958   -1.662996
     41          7           0       -6.169813    1.255459    1.697839
     42          6           0       -5.543595    2.376231    2.373947
     43          6           0       -4.331030    2.854604    1.571298
     44          8           0       -3.886300    2.260809    0.599278
     45          6           0       -5.171329    2.056741    3.812260
     46          6           0       -4.367704    0.777884    3.979926
     47          8           0       -4.044954    0.047011    3.013408
     48          8           0       -4.036409    0.360758    5.112644
     49          1           0       -5.678631    0.379365    1.756134
     50          1           0       -6.152753    3.282676    2.328317
     51          1           0       -6.125911    1.907389    4.318785
     52          1           0       -4.604539    2.866152    4.246660
     53          7           0       -3.767592    3.970221    2.053933
     54          6           0       -2.549742    4.531683    1.511991
     55          6           0       -1.349594    3.858209    2.161820
     56          8           0       -1.281242    3.739863    3.382239
     57          1           0       -4.286986    4.368723    2.830029
     58          1           0       -2.492998    5.595134    1.766064
     59          1           0       -2.536897    4.365413    0.435102
     60          7           0       -0.404499    3.358301    1.354178
     61          6           0        0.678647    2.503778    1.805937
     62          6           0        2.061256    3.040537    1.484095
     63          8           0        3.024890    2.287989    1.336173
     64          6           0        0.468917    1.065085    1.333945
     65          6           0       -0.762376    0.388023    1.932948
     66          7           0       -1.711637    0.007118    1.077836
     67          8           0       -0.881818    0.085179    3.117397
     68          1           0       -0.313673    3.636987    0.387439
     69          1           0        0.636377    2.527190    2.887910
     70          1           0        1.247695    0.336812    1.545660
     71          1           0        0.365551    1.114402    0.252842
     72          1           0       -1.735161    0.356315    0.132369
     73          1           0       -2.630741   -0.137277    1.476580
     74          7           0        2.218935    4.362742    1.371347
     75          6           0        3.542482    4.940759    1.276903
     76          6           0        4.502064    4.431642    0.215676
     77          8           0        4.068748    4.375132   -0.929726
     78          1           0        1.457807    5.022235    1.473094
     79          1           0        4.053568    4.734671    2.220576
     80          1           0        3.390293    6.021514    1.201359
     81          7           0        5.750142    4.031495    0.522730
     82          6           0        6.569886    3.280686   -0.409152
     83          6           0        6.116570    1.945290   -0.981622
     84          8           0        6.771654    1.336652   -1.821995
     85          6           0        7.088544    4.159622   -1.545183
     86          6           0        7.526981    5.568510   -1.216387
     87          6           0        8.722113    5.745059   -0.510561
     88          6           0        6.940217    6.683138   -1.812889
     89          6           0        9.154940    7.057931   -0.335549
     90          6           0        7.356822    8.014663   -1.659987
     91          6           0        8.582708    8.166476   -0.979504
     92          8           0        9.263327    9.355475   -0.923465
     93          1           0        5.983006    3.986945    1.503796
     94          1           0        7.462376    3.015042    0.163732
     95          1           0        6.382687    4.197074   -2.375161
     96          1           0        7.974092    3.681579   -1.965042
     97          1           0        9.207282    4.898776   -0.042785
     98          1           0        6.207406    6.402799   -2.542956
     99          1           0       10.035109    7.197466    0.280676
    100          1           0        6.782640    8.848045   -2.041680
    101          1           0        8.701232    9.940806   -1.419284
    102          7           0        5.003423    1.355556   -0.549399
    103          6           0        4.527355    0.018357   -0.871511
    104          6           0        5.390078   -1.073284   -0.254559
    105          8           0        4.830765   -1.897961    0.459567
    106          6           0        4.057786   -0.217312   -2.304293
    107          6           0        3.325532    1.004258   -2.862119
    108          6           0        3.313460   -1.533502   -2.506838
    109          6           0        2.142793    1.577441   -2.098711
    110          1           0        4.512305    1.793039    0.207180
    111          1           0        3.611846   -0.030376   -0.281624
    112          1           0        4.967508   -0.243309   -2.903234
    113          1           0        2.971322    0.715153   -3.850225
    114          1           0        4.025741    1.840645   -2.923473
    115          1           0        3.156337   -1.724154   -3.561003
    116          1           0        3.891494   -2.344886   -2.055135
    117          1           0        2.312613   -1.638232   -2.096064
    118          1           0        1.333698    0.873367   -1.900108
    119          1           0        2.511912    1.987735   -1.159504
    120          1           0        1.633376    2.385455   -2.621691
    121          7           0        6.667666   -1.107929   -0.619620
    122          6           0        7.636586   -1.941192    0.083138
    123          6           0        7.500765   -3.439132   -0.190040
    124          8           0        7.833499   -4.131731    0.763478
    125          6           0        9.029166   -1.433744   -0.257181
    126          8           0        9.235656   -1.451790   -1.654119
    127          1           0        6.995459   -0.511471   -1.356430
    128          1           0        7.526865   -1.838284    1.159554
    129          1           0        9.776866   -2.150208    0.086801
    130          1           0        9.230064   -0.420859    0.079129
    131          1           0        9.908856   -0.797354   -1.831079
    132          7           0        6.927174   -3.839980   -1.319515
    133          6           0        6.684821   -5.220077   -1.690996
    134          6           0        5.619753   -5.916254   -0.863731
    135          8           0        5.314015   -7.074051   -1.118744
    136          6           0        7.993639   -5.982866   -1.820406
    137          1           0        6.597935   -3.082809   -1.913563
    138          1           0        6.310427   -5.154464   -2.722318
    139          1           0        8.669920   -5.369418   -2.423171
    140          1           0        8.431951   -6.248261   -0.859808
    141          1           0        7.826921   -6.878702   -2.426774
    142          7           0        4.874421   -5.233052    0.015311
    143          6           0        3.701972   -5.735615    0.704798
    144          6           0        2.387131   -5.424588    0.005187
    145          8           0        2.382016   -4.528230   -0.840400
    146          6           0        3.738877   -5.160244    2.117486
    147          1           0        5.094181   -4.296075    0.314443
    148          1           0        3.816446   -6.803522    0.864082
    149          1           0        3.639514   -4.072774    2.162625
    150          1           0        2.899503   -5.594843    2.651597
    151          1           0        4.630620   -5.569212    2.592607
    152          7           0        1.288609   -6.100530    0.322284
    153          6           0       -0.078408   -5.934164   -0.121885
    154          6           0       -0.381337   -6.005964   -1.611038
    155          8           0       -1.541397   -5.801545   -1.971419
    156          6           0       -0.698514   -4.700628    0.541633
    157          6           0       -0.479103   -4.635430    2.050311
    158          6           0       -1.047750   -3.369679    2.658024
    159          8           0       -0.599157   -2.925743    3.743697
    160          8           0       -2.124309   -2.880723    2.259351
    161          1           0        1.396781   -6.759276    1.084684
    162          1           0       -0.599666   -6.786513    0.310309
    163          1           0       -1.763016   -4.654403    0.321407
    164          1           0       -0.299725   -3.754566    0.165291
    165          1           0        0.605030   -4.530773    2.139200
    166          1           0       -0.865245   -5.525963    2.545635
    167          7           0        0.632966   -6.261166   -2.439387
    168          6           0        0.488089   -6.193037   -3.881215
    169          1           0        1.452004   -5.957047   -4.332345
    170          1           0        0.136734   -7.153764   -4.258063
    171          1           0       -0.231762   -5.415795   -4.138269
    172          1           0        1.557699   -6.462492   -2.075605
    173         20           0       -2.844681   -1.787663    4.433767
    174          8           0       -1.154485   -0.952026    6.363650
    175          1           0       -0.871090   -1.534179    7.066633
    176          1           0       -0.349060   -0.541420    6.060345
 ---------------------------------------------------------------------

 SCF Done:  E(RB3LYP) =  -5333.42665337     A.U. after   36 cycles

 The electronic state is 1-A.
 Alpha  occ. eigenvalues -- -145.43065 -19.18690 -19.17216 -19.13795 -19.13428
 Alpha  occ. eigenvalues --  -19.11187 -19.10984 -19.10428 -19.09994 -19.09339
 Alpha  occ. eigenvalues --  -19.09062 -19.09047 -19.09047 -19.08930 -19.08702
 Alpha  occ. eigenvalues --  -19.08361 -19.07926 -19.07319 -19.06777 -19.05511
 Alpha  occ. eigenvalues --  -19.04377 -19.04188 -18.96001 -18.95138 -15.49000
 Alpha  occ. eigenvalues --  -14.56178 -14.39401 -14.38217 -14.37984 -14.36632
 Alpha  occ. eigenvalues --  -14.35466 -14.35385 -14.35127 -14.34870 -14.34818
 Alpha  occ. eigenvalues --  -14.33524 -14.32470 -14.32189 -14.30614 -14.30311
 Alpha  occ. eigenvalues --  -12.62621 -12.62560 -12.62495 -10.32698 -10.31782
 Alpha  occ. eigenvalues --  -10.30532 -10.29835 -10.29270 -10.28249 -10.28089
 Alpha  occ. eigenvalues --  -10.28005 -10.27985 -10.27689 -10.27590 -10.27110
 Alpha  occ. eigenvalues --  -10.26778 -10.26632 -10.26235 -10.25900 -10.25748
 Alpha  occ. eigenvalues --  -10.25672 -10.25471 -10.24688 -10.24373 -10.24309
 Alpha  occ. eigenvalues --  -10.23966 -10.23734 -10.23456 -10.23215 -10.23025
 Alpha  occ. eigenvalues --  -10.22863 -10.21999 -10.21882 -10.21810 -10.21594
 Alpha  occ. eigenvalues --  -10.21565 -10.20238 -10.20060 -10.19788 -10.19387
 Alpha  occ. eigenvalues --  -10.19231 -10.19226 -10.19171 -10.19139 -10.18616
 Alpha  occ. eigenvalues --  -10.18443 -10.18375 -10.18285 -10.17650 -10.17403
 Alpha  occ. eigenvalues --  -10.17094 -10.16825 -10.16335 -10.16255 -10.15685
 Alpha  occ. eigenvalues --  -10.15175 -10.10274  -1.85868  -1.13433  -1.13153
 Alpha  occ. eigenvalues --   -1.12860  -1.11580  -1.06657  -1.06179  -1.04773
 Alpha  occ. eigenvalues --   -1.04746  -1.04267  -1.04165  -1.04042  -1.03278
 Alpha  occ. eigenvalues --   -1.03053  -1.02616  -1.02343  -1.02036  -1.01793
 Alpha  occ. eigenvalues --   -1.01624  -1.01506  -1.01091  -0.99154  -0.97303
 Alpha  occ. eigenvalues --   -0.96553  -0.95703  -0.94491  -0.93973  -0.93329
 Alpha  occ. eigenvalues --   -0.92949  -0.92745  -0.92057  -0.91808  -0.91509
 Alpha  occ. eigenvalues --   -0.91145  -0.91124  -0.90188  -0.90158  -0.89037
 Alpha  occ. eigenvalues --   -0.88171  -0.87966  -0.87224  -0.86944  -0.85712
 Alpha  occ. eigenvalues --   -0.80942  -0.80384  -0.79982  -0.79715  -0.79627
 Alpha  occ. eigenvalues --   -0.79353  -0.78025  -0.77852  -0.76533  -0.76226
 Alpha  occ. eigenvalues --   -0.75354  -0.74982  -0.74326  -0.74043  -0.73521
 Alpha  occ. eigenvalues --   -0.73403  -0.72483  -0.72129  -0.70810  -0.69982
 Alpha  occ. eigenvalues --   -0.69801  -0.69652  -0.69028  -0.67844  -0.66949
 Alpha  occ. eigenvalues --   -0.66350  -0.66204  -0.65276  -0.64862  -0.63875
 Alpha  occ. eigenvalues --   -0.63661  -0.63133  -0.62759  -0.62269  -0.62061
 Alpha  occ. eigenvalues --   -0.61505  -0.61426  -0.60987  -0.60387  -0.59563
 Alpha  occ. eigenvalues --   -0.59492  -0.58838  -0.58715  -0.58564  -0.57945
 Alpha  occ. eigenvalues --   -0.57883  -0.57855  -0.57517  -0.57430  -0.57218
 Alpha  occ. eigenvalues --   -0.57076  -0.56569  -0.55448  -0.55056  -0.54930
 Alpha  occ. eigenvalues --   -0.54819  -0.54411  -0.53795  -0.53530  -0.52967
 Alpha  occ. eigenvalues --   -0.52829  -0.52543  -0.52427  -0.52056  -0.51748
 Alpha  occ. eigenvalues --   -0.51610  -0.51214  -0.50953  -0.50705  -0.50205
 Alpha  occ. eigenvalues --   -0.49854  -0.49759  -0.49514  -0.49303  -0.48803
 Alpha  occ. eigenvalues --   -0.48744  -0.48393  -0.48381  -0.47931  -0.47724
 Alpha  occ. eigenvalues --   -0.47483  -0.47038  -0.46996  -0.46577  -0.46364
 Alpha  occ. eigenvalues --   -0.46103  -0.46042  -0.45942  -0.45639  -0.45385
 Alpha  occ. eigenvalues --   -0.45222  -0.45200  -0.44836  -0.44760  -0.44658
 Alpha  occ. eigenvalues --   -0.44526  -0.44390  -0.44348  -0.44077  -0.43866
 Alpha  occ. eigenvalues --   -0.43760  -0.43506  -0.43409  -0.43154  -0.43029
 Alpha  occ. eigenvalues --   -0.42854  -0.42782  -0.42631  -0.42558  -0.42292
 Alpha  occ. eigenvalues --   -0.42151  -0.41963  -0.41890  -0.41867  -0.41637
 Alpha  occ. eigenvalues --   -0.41527  -0.41377  -0.41305  -0.41098  -0.40695
 Alpha  occ. eigenvalues --   -0.40644  -0.40467  -0.40372  -0.40260  -0.40113
 Alpha  occ. eigenvalues --   -0.40107  -0.39878  -0.39780  -0.39760  -0.39513
 Alpha  occ. eigenvalues --   -0.39449  -0.39334  -0.39093  -0.38991  -0.38948
 Alpha  occ. eigenvalues --   -0.38825  -0.38659  -0.38422  -0.38287  -0.38179
 Alpha  occ. eigenvalues --   -0.38103  -0.37751  -0.37451  -0.37316  -0.37176
 Alpha  occ. eigenvalues --   -0.36841  -0.36674  -0.36611  -0.36507  -0.36349
 Alpha  occ. eigenvalues --   -0.36229  -0.36178  -0.36155  -0.35983  -0.35834
 Alpha  occ. eigenvalues --   -0.35746  -0.35447  -0.35358  -0.35200  -0.34877
 Alpha  occ. eigenvalues --   -0.34775  -0.34574  -0.34398  -0.34278  -0.34200
 Alpha  occ. eigenvalues --   -0.33837  -0.33560  -0.33503  -0.32999  -0.32713
 Alpha  occ. eigenvalues --   -0.32277  -0.31792  -0.31593  -0.31061  -0.30769
 Alpha  occ. eigenvalues --   -0.30454  -0.30194  -0.29790  -0.29554  -0.28555
 Alpha  occ. eigenvalues --   -0.28501  -0.28203  -0.27877  -0.27740  -0.27530
 Alpha  occ. eigenvalues --   -0.27256  -0.27195  -0.26852  -0.26660  -0.26519
 Alpha  occ. eigenvalues --   -0.26313  -0.26187  -0.26037  -0.25956  -0.25829
 Alpha  occ. eigenvalues --   -0.25578  -0.25306  -0.24938  -0.24790  -0.24657
 Alpha  occ. eigenvalues --   -0.24491  -0.24347  -0.24206  -0.24176  -0.24135
 Alpha  occ. eigenvalues --   -0.23636  -0.23345  -0.22810  -0.22734  -0.22274
 Alpha  occ. eigenvalues --   -0.21830  -0.21764  -0.20826  -0.20331  -0.19265
 Alpha  occ. eigenvalues --   -0.13278  -0.12828  -0.10243
 Alpha virt. eigenvalues --   -0.09075  -0.08143  -0.02815  -0.02726  -0.02641
 Alpha virt. eigenvalues --   -0.01786  -0.01391  -0.00556  -0.00514  -0.00079
 Alpha virt. eigenvalues --    0.00193   0.00561   0.01157   0.01458   0.01554

 Mulliken charges:
               1
     1  C    0.066508
     2  C    0.002418
     3  O   -0.301772
     4  H   -0.018101
     5  H    0.024612
     6  H    0.032794
     7  N   -0.123334
     8  C    0.131964
     9  C    0.069462
    10  O   -0.308452
    11  C    0.091958
    12  C    0.045453
    13  O   -0.395190
    14  O   -0.342566
    15  H    0.109233
    16  H   -0.016868
    17  H    0.001316
    18  H   -0.023026
    19  N   -0.105388
    20  C    0.130801
    21  C    0.103477
    22  O   -0.208533
    23  C    0.004841
    24  C   -0.005335
    25  C   -0.012387
    26  C    0.037396
    27  N    0.120245
    28  H    0.108446
    29  H   -0.010958
    30  H   -0.038679
    31  H    0.034781
    32  H    0.023735
    33  H    0.022273
    34  H    0.020534
    35  H    0.045126
    36  H    0.054772
    37  H    0.084924
    38  H    0.129201
    39  H    0.131305
    40  H    0.153655
    41  N   -0.151386
    42  C    0.088816
    43  C    0.062505
    44  O   -0.269691
    45  C    0.117127
    46  C    0.125743
    47  O   -0.448276
    48  O   -0.440259
    49  H    0.122532
    50  H    0.035577
    51  H    0.037341
    52  H    0.019128
    53  N   -0.146393
    54  C    0.257607
    55  C    0.022985
    56  O   -0.265580
    57  H    0.124318
    58  H    0.024560
    59  H    0.015022
    60  N   -0.171113
    61  C    0.105916
    62  C    0.098507
    63  O   -0.296732
    64  C    0.119716
    65  C    0.035290
    66  N   -0.031900
    67  O   -0.315927
    68  H    0.127066
    69  H    0.049170
    70  H    0.058504
    71  H   -0.023787
    72  H    0.111630
    73  H    0.142092
    74  N   -0.108638
    75  C    0.224871
    76  C    0.036654
    77  O   -0.273370
    78  H    0.125423
    79  H   -0.014443
    80  H    0.032649
    81  N   -0.116629
    82  C    0.127674
    83  C    0.073013
    84  O   -0.315621
    85  C    0.124680
    86  C   -0.030446
    87  C   -0.023035
    88  C   -0.000171
    89  C    0.000722
    90  C   -0.035376
    91  C    0.138362
    92  O   -0.180888
    93  H    0.124809
    94  H    0.004227
    95  H    0.003516
    96  H    0.013497
    97  H   -0.035339
    98  H   -0.021743
    99  H   -0.024923
   100  H   -0.029610
   101  H    0.163801
   102  N   -0.108061
   103  C    0.143139
   104  C    0.042778
   105  O   -0.267747
   106  C   -0.049554
   107  C    0.042413
   108  C    0.070717
   109  C   -0.023365
   110  H    0.130487
   111  H   -0.003995
   112  H   -0.015643
   113  H   -0.014634
   114  H    0.009208
   115  H   -0.008635
   116  H    0.011890
   117  H    0.011013
   118  H    0.006151
   119  H    0.009821
   120  H   -0.003767
   121  N   -0.141225
   122  C    0.123337
   123  C    0.045314
   124  O   -0.281923
   125  C    0.218444
   126  O   -0.322961
   127  H    0.140745
   128  H    0.014928
   129  H    0.008327
   130  H   -0.000811
   131  H    0.165007
   132  N   -0.130337
   133  C    0.071337
   134  C    0.087364
   135  O   -0.295070
   136  C    0.061070
   137  H    0.133180
   138  H    0.021448
   139  H    0.006124
   140  H    0.034983
   141  H    0.019952
   142  N   -0.111195
   143  C    0.070069
   144  C    0.056487
   145  O   -0.272699
   146  C    0.034374
   147  H    0.145157
   148  H   -0.001969
   149  H    0.052469
   150  H   -0.012101
   151  H    0.034934
   152  N   -0.129513
   153  C    0.134753
   154  C    0.075914
   155  O   -0.298272
   156  C    0.012032
   157  C    0.068889
   158  C    0.100459
   159  O   -0.436104
   160  O   -0.454175
   161  H    0.118622
   162  H   -0.008459
   163  H    0.005136
   164  H    0.015074
   165  H    0.009276
   166  H   -0.012065
   167  N   -0.133933
   168  C    0.132878
   169  H    0.022978
   170  H    0.017820
   171  H    0.036027
   172  H    0.134264
   173  Ca   1.350372
   174  O   -0.284755
   175  H    0.171503
   176  H    0.199892
 Sum of Mulliken charges =  -0.00000

 Dipole moment (field-independent basis, Debye):
    X=             12.0087    Y=            -19.4713    Z=             10.7544  Tot=             25.2784
 Quadrupole moment (field-independent basis, Debye-Ang):
   XX=           -765.3368   YY=           -443.5728   ZZ=           -518.3892
   XY=            314.1975   XZ=            -51.6298   YZ=            -14.0087

 ESP charges:
               1
     1  C   -0.456659
     2  C    0.748286
     3  O   -0.580950
     4  H    0.085412
     5  H    0.115732
     6  H    0.132061
     7  N   -0.722243
     8  C    0.495138
     9  C    0.347096
    10  O   -0.527761
    11  C   -0.267099
    12  C    0.732017
    13  O   -0.710993
    14  O   -0.653758
    15  H    0.332803
    16  H   -0.060178
    17  H    0.066106
    18  H    0.052385
    19  N   -0.418477
    20  C    0.184705
    21  C    0.536755
    22  O   -0.421561
    23  C    0.005821
    24  C    0.048148
    25  C   -0.142227
    26  C    0.144340
    27  N   -0.415148
    28  H    0.249035
    29  H    0.009624
    30  H   -0.027564
    31  H    0.042196
    32  H    0.026213
    33  H   -0.002072
    34  H    0.059149
    35  H    0.063905
    36  H    0.063515
    37  H    0.055175
    38  H    0.284504
    39  H    0.291239
    40  H    0.314989
    41  N   -0.741690
    42  C    0.551607
    43  C    0.410228
    44  O   -0.482888
    45  C   -0.392422
    46  C    0.888784
    47  O   -0.872124
    48  O   -0.791313
    49  H    0.326890
    50  H   -0.056622
    51  H    0.102188
    52  H    0.088198
    53  N   -0.310154
    54  C   -0.233535
    55  C    0.642153
    56  O   -0.513639
    57  H    0.266388
    58  H    0.125844
    59  H    0.129695
    60  N   -0.703519
    61  C    0.135395
    62  C    0.598477
    63  O   -0.502279
    64  C   -0.526541
    65  C    1.020596
    66  N   -0.887941
    67  O   -0.652294
    68  H    0.343413
    69  H    0.085859
    70  H    0.147952
    71  H    0.154632
    72  H    0.349926
    73  H    0.454411
    74  N   -0.422616
    75  C   -0.169873
    76  C    0.642822
    77  O   -0.509201
    78  H    0.330435
    79  H    0.064478
    80  H    0.135057
    81  N   -0.699887
    82  C    0.228021
    83  C    0.442435
    84  O   -0.534247
    85  C   -0.181407
    86  C    0.049769
    87  C   -0.107391
    88  C   -0.038653
    89  C   -0.313705
    90  C   -0.418967
    91  C    0.425092
    92  O   -0.526812
    93  H    0.364056
    94  H    0.068548
    95  H    0.100836
    96  H    0.057192
    97  H    0.120405
    98  H    0.108755
    99  H    0.162040
   100  H    0.180870
   101  H    0.392214
   102  N   -0.459848
   103  C    0.098891
   104  C    0.498797
   105  O   -0.533906
   106  C    0.184180
   107  C   -0.296122
   108  C   -0.168190
   109  C    0.168026
   110  H    0.279796
   111  H    0.033328
   112  H   -0.004867
   113  H    0.053564
   114  H    0.104908
   115  H    0.054696
   116  H   -0.036375
   117  H    0.077328
   118  H   -0.039994
   119  H   -0.056706
   120  H   -0.013487
   121  N   -0.216473
   122  C   -0.275436
   123  C    0.773522
   124  O   -0.597856
   125  C    0.059603
   126  O   -0.606784
   127  H    0.238564
   128  H    0.138760
   129  H    0.071175
   130  H    0.062106
   131  H    0.421500
   132  N   -0.410509
   133  C    0.175027
   134  C    0.502860
   135  O   -0.568281
   136  C   -0.256112
   137  H    0.240376
   138  H    0.069733
   139  H    0.065270
   140  H    0.096442
   141  H    0.065670
   142  N   -0.507866
   143  C    0.617793
   144  C    0.332479
   145  O   -0.452726
   146  C   -0.279546
   147  H    0.188253
   148  H   -0.068712
   149  H    0.103288
   150  H   -0.000147
   151  H    0.084541
   152  N   -0.619873
   153  C   -0.223054
   154  C    0.451613
   155  O   -0.530079
   156  C    0.437178
   157  C   -0.409078
   158  C    0.827331
   159  O   -0.830653
   160  O   -0.812369
   161  H    0.346200
   162  H    0.140442
   163  H   -0.079645
   164  H   -0.007821
   165  H    0.154119
   166  H    0.071282
   167  N   -0.182404
   168  C   -0.199795
   169  H    0.098430
   170  H    0.073823
   171  H    0.115230
   172  H    0.264029
   173  Ca   1.673751
   174  O   -0.767218
   175  H    0.391879
   176  H    0.420550
 Sum of ESP charges =  -0.00000

 Normal termination of Gaussian 16 at Tue Sep 17 00:07:56 2019.
