 Gaussian 16, Revision A.03,
 Gaussian 16:  ES64L-G16RevA.03 25-Dec-2016

 ----------------------------------------------------------------------
 #b3lyp/svp scf=(tight,noincore) Test #IOP(5/87=12) Density=Current Pop
 =(MK,readradii) iop(6/33=2) iop(6/42=6)
 ----------------------------------------------------------------------

 -----------------
 Ng-293_loop3_35.0
 -----------------
 Symbolic Z-matrix:
 Charge =  0 Multiplicity = 1

                         Standard orientation:
 ---------------------------------------------------------------------
 Center     Atomic      Atomic             Coordinates (Angstroms)
 Number     Number       Type             X           Y           Z
 ---------------------------------------------------------------------
      1          6           0       10.201267   -2.472511   -6.157056
      2          6           0       10.220434   -2.621537   -4.639682
      3          8           0       11.203812   -2.227436   -4.012425
      4          1           0       11.165265   -2.777432   -6.563500
      5          1           0        9.415906   -3.101889   -6.574706
      6          1           0       10.010836   -1.431688   -6.418501
      7          7           0        9.148154   -3.116495   -4.019011
      8          6           0        8.921283   -3.244923   -2.599315
      9          6           0        7.831454   -2.268729   -2.186255
     10          8           0        7.024727   -1.789170   -2.991311
     11          6           0        8.561760   -4.670319   -2.171425
     12          6           0        8.891522   -4.951416   -0.708708
     13          8           0        9.394166   -4.037309   -0.019101
     14          8           0        8.673927   -6.092831   -0.270273
     15          1           0        8.387055   -3.436342   -4.592619
     16          1           0        9.851720   -2.885874   -2.155276
     17          1           0        9.150994   -5.367684   -2.758439
     18          1           0        7.528424   -4.722338   -2.500379
     19          7           0        7.723861   -2.006668   -0.882281
     20          6           0        6.602153   -1.435169   -0.160991
     21          6           0        5.433015   -2.398298   -0.080999
     22          8           0        5.378191   -3.412098   -0.775048
     23          6           0        6.329671    0.006211   -0.592707
     24          6           0        7.500870    0.957777   -0.408006
     25          6           0        7.705306    1.375801    1.049959
     26          6           0        8.736096    2.484628    1.222222
     27          7           0        8.969461    3.099114    2.538181
     28          1           0        8.438063   -2.409984   -0.287763
     29          1           0        6.968973   -1.361985    0.868469
     30          1           0        5.478353    0.455033   -0.093091
     31          1           0        6.087732    0.019233   -1.660553
     32          1           0        7.234158    1.847791   -0.985881
     33          1           0        8.447456    0.626900   -0.861653
     34          1           0        8.043775    0.512483    1.621642
     35          1           0        6.682966    1.623717    1.333964
     36          1           0        8.643433    3.323719    0.536118
     37          1           0        9.706138    2.173604    0.819129
     38          1           0        9.735116    3.760370    2.504814
     39          1           0        8.136828    3.526746    2.920742
     40          1           0        9.234045    2.398769    3.214652
     41          7           0        4.466246   -2.096388    0.789005
     42          6           0        3.572525   -3.147937    1.240786
     43          6           0        2.220313   -3.195670    0.545772
     44          8           0        1.782118   -4.336724    0.415845
     45          6           0        3.478297   -3.081256    2.761666
     46          6           0        2.952501   -1.763791    3.301226
     47          8           0        1.985998   -1.777941    4.087529
     48          8           0        3.381056   -0.635847    2.956142
     49          1           0        4.593378   -1.356699    1.462205
     50          1           0        4.111643   -4.059136    1.008263
     51          1           0        4.477597   -3.293619    3.139028
     52          1           0        2.849931   -3.920694    3.052527
     53          7           0        1.687240   -2.044902    0.153260
     54          6           0        0.503553   -1.838066   -0.656619
     55          6           0       -0.636924   -2.782398   -0.292682
     56          8           0       -1.224371   -3.370985   -1.191442
     57          1           0        2.259236   -1.238957    0.356666
     58          1           0        0.691689   -2.106080   -1.698911
     59          1           0        0.087279   -0.839512   -0.513418
     60          7           0       -0.866171   -2.996327    1.005425
     61          6           0       -1.817805   -4.018471    1.397360
     62          6           0       -3.285076   -3.653570    1.228649
     63          8           0       -3.755187   -2.568136    1.558541
     64          6           0       -1.359825   -4.460353    2.780652
     65          6           0       -2.403594   -5.340434    3.460214
     66          7           0       -2.857604   -4.842141    4.610597
     67          8           0       -2.814204   -6.360081    2.913754
     68          1           0       -0.199867   -2.635170    1.676025
     69          1           0       -1.544439   -4.865874    0.766583
     70          1           0       -1.080648   -3.633365    3.428147
     71          1           0       -0.536203   -5.173374    2.694355
     72          1           0       -2.445041   -3.944395    4.847967
     73          1           0       -3.617014   -5.374465    5.013744
     74          7           0       -4.090260   -4.653178    0.863324
     75          6           0       -5.533525   -4.569231    0.730511
     76          6           0       -6.079367   -3.631810   -0.325945
     77          8           0       -5.556207   -3.671494   -1.443231
     78          1           0       -3.725377   -5.597685    0.809778
     79          1           0       -6.031751   -4.329580    1.674618
     80          1           0       -5.891116   -5.552617    0.437968
     81          7           0       -7.003266   -2.712361   -0.011105
     82          6           0       -7.323399   -1.674926   -0.976166
     83          6           0       -6.265348   -0.721073   -1.511321
     84          8           0       -6.528714    0.073947   -2.411477
     85          6           0       -8.264155   -2.220383   -2.036522
     86          6           0       -9.546186   -2.759193   -1.451646
     87          6           0       -9.756552   -4.141900   -1.307534
     88          6           0      -10.408282   -1.895903   -0.759677
     89          6           0      -10.896106   -4.697536   -0.726769
     90          6           0      -11.508271   -2.432876   -0.076022
     91          6           0      -11.770108   -3.822518   -0.057618
     92          8           0      -12.939580   -4.291481    0.469363
     93          1           0       -7.434421   -2.827575    0.890910
     94          1           0       -7.931474   -0.958790   -0.413498
     95          1           0       -7.747734   -2.944475   -2.678161
     96          1           0       -8.526311   -1.422913   -2.734459
     97          1           0       -9.090717   -4.830088   -1.807094
     98          1           0      -10.276879   -0.830058   -0.762497
     99          1           0      -11.073721   -5.759747   -0.759321
    100          1           0      -12.113157   -1.846607    0.593531
    101          1           0      -13.506052   -3.525377    0.615290
    102          7           0       -5.047346   -0.767817   -0.970130
    103          6           0       -3.919864    0.106402   -1.205556
    104          6           0       -4.111986    1.484916   -0.589612
    105          8           0       -3.213705    2.037287    0.040688
    106          6           0       -3.441156    0.205948   -2.657564
    107          6           0       -3.180836   -1.184464   -3.245090
    108          6           0       -2.182460    1.047013   -2.855791
    109          6           0       -2.996689   -1.356747   -4.744460
    110          1           0       -4.917801   -1.618813   -0.440863
    111          1           0       -3.124164   -0.293631   -0.572993
    112          1           0       -4.196202    0.766257   -3.193904
    113          1           0       -4.084272   -1.729289   -2.966041
    114          1           0       -2.428389   -1.654587   -2.608453
    115          1           0       -1.892599    1.132146   -3.909894
    116          1           0       -2.367050    2.069530   -2.540694
    117          1           0       -1.316758    0.630305   -2.355975
    118          1           0       -2.040162   -0.893994   -4.988217
    119          1           0       -2.961540   -2.437206   -4.844824
    120          1           0       -3.802825   -0.916868   -5.342332
    121          7           0       -5.302381    2.071471   -0.534696
    122          6           0       -5.837003    3.187776    0.230379
    123          6           0       -5.224846    4.558654   -0.024295
    124          8           0       -5.244465    5.422965    0.842123
    125          6           0       -7.338106    3.242566   -0.036242
    126          8           0       -7.788884    2.027032    0.529600
    127          1           0       -6.053314    1.474341   -0.861705
    128          1           0       -5.745979    3.028923    1.310787
    129          1           0       -7.436119    3.337066   -1.119784
    130          1           0       -7.778462    4.086910    0.487274
    131          1           0       -8.733993    2.016980    0.386535
    132          7           0       -4.748112    4.850288   -1.236308
    133          6           0       -4.150374    6.015015   -1.852360
    134          6           0       -2.904630    6.613140   -1.213322
    135          8           0       -2.410253    7.643685   -1.651577
    136          6           0       -5.261076    7.043582   -2.085149
    137          1           0       -4.732537    4.037631   -1.846181
    138          1           0       -3.879760    5.749104   -2.866490
    139          1           0       -4.858447    7.733649   -2.825823
    140          1           0       -6.131567    6.594208   -2.563070
    141          1           0       -5.599026    7.519147   -1.173542
    142          7           0       -2.354083    5.927322   -0.196537
    143          6           0       -1.303199    6.385729    0.682727
    144          6           0        0.036568    6.007905    0.061138
    145          8           0        0.139229    5.116431   -0.783691
    146          6           0       -1.478370    5.746821    2.067253
    147          1           0       -2.945150    5.163838    0.078840
    148          1           0       -1.288990    7.473061    0.787163
    149          1           0       -1.540750    4.665480    1.947209
    150          1           0       -0.674444    5.896902    2.776675
    151          1           0       -2.440085    6.077710    2.458682
    152          7           0        1.106810    6.498876    0.675327
    153          6           0        2.518723    6.213568    0.545708
    154          6           0        3.145278    6.449649   -0.816861
    155          8           0        4.310118    6.114721   -1.035883
    156          6           0        2.901756    4.892541    1.227011
    157          6           0        2.334562    4.725359    2.637841
    158          6           0        2.764916    3.412353    3.272279
    159          8           0        2.105096    2.380759    3.016252
    160          8           0        3.699043    3.388876    4.096266
    161          1           0        0.871841    7.222119    1.344961
    162          1           0        3.050912    6.812770    1.285932
    163          1           0        3.977946    4.796833    1.334967
    164          1           0        2.499125    4.147837    0.537225
    165          1           0        1.251535    4.699361    2.523488
    166          1           0        2.608221    5.516112    3.339710
    167          7           0        2.427012    7.007258   -1.794494
    168          6           0        2.852896    7.334088   -3.137180
    169          1           0        3.929299    7.503181   -3.144786
    170          1           0        2.610717    6.508963   -3.806529
    171          1           0        2.341717    8.236459   -3.471577
    172          1           0        1.484884    7.314568   -1.600702
    173         20           0        3.261878    0.836864    4.984816
    174          8           0        5.751415    1.210289    4.114322
    175          1           0        6.509356    1.741813    4.368896
    176          1           0        6.118059    0.401378    3.761425
 ---------------------------------------------------------------------

 SCF Done:  E(RB3LYP) =  -5333.35300002     A.U. after   38 cycles

 The electronic state is 1-A.
 Alpha  occ. eigenvalues -- -145.48408 -19.24838 -19.16731 -19.15657 -19.10605
 Alpha  occ. eigenvalues --  -19.09849 -19.09750 -19.09521 -19.09289 -19.09214
 Alpha  occ. eigenvalues --  -19.09182 -19.09002 -19.08827 -19.08543 -19.08524
 Alpha  occ. eigenvalues --  -19.08082 -19.07938 -19.07823 -19.07815 -19.07425
 Alpha  occ. eigenvalues --  -19.05253 -19.04076 -19.00466 -19.00200 -15.54327
 Alpha  occ. eigenvalues --  -14.59351 -14.36644 -14.36345 -14.36343 -14.35481
 Alpha  occ. eigenvalues --  -14.35417 -14.35225 -14.34797 -14.34156 -14.34119
 Alpha  occ. eigenvalues --  -14.34055 -14.33984 -14.33567 -14.30621 -14.30575
 Alpha  occ. eigenvalues --  -12.67919 -12.67881 -12.67860 -10.34951 -10.28855
 Alpha  occ. eigenvalues --  -10.28625 -10.28450 -10.28371 -10.28249 -10.28170
 Alpha  occ. eigenvalues --  -10.28001 -10.27768 -10.27377 -10.27196 -10.26962
 Alpha  occ. eigenvalues --  -10.26839 -10.26695 -10.26527 -10.26456 -10.25337
 Alpha  occ. eigenvalues --  -10.25134 -10.24256 -10.23978 -10.23859 -10.23822
 Alpha  occ. eigenvalues --  -10.23735 -10.23677 -10.23597 -10.23542 -10.23030
 Alpha  occ. eigenvalues --  -10.23007 -10.22648 -10.22002 -10.21869 -10.21724
 Alpha  occ. eigenvalues --  -10.21430 -10.20005 -10.19865 -10.19798 -10.19529
 Alpha  occ. eigenvalues --  -10.19528 -10.19465 -10.19283 -10.19162 -10.19107
 Alpha  occ. eigenvalues --  -10.18987 -10.18928 -10.18356 -10.18136 -10.17603
 Alpha  occ. eigenvalues --  -10.17514 -10.16309 -10.15904 -10.14929 -10.14621
 Alpha  occ. eigenvalues --  -10.13886 -10.12486  -1.91035  -1.18523  -1.18081
 Alpha  occ. eigenvalues --   -1.17990  -1.14404  -1.10752  -1.05428  -1.05286
 Alpha  occ. eigenvalues --   -1.04173  -1.03511  -1.03107  -1.03021  -1.02896
 Alpha  occ. eigenvalues --   -1.02655  -1.02448  -1.02123  -1.01665  -1.01602
 Alpha  occ. eigenvalues --   -1.01255  -1.01096  -1.01069  -1.00264  -0.98203
 Alpha  occ. eigenvalues --   -0.97007  -0.94710  -0.93972  -0.93047  -0.92930
 Alpha  occ. eigenvalues --   -0.92626  -0.92483  -0.92126  -0.91579  -0.91426
 Alpha  occ. eigenvalues --   -0.91336  -0.91139  -0.91004  -0.90635  -0.90491
 Alpha  occ. eigenvalues --   -0.90254  -0.88998  -0.87975  -0.87144  -0.85130
 Alpha  occ. eigenvalues --   -0.84950  -0.81269  -0.80495  -0.79793  -0.78927
 Alpha  occ. eigenvalues --   -0.78564  -0.78281  -0.77924  -0.76910  -0.75678
 Alpha  occ. eigenvalues --   -0.75623  -0.74866  -0.74449  -0.73863  -0.73304
 Alpha  occ. eigenvalues --   -0.72864  -0.72854  -0.72743  -0.72267  -0.71279
 Alpha  occ. eigenvalues --   -0.69837  -0.69216  -0.68424  -0.68281  -0.67232
 Alpha  occ. eigenvalues --   -0.66842  -0.65766  -0.65358  -0.64983  -0.64108
 Alpha  occ. eigenvalues --   -0.64023  -0.63116  -0.62503  -0.62469  -0.61543
 Alpha  occ. eigenvalues --   -0.61450  -0.61020  -0.60439  -0.60065  -0.59674
 Alpha  occ. eigenvalues --   -0.59265  -0.59004  -0.58645  -0.58429  -0.58423
 Alpha  occ. eigenvalues --   -0.58182  -0.57350  -0.57309  -0.57180  -0.56416
 Alpha  occ. eigenvalues --   -0.56129  -0.55509  -0.55163  -0.55150  -0.54994
 Alpha  occ. eigenvalues --   -0.54801  -0.54517  -0.54243  -0.53875  -0.53670
 Alpha  occ. eigenvalues --   -0.53230  -0.52779  -0.52608  -0.52237  -0.51797
 Alpha  occ. eigenvalues --   -0.51595  -0.50996  -0.50969  -0.50432  -0.49902
 Alpha  occ. eigenvalues --   -0.49652  -0.49571  -0.49396  -0.49265  -0.49246
 Alpha  occ. eigenvalues --   -0.49196  -0.48531  -0.48033  -0.47462  -0.47142
 Alpha  occ. eigenvalues --   -0.47041  -0.46698  -0.46508  -0.46351  -0.46207
 Alpha  occ. eigenvalues --   -0.45994  -0.45661  -0.45434  -0.45313  -0.45190
 Alpha  occ. eigenvalues --   -0.45051  -0.44961  -0.44798  -0.44676  -0.44551
 Alpha  occ. eigenvalues --   -0.44446  -0.44268  -0.44149  -0.43823  -0.43643
 Alpha  occ. eigenvalues --   -0.43467  -0.43291  -0.43223  -0.42921  -0.42913
 Alpha  occ. eigenvalues --   -0.42840  -0.42678  -0.42442  -0.42326  -0.42107
 Alpha  occ. eigenvalues --   -0.41874  -0.41653  -0.41487  -0.41471  -0.41324
 Alpha  occ. eigenvalues --   -0.41235  -0.41009  -0.40935  -0.40854  -0.40768
 Alpha  occ. eigenvalues --   -0.40548  -0.40446  -0.40390  -0.40293  -0.40230
 Alpha  occ. eigenvalues --   -0.40122  -0.40094  -0.39865  -0.39648  -0.39414
 Alpha  occ. eigenvalues --   -0.39228  -0.39211  -0.39119  -0.38942  -0.38898
 Alpha  occ. eigenvalues --   -0.38468  -0.38340  -0.38171  -0.38104  -0.37970
 Alpha  occ. eigenvalues --   -0.37908  -0.37825  -0.37746  -0.37584  -0.37473
 Alpha  occ. eigenvalues --   -0.37350  -0.36977  -0.36775  -0.36739  -0.36571
 Alpha  occ. eigenvalues --   -0.36419  -0.36280  -0.36093  -0.36015  -0.35744
 Alpha  occ. eigenvalues --   -0.35548  -0.35516  -0.35346  -0.35143  -0.35061
 Alpha  occ. eigenvalues --   -0.34916  -0.34853  -0.34607  -0.34409  -0.34238
 Alpha  occ. eigenvalues --   -0.34108  -0.33940  -0.33636  -0.33500  -0.32987
 Alpha  occ. eigenvalues --   -0.32985  -0.32759  -0.31622  -0.30963  -0.30279
 Alpha  occ. eigenvalues --   -0.30023  -0.29839  -0.28715  -0.28653  -0.28603
 Alpha  occ. eigenvalues --   -0.28297  -0.27846  -0.27502  -0.27269  -0.27226
 Alpha  occ. eigenvalues --   -0.26814  -0.26669  -0.26615  -0.26416  -0.26274
 Alpha  occ. eigenvalues --   -0.26172  -0.25808  -0.25625  -0.25583  -0.25551
 Alpha  occ. eigenvalues --   -0.25377  -0.25051  -0.24910  -0.24627  -0.24587
 Alpha  occ. eigenvalues --   -0.24388  -0.24236  -0.24181  -0.24013  -0.23809
 Alpha  occ. eigenvalues --   -0.23702  -0.23517  -0.23412  -0.22843  -0.22621
 Alpha  occ. eigenvalues --   -0.22473  -0.22075  -0.21504  -0.20834  -0.20182
 Alpha  occ. eigenvalues --   -0.17478  -0.17332  -0.14737
 Alpha virt. eigenvalues --   -0.13659  -0.12302  -0.06893  -0.05078  -0.03375
 Alpha virt. eigenvalues --   -0.02220  -0.00670  -0.00606   0.00140   0.00295
 Alpha virt. eigenvalues --    0.00858   0.01071   0.01117   0.01241   0.01408

 Mulliken charges:
               1
     1  C    0.068467
     2  C    0.001917
     3  O   -0.312072
     4  H    0.026565
     5  H   -0.009328
     6  H    0.034554
     7  N   -0.106164
     8  C    0.073341
     9  C    0.059214
    10  O   -0.302025
    11  C    0.072685
    12  C    0.113229
    13  O   -0.386277
    14  O   -0.301436
    15  H    0.104469
    16  H    0.006929
    17  H    0.006273
    18  H    0.014235
    19  N   -0.120412
    20  C    0.098976
    21  C    0.104658
    22  O   -0.227662
    23  C    0.086689
    24  C   -0.020223
    25  C   -0.021412
    26  C    0.008249
    27  N    0.095033
    28  H    0.107075
    29  H   -0.045615
    30  H   -0.009274
    31  H    0.043736
    32  H    0.020778
    33  H    0.033806
    34  H    0.017733
    35  H    0.039573
    36  H    0.059772
    37  H    0.068155
    38  H    0.189325
    39  H    0.179997
    40  H    0.158363
    41  N   -0.153521
    42  C    0.076891
    43  C    0.068231
    44  O   -0.264385
    45  C    0.103191
    46  C    0.051082
    47  O   -0.363966
    48  O   -0.457044
    49  H    0.098068
    50  H    0.034299
    51  H    0.006823
    52  H    0.018745
    53  N   -0.144946
    54  C    0.239988
    55  C    0.004876
    56  O   -0.263099
    57  H    0.133429
    58  H    0.041741
    59  H    0.052810
    60  N   -0.123197
    61  C    0.132908
    62  C    0.111309
    63  O   -0.295453
    64  C    0.061941
    65  C   -0.049785
    66  N   -0.030144
    67  O   -0.275828
    68  H    0.130475
    69  H    0.025850
    70  H   -0.006695
    71  H    0.057525
    72  H    0.134604
    73  H    0.130332
    74  N   -0.106654
    75  C    0.254466
    76  C   -0.005422
    77  O   -0.274648
    78  H    0.142373
    79  H   -0.020326
    80  H    0.023592
    81  N   -0.129481
    82  C    0.120159
    83  C    0.078173
    84  O   -0.303601
    85  C    0.165411
    86  C   -0.013517
    87  C   -0.023514
    88  C   -0.031564
    89  C   -0.010261
    90  C   -0.031353
    91  C    0.136548
    92  O   -0.195863
    93  H    0.130139
    94  H   -0.006737
    95  H    0.015216
    96  H    0.003315
    97  H   -0.017008
    98  H   -0.033691
    99  H   -0.023823
   100  H   -0.041649
   101  H    0.172182
   102  N   -0.127149
   103  C    0.191080
   104  C    0.022804
   105  O   -0.284769
   106  C   -0.104926
   107  C    0.000165
   108  C    0.081313
   109  C    0.071206
   110  H    0.146427
   111  H    0.008335
   112  H   -0.020408
   113  H   -0.007956
   114  H   -0.007065
   115  H   -0.003453
   116  H    0.001347
   117  H   -0.009773
   118  H    0.000798
   119  H    0.021165
   120  H    0.005621
   121  N   -0.114656
   122  C    0.110936
   123  C    0.036366
   124  O   -0.281385
   125  C    0.198279
   126  O   -0.291609
   127  H    0.133636
   128  H    0.016825
   129  H    0.004944
   130  H    0.017704
   131  H    0.163754
   132  N   -0.140836
   133  C    0.072029
   134  C    0.064133
   135  O   -0.282613
   136  C    0.056148
   137  H    0.128555
   138  H    0.027291
   139  H    0.022968
   140  H   -0.005189
   141  H    0.027875
   142  N   -0.083487
   143  C    0.072561
   144  C    0.048959
   145  O   -0.260200
   146  C    0.031305
   147  H    0.127445
   148  H    0.001810
   149  H    0.046197
   150  H    0.008030
   151  H    0.043201
   152  N   -0.127470
   153  C    0.121838
   154  C    0.081357
   155  O   -0.301416
   156  C   -0.005204
   157  C    0.107991
   158  C    0.061737
   159  O   -0.395051
   160  O   -0.449428
   161  H    0.114551
   162  H   -0.001785
   163  H   -0.012463
   164  H    0.035590
   165  H    0.009369
   166  H   -0.029435
   167  N   -0.127197
   168  C    0.124919
   169  H    0.029012
   170  H    0.037329
   171  H    0.019389
   172  H    0.123589
   173  Ca   1.250153
   174  O   -0.263471
   175  H    0.143561
   176  H    0.175382
 Sum of Mulliken charges =  -0.00000

 Dipole moment (field-independent basis, Debye):
    X=              1.2735    Y=             25.7869    Z=             28.2737  Tot=             38.2882
 Quadrupole moment (field-independent basis, Debye-Ang):
   XX=           -465.3984   YY=           -654.3562   ZZ=           -453.0483
   XY=            232.8025   XZ=            141.8073   YZ=             14.5170

 ESP charges:
               1
     1  C   -0.443556
     2  C    0.772558
     3  O   -0.608181
     4  H    0.118307
     5  H    0.094080
     6  H    0.125314
     7  N   -0.795892
     8  C    0.633952
     9  C    0.451995
    10  O   -0.546183
    11  C   -0.423283
    12  C    0.761367
    13  O   -0.696680
    14  O   -0.598484
    15  H    0.333363
    16  H   -0.048199
    17  H    0.100447
    18  H    0.094019
    19  N   -0.610852
    20  C    0.234122
    21  C    0.652374
    22  O   -0.482764
    23  C   -0.165029
    24  C    0.192398
    25  C   -0.469279
    26  C    0.296341
    27  N   -0.504260
    28  H    0.285971
    29  H    0.025444
    30  H    0.019562
    31  H    0.101615
    32  H    0.004388
    33  H    0.007745
    34  H    0.119275
    35  H    0.156563
    36  H    0.039969
    37  H    0.057230
    38  H    0.357597
    39  H    0.358312
    40  H    0.312613
    41  N   -0.723181
    42  C    0.132414
    43  C    0.526537
    44  O   -0.528975
    45  C   -0.193631
    46  C    0.494884
    47  O   -0.658072
    48  O   -0.575408
    49  H    0.271832
    50  H    0.091911
    51  H    0.092218
    52  H    0.068924
    53  N   -0.234196
    54  C   -0.268646
    55  C    0.953776
    56  O   -0.607443
    57  H    0.262883
    58  H    0.114387
    59  H    0.124570
    60  N   -0.961333
    61  C    0.464515
    62  C    0.540812
    63  O   -0.534040
    64  C   -0.401044
    65  C    0.645641
    66  N   -0.766300
    67  O   -0.572300
    68  H    0.426128
    69  H    0.008657
    70  H    0.117271
    71  H    0.151914
    72  H    0.363110
    73  H    0.375447
    74  N   -0.534153
    75  C    0.059194
    76  C    0.564628
    77  O   -0.528143
    78  H    0.329921
    79  H    0.022519
    80  H    0.083970
    81  N   -0.762294
    82  C    0.488825
    83  C    0.333154
    84  O   -0.516276
    85  C   -0.166793
    86  C    0.053555
    87  C   -0.214807
    88  C   -0.069218
    89  C   -0.215352
    90  C   -0.359030
    91  C    0.368740
    92  O   -0.537214
    93  H    0.374875
    94  H   -0.014008
    95  H    0.102795
    96  H    0.040469
    97  H    0.147844
    98  H    0.109649
    99  H    0.159519
   100  H    0.140689
   101  H    0.400574
   102  N   -0.516883
   103  C    0.114125
   104  C    0.631776
   105  O   -0.595113
   106  C   -0.013120
   107  C    0.406178
   108  C   -0.136892
   109  C   -0.442766
   110  H    0.344772
   111  H    0.029512
   112  H    0.012349
   113  H   -0.023796
   114  H   -0.109297
   115  H    0.052968
   116  H    0.006020
   117  H    0.009261
   118  H    0.077303
   119  H    0.107319
   120  H    0.096706
   121  N   -0.386962
   122  C    0.134583
   123  C    0.375686
   124  O   -0.515852
   125  C    0.075093
   126  O   -0.556526
   127  H    0.225126
   128  H    0.077473
   129  H    0.026672
   130  H    0.064798
   131  H    0.395324
   132  N   -0.359262
   133  C    0.286771
   134  C    0.495965
   135  O   -0.541511
   136  C   -0.234550
   137  H    0.205232
   138  H    0.044827
   139  H    0.044580
   140  H    0.053404
   141  H    0.089514
   142  N   -0.706514
   143  C    0.680012
   144  C    0.442542
   145  O   -0.474736
   146  C   -0.444481
   147  H    0.304727
   148  H   -0.075231
   149  H    0.157863
   150  H    0.069978
   151  H    0.111761
   152  N   -0.647426
   153  C   -0.036256
   154  C    0.383333
   155  O   -0.522779
   156  C    0.220154
   157  C    0.023448
   158  C    0.589838
   159  O   -0.689504
   160  O   -0.723559
   161  H    0.303142
   162  H    0.084931
   163  H   -0.065901
   164  H    0.030724
   165  H    0.011945
   166  H   -0.018325
   167  N   -0.161368
   168  C   -0.147287
   169  H    0.082270
   170  H    0.096533
   171  H    0.071285
   172  H    0.234131
   173  Ca   1.415268
   174  O   -0.760712
   175  H    0.374974
   176  H    0.353242
 Sum of ESP charges =  -0.00000

 Normal termination of Gaussian 16 at Tue Sep 17 10:22:30 2019.
