 Gaussian 16, Revision A.03,
 Gaussian 16:  ES64L-G16RevA.03 25-Dec-2016

 ----------------------------------------------------------------------
 #b3lyp/svp scf=(tight,noincore) Test #IOP(5/87=12) Density=Current Pop
 =(MK,readradii) iop(6/33=2) iop(6/42=6)
 ----------------------------------------------------------------------

 -----------------
 Ng-295_loop3_17.0
 -----------------
 Symbolic Z-matrix:
 Charge =  0 Multiplicity = 1

                         Standard orientation:
 ---------------------------------------------------------------------
 Center     Atomic      Atomic             Coordinates (Angstroms)
 Number     Number       Type             X           Y           Z
 ---------------------------------------------------------------------
      1          6           0      -10.282495    5.234988    3.162005
      2          6           0       -9.483620    4.450382    2.137900
      3          8           0       -9.449559    4.749831    0.942672
      4          1           0       -9.717116    5.297749    4.092129
      5          1           0      -10.472559    6.239234    2.784041
      6          1           0      -11.231202    4.731340    3.347627
      7          7           0       -8.781324    3.390877    2.531258
      8          6           0       -8.141085    2.488986    1.588874
      9          6           0       -9.123814    1.549628    0.902761
     10          8           0       -9.301175    0.412574    1.347002
     11          6           0       -7.002568    1.813067    2.349210
     12          6           0       -5.918269    1.403250    1.367148
     13          8           0       -4.990389    2.185043    1.037848
     14          8           0       -5.948843    0.302832    0.780850
     15          1           0       -8.863053    3.091806    3.492547
     16          1           0       -7.691478    3.056250    0.777046
     17          1           0       -7.362917    0.958392    2.921816
     18          1           0       -6.710719    2.570947    3.078349
     19          7           0       -9.539485    1.930629   -0.302003
     20          6           0      -10.570728    1.190184   -1.004839
     21          6           0      -10.136179   -0.102041   -1.687934
     22          8           0      -10.999229   -0.848352   -2.141218
     23          6           0      -11.352420    2.114277   -1.947342
     24          6           0      -11.985499    3.256072   -1.168038
     25          6           0      -12.995703    4.030044   -2.013351
     26          6           0      -13.639371    5.176187   -1.253255
     27          7           0      -14.839593    4.767070   -0.496822
     28          1           0       -9.222261    2.813893   -0.672562
     29          1           0      -11.242879    0.721195   -0.297971
     30          1           0      -12.134021    1.510308   -2.402886
     31          1           0      -10.703576    2.508266   -2.731226
     32          1           0      -11.218051    3.966753   -0.873155
     33          1           0      -12.389341    2.866844   -0.237009
     34          1           0      -13.735718    3.326262   -2.389474
     35          1           0      -12.416985    4.491877   -2.821308
     36          1           0      -13.883602    5.984376   -1.940411
     37          1           0      -12.931398    5.625957   -0.552555
     38          1           0      -15.571557    4.296824   -1.006721
     39          1           0      -14.593443    4.088035    0.208104
     40          1           0      -15.228057    5.608304   -0.097421
     41          7           0       -8.837681   -0.406931   -1.660636
     42          6           0       -8.304031   -1.518376   -2.430317
     43          6           0       -7.882264   -2.580629   -1.435214
     44          8           0       -7.675114   -3.750512   -1.767422
     45          6           0       -7.086883   -1.131571   -3.274018
     46          6           0       -6.002739   -0.434537   -2.469609
     47          8           0       -4.926127   -0.969806   -2.117054
     48          8           0       -6.173140    0.779947   -2.251682
     49          1           0       -8.207348    0.274202   -1.265620
     50          1           0       -9.039695   -2.028148   -3.040834
     51          1           0       -7.374750   -0.417719   -4.041773
     52          1           0       -6.692125   -2.012434   -3.774364
     53          7           0       -7.886568   -2.224748   -0.149667
     54          6           0       -7.548787   -3.097848    0.971002
     55          6           0       -6.163376   -3.711675    1.000183
     56          8           0       -5.956449   -4.615446    1.800796
     57          1           0       -8.244655   -1.282443   -0.077317
     58          1           0       -8.290386   -3.894521    0.881880
     59          1           0       -7.642851   -2.517307    1.888349
     60          7           0       -5.185491   -3.326631    0.183860
     61          6           0       -3.802881   -3.738958    0.369533
     62          6           0       -3.059278   -2.582579    1.017948
     63          8           0       -3.026299   -1.489126    0.456010
     64          6           0       -3.200420   -4.167331   -0.960218
     65          6           0       -1.679608   -4.085356   -0.988710
     66          7           0       -1.168571   -2.902422   -1.340998
     67          8           0       -0.907643   -4.989680   -0.655891
     68          1           0       -5.276154   -2.502136   -0.402048
     69          1           0       -3.785581   -4.510765    1.143170
     70          1           0       -3.540515   -3.524766   -1.772589
     71          1           0       -3.667038   -5.130056   -1.155227
     72          1           0       -1.800499   -2.165226   -1.622259
     73          1           0       -0.174723   -2.735505   -1.294034
     74          7           0       -2.373626   -2.747595    2.148811
     75          6           0       -1.455875   -1.749864    2.665305
     76          6           0        0.017155   -2.078583    2.835680
     77          8           0        0.841208   -1.294895    3.308512
     78          1           0       -2.390518   -3.681543    2.540163
     79          1           0       -1.740485   -1.569235    3.696067
     80          1           0       -1.582001   -0.781346    2.173203
     81          7           0        0.428189   -3.229854    2.306788
     82          6           0        1.815621   -3.534132    1.993660
     83          6           0        2.247601   -2.637569    0.844413
     84          8           0        1.690798   -2.707978   -0.249394
     85          6           0        1.892319   -5.039550    1.756313
     86          6           0        3.254510   -5.685047    1.697415
     87          6           0        3.913203   -5.850947    0.474181
     88          6           0        3.890948   -5.997803    2.900049
     89          6           0        5.166862   -6.472359    0.454535
     90          6           0        5.155665   -6.615914    2.911498
     91          6           0        5.783225   -6.828238    1.668886
     92          8           0        7.037357   -7.365109    1.636884
     93          1           0       -0.263080   -3.793546    1.847008
     94          1           0        2.475693   -3.329378    2.837093
     95          1           0        1.389000   -5.388289    0.856340
     96          1           0        1.342901   -5.540781    2.554816
     97          1           0        3.524443   -5.552535   -0.493402
     98          1           0        3.474507   -5.714305    3.844563
     99          1           0        5.684697   -6.635388   -0.487361
    100          1           0        5.603838   -6.889037    3.852054
    101          1           0        7.452787   -7.585257    2.477331
    102          7           0        3.276133   -1.839514    1.140096
    103          6           0        4.087925   -0.985393    0.297676
    104          6           0        4.752376   -1.681587   -0.887406
    105          8           0        4.183531   -2.599682   -1.468883
    106          6           0        3.267068    0.230418   -0.099056
    107          6           0        2.895472    1.077831    1.120209
    108          6           0        2.006968    0.067561   -0.945829
    109          6           0        4.023389    1.917481    1.688092
    110          1           0        3.676347   -1.862742    2.064753
    111          1           0        4.815502   -0.577040    0.999017
    112          1           0        3.873860    0.887074   -0.722199
    113          1           0        2.612100    0.337164    1.868816
    114          1           0        2.026357    1.721517    0.958942
    115          1           0        1.122613   -0.206824   -0.364254
    116          1           0        1.744580    1.055389   -1.327206
    117          1           0        2.243197   -0.596408   -1.773017
    118          1           0        3.567229    2.254496    2.624969
    119          1           0        4.934142    1.349431    1.874766
    120          1           0        4.212522    2.794302    1.074322
    121          7           0        5.887361   -1.079979   -1.251932
    122          6           0        6.727800   -1.601606   -2.312294
    123          6           0        8.218457   -1.435482   -2.065632
    124          8           0        8.946782   -2.044615   -2.854935
    125          6           0        6.288024   -1.092124   -3.682924
    126          8           0        6.460415    0.311569   -3.751692
    127          1           0        6.153741   -0.271791   -0.705606
    128          1           0        6.551559   -2.670137   -2.467473
    129          1           0        5.239356   -1.344783   -3.849232
    130          1           0        6.949166   -1.445629   -4.465819
    131          1           0        7.289052    0.523297   -4.181380
    132          7           0        8.599907   -0.681359   -1.043138
    133          6           0       10.003076   -0.641735   -0.677971
    134          6           0       10.919300   -0.293612   -1.838292
    135          8           0       11.622349   -1.111846   -2.416319
    136          6           0       10.385416   -1.899988    0.091455
    137          1           0        7.973567   -0.126504   -0.483732
    138          1           0       10.165937    0.132788    0.079187
    139          1           0       10.116652   -2.768087   -0.508770
    140          1           0       11.470816   -1.910294    0.240450
    141          1           0        9.986817   -2.007963    1.093683
    142          7           0       11.081654    0.994908   -2.177495
    143          6           0       10.306750    2.146063   -1.760404
    144          6           0       11.250539    3.281530   -1.409291
    145          8           0       12.281570    3.445593   -2.060258
    146          6           0        9.371083    2.457680   -2.933699
    147          1           0       11.719175    1.178710   -2.935046
    148          1           0        9.641412    1.914153   -0.920319
    149          1           0        8.583682    1.708699   -2.908683
    150          1           0        8.908969    3.413897   -2.681113
    151          1           0        9.869532    2.444396   -3.903891
    152          7           0       10.919269    4.208244   -0.511872
    153          6           0        9.737021    4.390405    0.300843
    154          6           0        9.943881    4.185485    1.795941
    155          8           0        9.266400    3.391911    2.442671
    156          6           0        9.071310    5.732133    0.018893
    157          6           0        7.946182    6.093507    0.991670
    158          6           0        7.417756    7.474554    0.611705
    159          8           0        6.326833    7.419686    0.008484
    160          8           0        8.002133    8.501174    1.021773
    161          1           0       11.602260    4.929928   -0.355358
    162          1           0        9.010481    3.617716    0.052667
    163          1           0        8.598414    5.676632   -0.961612
    164          1           0        9.857225    6.491727   -0.054961
    165          1           0        8.199624    5.983485    2.045265
    166          1           0        7.104734    5.418092    0.870512
    167          7           0       10.763809    5.037275    2.427029
    168          6           0       11.099241    4.983511    3.828206
    169          1           0       10.706599    4.062606    4.260452
    170          1           0       12.182891    5.004945    3.944223
    171          1           0       10.660579    5.840148    4.339981
    172          1           0       11.266578    5.784733    1.959880
    173         20           0       -3.623204    0.880557   -0.801458
    174          8           0       -1.798860    1.868180    0.821646
    175          1           0       -1.633373    1.530398    1.705568
    176          1           0       -1.145125    2.557316    0.705792
 ---------------------------------------------------------------------

 SCF Done:  E(RB3LYP) =  -5333.38225385     A.U. after   66 cycles

 The electronic state is 1-A.
 Alpha  occ. eigenvalues -- -145.46414 -19.23013 -19.14977 -19.14506 -19.13442
 Alpha  occ. eigenvalues --  -19.12924 -19.12196 -19.11606 -19.10892 -19.10118
 Alpha  occ. eigenvalues --  -19.09920 -19.09532 -19.08958 -19.08808 -19.08397
 Alpha  occ. eigenvalues --  -19.08094 -19.07717 -19.07300 -19.07199 -19.06997
 Alpha  occ. eigenvalues --  -19.06980 -19.05861 -18.96897 -18.96781 -15.52213
 Alpha  occ. eigenvalues --  -14.57707 -14.40572 -14.39421 -14.39357 -14.36906
 Alpha  occ. eigenvalues --  -14.36810 -14.36736 -14.36435 -14.36378 -14.34526
 Alpha  occ. eigenvalues --  -14.34433 -14.33727 -14.33267 -14.33144 -14.32462
 Alpha  occ. eigenvalues --  -12.65829 -12.65796 -12.65738 -10.35559 -10.32508
 Alpha  occ. eigenvalues --  -10.32399 -10.31200 -10.30675 -10.29628 -10.28836
 Alpha  occ. eigenvalues --  -10.28832 -10.28686 -10.28417 -10.28267 -10.27764
 Alpha  occ. eigenvalues --  -10.27433 -10.27007 -10.26663 -10.26545 -10.26463
 Alpha  occ. eigenvalues --  -10.25987 -10.25891 -10.25721 -10.25624 -10.25469
 Alpha  occ. eigenvalues --  -10.25073 -10.24500 -10.24247 -10.24216 -10.24205
 Alpha  occ. eigenvalues --  -10.24044 -10.23552 -10.22867 -10.22563 -10.22481
 Alpha  occ. eigenvalues --  -10.22476 -10.22259 -10.20581 -10.20175 -10.20168
 Alpha  occ. eigenvalues --  -10.19731 -10.19383 -10.19189 -10.18663 -10.18528
 Alpha  occ. eigenvalues --  -10.18349 -10.18260 -10.18125 -10.18041 -10.17761
 Alpha  occ. eigenvalues --  -10.17756 -10.17729 -10.17539 -10.16580 -10.15964
 Alpha  occ. eigenvalues --  -10.14821 -10.10242  -1.88811  -1.16256  -1.15978
 Alpha  occ. eigenvalues --   -1.15720  -1.13369  -1.08671  -1.07679  -1.06989
 Alpha  occ. eigenvalues --   -1.05778  -1.04786  -1.04128  -1.03796  -1.03522
 Alpha  occ. eigenvalues --   -1.03443  -1.02603  -1.02576  -1.02062  -1.01956
 Alpha  occ. eigenvalues --   -1.01409  -1.01004  -1.00424  -1.00424  -0.99957
 Alpha  occ. eigenvalues --   -0.99323  -0.96496  -0.96177  -0.95755  -0.93947
 Alpha  occ. eigenvalues --   -0.93874  -0.93572  -0.93482  -0.92987  -0.92532
 Alpha  occ. eigenvalues --   -0.91636  -0.91166  -0.90834  -0.90565  -0.89966
 Alpha  occ. eigenvalues --   -0.89507  -0.89447  -0.89279  -0.88962  -0.84280
 Alpha  occ. eigenvalues --   -0.84174  -0.82361  -0.81675  -0.81591  -0.80346
 Alpha  occ. eigenvalues --   -0.79368  -0.78748  -0.77896  -0.77686  -0.76731
 Alpha  occ. eigenvalues --   -0.76410  -0.76092  -0.75586  -0.74756  -0.73906
 Alpha  occ. eigenvalues --   -0.73732  -0.73622  -0.72852  -0.72604  -0.71916
 Alpha  occ. eigenvalues --   -0.71055  -0.70020  -0.69016  -0.68648  -0.68213
 Alpha  occ. eigenvalues --   -0.66570  -0.66331  -0.65726  -0.65654  -0.65206
 Alpha  occ. eigenvalues --   -0.64811  -0.64128  -0.63990  -0.63343  -0.63272
 Alpha  occ. eigenvalues --   -0.62828  -0.62530  -0.62338  -0.61891  -0.61307
 Alpha  occ. eigenvalues --   -0.61145  -0.60524  -0.60231  -0.60017  -0.59846
 Alpha  occ. eigenvalues --   -0.58839  -0.58426  -0.58179  -0.57814  -0.57673
 Alpha  occ. eigenvalues --   -0.57265  -0.57206  -0.56511  -0.56173  -0.56077
 Alpha  occ. eigenvalues --   -0.55792  -0.55251  -0.54858  -0.54382  -0.54319
 Alpha  occ. eigenvalues --   -0.54276  -0.53550  -0.53394  -0.53337  -0.52822
 Alpha  occ. eigenvalues --   -0.52649  -0.52018  -0.51994  -0.51520  -0.51439
 Alpha  occ. eigenvalues --   -0.51371  -0.50938  -0.50764  -0.50358  -0.50024
 Alpha  occ. eigenvalues --   -0.49886  -0.49583  -0.49377  -0.49194  -0.49066
 Alpha  occ. eigenvalues --   -0.48848  -0.48476  -0.48082  -0.47764  -0.47264
 Alpha  occ. eigenvalues --   -0.47041  -0.46922  -0.46820  -0.46686  -0.46526
 Alpha  occ. eigenvalues --   -0.46107  -0.45897  -0.45852  -0.45820  -0.45590
 Alpha  occ. eigenvalues --   -0.45466  -0.45246  -0.44912  -0.44790  -0.44651
 Alpha  occ. eigenvalues --   -0.44366  -0.44341  -0.44196  -0.44094  -0.43929
 Alpha  occ. eigenvalues --   -0.43764  -0.43378  -0.43323  -0.43159  -0.43140
 Alpha  occ. eigenvalues --   -0.43070  -0.42838  -0.42672  -0.42479  -0.42355
 Alpha  occ. eigenvalues --   -0.42208  -0.42165  -0.42126  -0.41862  -0.41834
 Alpha  occ. eigenvalues --   -0.41788  -0.41345  -0.41295  -0.41292  -0.40635
 Alpha  occ. eigenvalues --   -0.40548  -0.40521  -0.40338  -0.40234  -0.40202
 Alpha  occ. eigenvalues --   -0.40177  -0.40038  -0.39957  -0.39838  -0.39637
 Alpha  occ. eigenvalues --   -0.39524  -0.39491  -0.39405  -0.39095  -0.38972
 Alpha  occ. eigenvalues --   -0.38726  -0.38440  -0.38287  -0.38199  -0.38130
 Alpha  occ. eigenvalues --   -0.38017  -0.37898  -0.37710  -0.37420  -0.37308
 Alpha  occ. eigenvalues --   -0.37092  -0.36968  -0.36942  -0.36655  -0.36524
 Alpha  occ. eigenvalues --   -0.36385  -0.36334  -0.36235  -0.35985  -0.35601
 Alpha  occ. eigenvalues --   -0.35571  -0.34819  -0.34620  -0.34402  -0.34392
 Alpha  occ. eigenvalues --   -0.34136  -0.34016  -0.33543  -0.33175  -0.33116
 Alpha  occ. eigenvalues --   -0.32745  -0.32332  -0.32082  -0.31960  -0.31915
 Alpha  occ. eigenvalues --   -0.31684  -0.31273  -0.30897  -0.30466  -0.30115
 Alpha  occ. eigenvalues --   -0.29575  -0.28928  -0.28855  -0.28686  -0.28242
 Alpha  occ. eigenvalues --   -0.28173  -0.27505  -0.27382  -0.27369  -0.27017
 Alpha  occ. eigenvalues --   -0.26785  -0.26637  -0.26548  -0.26412  -0.26253
 Alpha  occ. eigenvalues --   -0.26033  -0.25892  -0.25460  -0.25248  -0.25119
 Alpha  occ. eigenvalues --   -0.24956  -0.24642  -0.24411  -0.24162  -0.24075
 Alpha  occ. eigenvalues --   -0.23796  -0.23632  -0.23273  -0.23250  -0.22723
 Alpha  occ. eigenvalues --   -0.22250  -0.22195  -0.21649  -0.21485  -0.21452
 Alpha  occ. eigenvalues --   -0.14141  -0.13148  -0.11663
 Alpha virt. eigenvalues --   -0.11189  -0.09393  -0.05078  -0.04838  -0.03095
 Alpha virt. eigenvalues --   -0.02975  -0.02522  -0.01979  -0.01769  -0.01050
 Alpha virt. eigenvalues --   -0.00471  -0.00160  -0.00153   0.00276   0.00433

 Mulliken charges:
               1
     1  C    0.056956
     2  C    0.023708
     3  O   -0.315609
     4  H    0.034211
     5  H    0.031969
     6  H    0.028248
     7  N   -0.117616
     8  C    0.054094
     9  C    0.080083
    10  O   -0.269364
    11  C    0.177915
    12  C    0.074185
    13  O   -0.465273
    14  O   -0.385052
    15  H    0.120349
    16  H    0.024639
    17  H    0.010987
    18  H   -0.017021
    19  N   -0.139616
    20  C    0.129210
    21  C    0.055777
    22  O   -0.279015
    23  C    0.043724
    24  C   -0.016642
    25  C   -0.010453
    26  C    0.065198
    27  N    0.138431
    28  H    0.145195
    29  H    0.016495
    30  H    0.019664
    31  H    0.013123
    32  H    0.024578
    33  H   -0.024954
    34  H    0.019319
    35  H    0.044756
    36  H    0.057483
    37  H    0.063181
    38  H    0.121999
    39  H    0.121880
    40  H    0.116988
    41  N   -0.152559
    42  C    0.100081
    43  C   -0.007457
    44  O   -0.284472
    45  C    0.178977
    46  C    0.093017
    47  O   -0.446084
    48  O   -0.406867
    49  H    0.145036
    50  H    0.033633
    51  H    0.005049
    52  H    0.018433
    53  N   -0.158022
    54  C    0.267423
    55  C    0.028874
    56  O   -0.304098
    57  H    0.125762
    58  H    0.036550
    59  H    0.037267
    60  N   -0.126534
    61  C    0.123598
    62  C    0.082570
    63  O   -0.381903
    64  C    0.146438
    65  C   -0.015711
    66  N   -0.061401
    67  O   -0.264514
    68  H    0.157229
    69  H    0.001937
    70  H    0.014374
    71  H    0.039261
    72  H    0.095037
    73  H    0.144951
    74  N   -0.131686
    75  C    0.224699
    76  C    0.023537
    77  O   -0.285950
    78  H    0.144232
    79  H    0.030812
    80  H    0.011471
    81  N   -0.131906
    82  C    0.172465
    83  C    0.113809
    84  O   -0.273213
    85  C    0.115632
    86  C   -0.046109
    87  C    0.003347
    88  C   -0.017649
    89  C   -0.026193
    90  C   -0.042638
    91  C    0.180569
    92  O   -0.212959
    93  H    0.120309
    94  H   -0.021152
    95  H    0.032105
    96  H   -0.011946
    97  H    0.005313
    98  H   -0.039699
    99  H   -0.015070
   100  H   -0.047115
   101  H    0.175724
   102  N   -0.113537
   103  C    0.103842
   104  C    0.123325
   105  O   -0.241722
   106  C   -0.089154
   107  C   -0.008460
   108  C    0.103596
   109  C    0.026855
   110  H    0.130576
   111  H   -0.034636
   112  H   -0.015381
   113  H   -0.001492
   114  H   -0.039866
   115  H   -0.021322
   116  H   -0.026916
   117  H    0.027457
   118  H    0.014384
   119  H    0.006811
   120  H    0.034620
   121  N   -0.142544
   122  C    0.124993
   123  C    0.065118
   124  O   -0.256842
   125  C    0.227330
   126  O   -0.341511
   127  H    0.123005
   128  H    0.033704
   129  H    0.020234
   130  H    0.016032
   131  H    0.179351
   132  N   -0.130448
   133  C   -0.014310
   134  C    0.077645
   135  O   -0.239554
   136  C    0.079446
   137  H    0.116255
   138  H    0.032511
   139  H    0.037438
   140  H    0.016695
   141  H   -0.003328
   142  N   -0.104898
   143  C   -0.008181
   144  C    0.085925
   145  O   -0.280859
   146  C    0.081808
   147  H    0.128406
   148  H    0.001137
   149  H   -0.023392
   150  H    0.018597
   151  H    0.027379
   152  N   -0.074055
   153  C    0.109400
   154  C    0.067362
   155  O   -0.279196
   156  C    0.003556
   157  C    0.077513
   158  C    0.059229
   159  O   -0.362032
   160  O   -0.363549
   161  H    0.111824
   162  H   -0.016418
   163  H    0.006701
   164  H   -0.012313
   165  H   -0.010918
   166  H   -0.042501
   167  N   -0.165904
   168  C    0.115951
   169  H    0.037416
   170  H    0.012154
   171  H    0.033075
   172  H    0.116826
   173  Ca   1.358484
   174  O   -0.310082
   175  H    0.210919
   176  H    0.200094
 Sum of Mulliken charges =  -0.00000

 Dipole moment (field-independent basis, Debye):
    X=            -61.4557    Y=              8.5101    Z=              6.6073  Tot=             62.3930
 Quadrupole moment (field-independent basis, Debye-Ang):
   XX=           -166.3271   YY=           -714.5157   ZZ=           -539.1978
   XY=           -432.1640   XZ=             58.9401   YZ=            -46.6180

 ESP charges:
               1
     1  C   -0.448731
     2  C    0.686723
     3  O   -0.600568
     4  H    0.129885
     5  H    0.137193
     6  H    0.107672
     7  N   -0.584505
     8  C    0.352090
     9  C    0.397459
    10  O   -0.493162
    11  C   -0.298065
    12  C    0.832931
    13  O   -0.844084
    14  O   -0.750486
    15  H    0.313372
    16  H    0.039075
    17  H    0.077525
    18  H    0.071868
    19  N   -0.491241
    20  C    0.121330
    21  C    0.441884
    22  O   -0.539386
    23  C   -0.208766
    24  C    0.323509
    25  C   -0.381976
    26  C    0.292632
    27  N   -0.428466
    28  H    0.326278
    29  H    0.087627
    30  H    0.065069
    31  H    0.075870
    32  H   -0.024860
    33  H   -0.077728
    34  H    0.094848
    35  H    0.120531
    36  H    0.035042
    37  H    0.020936
    38  H    0.296002
    39  H    0.290665
    40  H    0.261193
    41  N   -0.304284
    42  C    0.101542
    43  C    0.344896
    44  O   -0.531028
    45  C   -0.296171
    46  C    0.887221
    47  O   -0.854982
    48  O   -0.791075
    49  H    0.244879
    50  H    0.108375
    51  H    0.086471
    52  H    0.094965
    53  N    0.016613
    54  C   -0.483573
    55  C    0.679590
    56  O   -0.588014
    57  H    0.109796
    58  H    0.184102
    59  H    0.186493
    60  N   -0.348751
    61  C    0.250466
    62  C    0.391922
    63  O   -0.530544
    64  C   -0.639102
    65  C    0.862014
    66  N   -0.864892
    67  O   -0.619448
    68  H    0.248681
    69  H    0.061241
    70  H    0.199333
    71  H    0.198087
    72  H    0.334871
    73  H    0.427492
    74  N   -0.445116
    75  C    0.213639
    76  C    0.424902
    77  O   -0.552563
    78  H    0.291133
    79  H    0.040068
    80  H   -0.009326
    81  N   -0.338727
    82  C    0.087393
    83  C    0.619829
    84  O   -0.548552
    85  C   -0.343315
    86  C    0.125052
    87  C   -0.198131
    88  C   -0.160978
    89  C   -0.223646
    90  C   -0.335525
    91  C    0.396153
    92  O   -0.581545
    93  H    0.223795
    94  H    0.062068
    95  H    0.176196
    96  H    0.097912
    97  H    0.170369
    98  H    0.140063
    99  H    0.162759
   100  H    0.153480
   101  H    0.422908
   102  N   -0.547985
   103  C   -0.182665
   104  C    0.580913
   105  O   -0.460084
   106  C    0.555006
   107  C    0.041626
   108  C   -0.313827
   109  C   -0.265794
   110  H    0.334916
   111  H    0.087548
   112  H   -0.098548
   113  H   -0.002345
   114  H   -0.031327
   115  H    0.011459
   116  H    0.021519
   117  H    0.102028
   118  H    0.077686
   119  H    0.046444
   120  H    0.068253
   121  N   -0.386469
   122  C   -0.169199
   123  C    0.753351
   124  O   -0.518049
   125  C    0.286699
   126  O   -0.641132
   127  H    0.204751
   128  H    0.072395
   129  H    0.041987
   130  H   -0.007594
   131  H    0.405609
   132  N   -0.634636
   133  C    0.083923
   134  C    0.706980
   135  O   -0.547179
   136  C   -0.304638
   137  H    0.366891
   138  H    0.081672
   139  H    0.094949
   140  H    0.086013
   141  H    0.095713
   142  N   -0.823547
   143  C    0.603807
   144  C    0.402187
   145  O   -0.536526
   146  C   -0.290672
   147  H    0.375592
   148  H   -0.075792
   149  H    0.045783
   150  H    0.053363
   151  H    0.095537
   152  N   -0.415355
   153  C   -0.268783
   154  C    0.519305
   155  O   -0.527439
   156  C   -0.093737
   157  C   -0.348234
   158  C    0.718251
   159  O   -0.646282
   160  O   -0.656194
   161  H    0.307297
   162  H    0.157492
   163  H    0.110204
   164  H    0.071336
   165  H    0.123476
   166  H    0.095826
   167  N   -0.313292
   168  C   -0.088670
   169  H    0.093851
   170  H    0.045953
   171  H    0.068201
   172  H    0.292577
   173  Ca   1.689832
   174  O   -0.816570
   175  H    0.417848
   176  H    0.451853
 Sum of ESP charges =  -0.00000

 Normal termination of Gaussian 16 at Wed Sep 18 00:03:03 2019.
