 Gaussian 16, Revision A.03,
 Gaussian 16:  ES64L-G16RevA.03 25-Dec-2016

 ----------------------------------------------------------------------
 #b3lyp/svp scf=(tight,noincore) Test #IOP(5/87=12) Density=Current Pop
 =(MK,readradii) iop(6/33=2) iop(6/42=6)
 ----------------------------------------------------------------------

 ----------------
 Ng-293_loop3_3.0
 ----------------
 Symbolic Z-matrix:
 Charge =  0 Multiplicity = 1

                         Standard orientation:
 ---------------------------------------------------------------------
 Center     Atomic      Atomic             Coordinates (Angstroms)
 Number     Number       Type             X           Y           Z
 ---------------------------------------------------------------------
      1          6           0        9.210246    3.569204    5.514142
      2          6           0        9.473050    3.721775    4.020637
      3          8           0       10.546030    4.231570    3.675786
      4          1           0        8.780447    4.492671    5.903596
      5          1           0        8.513636    2.747255    5.679506
      6          1           0       10.147480    3.360296    6.028807
      7          7           0        8.545223    3.279310    3.175616
      8          6           0        8.667902    3.239297    1.734800
      9          6           0        8.473808    1.855037    1.144841
     10          8           0        7.614950    1.102843    1.609671
     11          6           0        7.659338    4.171754    1.062028
     12          6           0        7.828364    4.226301   -0.441320
     13          8           0        7.101333    3.490468   -1.141373
     14          8           0        8.634732    5.056555   -0.898975
     15          1           0        7.816910    2.677981    3.525565
     16          1           0        9.631774    3.599366    1.370520
     17          1           0        7.800763    5.208555    1.367386
     18          1           0        6.694488    3.712669    1.283849
     19          7           0        9.319425    1.553213    0.147778
     20          6           0        9.619321    0.243025   -0.379829
     21          6           0        8.530551   -0.575445   -1.057167
     22          8           0        8.940212   -1.522343   -1.737653
     23          6           0       10.308446   -0.619025    0.674390
     24          6           0       11.577435   -0.010423    1.287880
     25          6           0       12.344568   -1.129935    1.978605
     26          6           0       13.720899   -0.737267    2.521030
     27          7           0       13.677725    0.529781    3.277619
     28          1           0       10.036619    2.203275   -0.144714
     29          1           0       10.412292    0.406676   -1.111822
     30          1           0       10.656609   -1.514563    0.169916
     31          1           0        9.531113   -0.822115    1.406312
     32          1           0       11.292807    0.826377    1.934527
     33          1           0       12.211625    0.364234    0.485425
     34          1           0       12.597690   -2.002127    1.375024
     35          1           0       11.792989   -1.502377    2.845638
     36          1           0       14.355042   -0.621100    1.631497
     37          1           0       14.139608   -1.523194    3.138121
     38          1           0       12.892914    0.460841    3.903014
     39          1           0       14.520400    0.604325    3.823001
     40          1           0       13.662437    1.391825    2.762793
     41          7           0        7.279300   -0.136031   -1.040221
     42          6           0        6.161864   -0.691923   -1.773516
     43          6           0        4.999240    0.269803   -1.940513
     44          8           0        4.485443    0.786908   -0.955670
     45          6           0        5.711708   -1.967104   -1.061003
     46          6           0        4.495078   -2.592898   -1.717656
     47          8           0        3.377386   -2.656777   -1.171410
     48          8           0        4.583851   -3.004334   -2.905696
     49          1           0        7.075531    0.717871   -0.531666
     50          1           0        6.540428   -0.958368   -2.767396
     51          1           0        5.574991   -1.680911   -0.017930
     52          1           0        6.500259   -2.696820   -0.900374
     53          7           0        4.598320    0.539067   -3.189777
     54          6           0        3.363283    1.244067   -3.462832
     55          6           0        2.092810    0.443102   -3.192923
     56          8           0        2.027960   -0.722924   -3.580967
     57          1           0        5.261724    0.309025   -3.917497
     58          1           0        3.257499    1.584309   -4.481972
     59          1           0        3.324201    2.079272   -2.772539
     60          7           0        1.024198    1.075814   -2.716327
     61          6           0       -0.287062    0.471846   -2.546560
     62          6           0       -1.431075    1.403341   -2.945375
     63          8           0       -2.599441    1.016140   -2.973582
     64          6           0       -0.596570   -0.056583   -1.152298
     65          6           0        0.453355   -1.108909   -0.838024
     66          7           0        1.545930   -0.615844   -0.258140
     67          8           0        0.360125   -2.232743   -1.335221
     68          1           0        1.304530    1.939262   -2.282308
     69          1           0       -0.339013   -0.338550   -3.266810
     70          1           0       -1.558807   -0.559864   -1.155288
     71          1           0       -0.643814    0.683910   -0.355406
     72          1           0        1.735372    0.364196   -0.098976
     73          1           0        2.326644   -1.264813   -0.197102
     74          7           0       -1.072194    2.664305   -3.195323
     75          6           0       -2.023820    3.710002   -3.526723
     76          6           0       -2.938021    4.014733   -2.352212
     77          8           0       -2.475280    4.211412   -1.232083
     78          1           0       -0.159993    2.957015   -2.884183
     79          1           0       -2.564414    3.497319   -4.456897
     80          1           0       -1.541029    4.670068   -3.708070
     81          7           0       -4.256852    3.887680   -2.562307
     82          6           0       -5.304078    4.200931   -1.617430
     83          6           0       -5.442123    3.223656   -0.454985
     84          8           0       -6.314473    3.401054    0.390080
     85          6           0       -5.337407    5.677968   -1.247633
     86          6           0       -6.536971    6.189767   -0.483232
     87          6           0       -7.838183    5.780813   -0.786719
     88          6           0       -6.303359    7.094445    0.554208
     89          6           0       -8.921529    6.392140   -0.129497
     90          6           0       -7.382517    7.676963    1.234935
     91          6           0       -8.707719    7.380364    0.843694
     92          8           0       -9.807241    7.894053    1.469213
     93          1           0       -4.596171    3.625464   -3.474177
     94          1           0       -6.209180    4.109325   -2.210894
     95          1           0       -5.422625    6.186011   -2.213671
     96          1           0       -4.362541    5.850707   -0.775620
     97          1           0       -8.055227    5.019066   -1.515783
     98          1           0       -5.256031    7.212660    0.797581
     99          1           0       -9.925350    6.070515   -0.336379
    100          1           0       -7.204734    8.392603    2.025095
    101          1           0       -9.728484    8.646871    2.050300
    102          7           0       -4.586517    2.216236   -0.280796
    103          6           0       -4.711392    1.221554    0.777134
    104          6           0       -5.808002    0.193827    0.521162
    105          8           0       -5.523988   -1.002000    0.570504
    106          6           0       -4.677876    1.741904    2.204514
    107          6           0       -3.586968    2.790243    2.431457
    108          6           0       -4.567477    0.612400    3.216954
    109          6           0       -3.644032    3.563940    3.743035
    110          1           0       -3.688687    2.261228   -0.738700
    111          1           0       -3.801850    0.616281    0.719875
    112          1           0       -5.586536    2.271056    2.483143
    113          1           0       -3.579279    3.562973    1.662673
    114          1           0       -2.590221    2.356320    2.458069
    115          1           0       -4.446170    0.902032    4.256568
    116          1           0       -5.409583   -0.078974    3.170491
    117          1           0       -3.608462    0.179271    2.944942
    118          1           0       -3.515056    2.868106    4.577469
    119          1           0       -2.883356    4.337140    3.780917
    120          1           0       -4.598918    4.075019    3.880114
    121          7           0       -7.008240    0.600983    0.119351
    122          6           0       -8.102010   -0.242722   -0.319999
    123          6           0       -8.498520   -1.413270    0.566509
    124          8           0       -9.036386   -2.401570    0.080645
    125          6           0       -9.259397    0.721155   -0.527837
    126          8           0       -9.005123    1.546656   -1.641746
    127          1           0       -7.177614    1.590947    0.235473
    128          1           0       -7.821663   -0.707948   -1.263487
    129          1           0       -9.386008    1.323499    0.369132
    130          1           0      -10.210980    0.191903   -0.658153
    131          1           0       -9.870394    1.971970   -1.727856
    132          7           0       -8.131885   -1.490806    1.848408
    133          6           0       -8.137534   -2.726706    2.597956
    134          6           0       -7.462884   -3.926095    1.947947
    135          8           0       -8.014341   -5.019687    2.020410
    136          6           0       -9.523439   -3.018712    3.176144
    137          1           0       -7.702971   -0.697803    2.310014
    138          1           0       -7.603669   -2.509073    3.522631
    139          1           0       -9.795529   -2.283637    3.934123
    140          1           0      -10.251517   -3.039708    2.356900
    141          1           0       -9.511693   -4.018931    3.607333
    142          7           0       -6.262842   -3.738265    1.394305
    143          6           0       -5.451251   -4.715894    0.685389
    144          6           0       -4.046327   -4.859592    1.237510
    145          8           0       -3.637360   -3.960880    1.964120
    146          6           0       -5.443035   -4.352422   -0.797824
    147          1           0       -6.045209   -2.746737    1.383842
    148          1           0       -5.883712   -5.709181    0.829815
    149          1           0       -4.955545   -5.070717   -1.458737
    150          1           0       -6.453678   -4.098438   -1.114830
    151          1           0       -4.807964   -3.484144   -0.957131
    152          7           0       -3.352387   -5.922462    0.832226
    153          6           0       -2.016486   -6.253089    1.282399
    154          6           0       -1.727250   -6.004143    2.752763
    155          8           0       -0.711619   -5.411848    3.097843
    156          6           0       -0.955492   -5.579736    0.408393
    157          6           0       -0.878505   -6.246544   -0.958662
    158          6           0        0.124273   -5.489817   -1.813705
    159          8           0        1.313382   -5.482989   -1.425796
    160          8           0       -0.196684   -4.938137   -2.888478
    161          1           0       -3.828505   -6.604660    0.255322
    162          1           0       -1.897182   -7.331567    1.275174
    163          1           0       -0.009043   -5.760650    0.924246
    164          1           0       -1.098011   -4.502807    0.388074
    165          1           0       -1.864907   -6.203244   -1.440364
    166          1           0       -0.557950   -7.275903   -0.822410
    167          7           0       -2.603539   -6.414167    3.674119
    168          6           0       -2.504770   -6.073281    5.078377
    169          1           0       -2.917742   -5.077308    5.239727
    170          1           0       -3.064235   -6.798259    5.668733
    171          1           0       -1.458323   -6.085604    5.383566
    172          1           0       -3.454771   -6.918721    3.479618
    173         20           0        1.870875   -3.364534   -3.238294
    174          8           0        2.816898   -5.481911   -4.609975
    175          1           0        2.604358   -6.335175   -4.226742
    176          1           0        3.066349   -5.685613   -5.516716
 ---------------------------------------------------------------------

 SCF Done:  E(RB3LYP) =  -5333.45954101     A.U. after   28 cycles

 The electronic state is 1-A.
 Alpha  occ. eigenvalues -- -145.37647 -19.16180 -19.15496 -19.14278 -19.13852
 Alpha  occ. eigenvalues --  -19.12436 -19.12270 -19.10085 -19.09266 -19.09218
 Alpha  occ. eigenvalues --  -19.09155 -19.09067 -19.07935 -19.07803 -19.07303
 Alpha  occ. eigenvalues --  -19.06299 -19.05186 -19.05124 -19.03664 -19.03047
 Alpha  occ. eigenvalues --  -19.02088 -19.00641 -18.95799 -18.95663 -15.43472
 Alpha  occ. eigenvalues --  -14.58259 -14.39921 -14.39017 -14.38039 -14.35958
 Alpha  occ. eigenvalues --  -14.35520 -14.34973 -14.34842 -14.34159 -14.34098
 Alpha  occ. eigenvalues --  -14.33460 -14.33076 -14.32892 -14.31823 -14.30678
 Alpha  occ. eigenvalues --  -12.57082 -12.57052 -12.57003 -10.35242 -10.32296
 Alpha  occ. eigenvalues --  -10.31170 -10.30973 -10.29013 -10.27996 -10.27902
 Alpha  occ. eigenvalues --  -10.27821 -10.27552 -10.27371 -10.27319 -10.27017
 Alpha  occ. eigenvalues --  -10.26601 -10.26467 -10.26353 -10.25271 -10.25136
 Alpha  occ. eigenvalues --  -10.24948 -10.24907 -10.24783 -10.24359 -10.24299
 Alpha  occ. eigenvalues --  -10.24169 -10.23380 -10.23142 -10.22864 -10.22766
 Alpha  occ. eigenvalues --  -10.21238 -10.20923 -10.20829 -10.20538 -10.20146
 Alpha  occ. eigenvalues --  -10.20103 -10.19929 -10.19856 -10.19840 -10.19128
 Alpha  occ. eigenvalues --  -10.18914 -10.18684 -10.18639 -10.18622 -10.18496
 Alpha  occ. eigenvalues --  -10.18137 -10.17936 -10.16734 -10.16449 -10.16357
 Alpha  occ. eigenvalues --  -10.15646 -10.15259 -10.14975 -10.14864 -10.12910
 Alpha  occ. eigenvalues --  -10.12758 -10.11434  -1.80200  -1.13776  -1.07770
 Alpha  occ. eigenvalues --   -1.07625  -1.07305  -1.06747  -1.05909  -1.04812
 Alpha  occ. eigenvalues --   -1.03937  -1.03879  -1.03048  -1.02296  -1.02262
 Alpha  occ. eigenvalues --   -1.01967  -1.01932  -1.01495  -1.01349  -1.00412
 Alpha  occ. eigenvalues --   -0.99964  -0.99829  -0.98462  -0.98448  -0.98007
 Alpha  occ. eigenvalues --   -0.97001  -0.96292  -0.94874  -0.94666  -0.92492
 Alpha  occ. eigenvalues --   -0.92227  -0.92064  -0.91696  -0.90877  -0.90319
 Alpha  occ. eigenvalues --   -0.90283  -0.90109  -0.89891  -0.89224  -0.88743
 Alpha  occ. eigenvalues --   -0.87766  -0.87591  -0.87267  -0.85711  -0.84587
 Alpha  occ. eigenvalues --   -0.82280  -0.81867  -0.80953  -0.80850  -0.79775
 Alpha  occ. eigenvalues --   -0.77521  -0.77391  -0.76490  -0.76196  -0.76136
 Alpha  occ. eigenvalues --   -0.74907  -0.74256  -0.73838  -0.73762  -0.73498
 Alpha  occ. eigenvalues --   -0.73450  -0.72572  -0.72455  -0.71697  -0.70744
 Alpha  occ. eigenvalues --   -0.69546  -0.69405  -0.69389  -0.69128  -0.66656
 Alpha  occ. eigenvalues --   -0.65661  -0.64985  -0.64700  -0.64416  -0.63433
 Alpha  occ. eigenvalues --   -0.63349  -0.62622  -0.62410  -0.61875  -0.61466
 Alpha  occ. eigenvalues --   -0.61268  -0.61139  -0.61022  -0.60720  -0.59955
 Alpha  occ. eigenvalues --   -0.59223  -0.58912  -0.58813  -0.58342  -0.58166
 Alpha  occ. eigenvalues --   -0.57506  -0.57099  -0.57093  -0.56626  -0.56347
 Alpha  occ. eigenvalues --   -0.55931  -0.55583  -0.55110  -0.55088  -0.54736
 Alpha  occ. eigenvalues --   -0.54400  -0.54375  -0.54294  -0.54173  -0.53960
 Alpha  occ. eigenvalues --   -0.53351  -0.53178  -0.52527  -0.52344  -0.52166
 Alpha  occ. eigenvalues --   -0.51882  -0.51767  -0.50947  -0.50667  -0.50314
 Alpha  occ. eigenvalues --   -0.49388  -0.49195  -0.49171  -0.48775  -0.48568
 Alpha  occ. eigenvalues --   -0.48168  -0.47838  -0.47741  -0.47665  -0.46945
 Alpha  occ. eigenvalues --   -0.46676  -0.46598  -0.46317  -0.46292  -0.46062
 Alpha  occ. eigenvalues --   -0.45836  -0.45436  -0.45196  -0.45032  -0.44985
 Alpha  occ. eigenvalues --   -0.44867  -0.44752  -0.44689  -0.44479  -0.43979
 Alpha  occ. eigenvalues --   -0.43816  -0.43787  -0.43578  -0.43464  -0.43092
 Alpha  occ. eigenvalues --   -0.43060  -0.42867  -0.42803  -0.42694  -0.42610
 Alpha  occ. eigenvalues --   -0.42478  -0.42379  -0.42195  -0.42077  -0.41838
 Alpha  occ. eigenvalues --   -0.41811  -0.41352  -0.41012  -0.40919  -0.40846
 Alpha  occ. eigenvalues --   -0.40708  -0.40671  -0.40538  -0.40479  -0.40294
 Alpha  occ. eigenvalues --   -0.40219  -0.39986  -0.39801  -0.39583  -0.39553
 Alpha  occ. eigenvalues --   -0.39238  -0.39174  -0.38954  -0.38881  -0.38746
 Alpha  occ. eigenvalues --   -0.38661  -0.38579  -0.38447  -0.38304  -0.38017
 Alpha  occ. eigenvalues --   -0.37947  -0.37815  -0.37680  -0.37633  -0.37567
 Alpha  occ. eigenvalues --   -0.37253  -0.37107  -0.36821  -0.36771  -0.36422
 Alpha  occ. eigenvalues --   -0.36218  -0.36123  -0.36116  -0.35849  -0.35783
 Alpha  occ. eigenvalues --   -0.35613  -0.35200  -0.35095  -0.34963  -0.34560
 Alpha  occ. eigenvalues --   -0.34416  -0.34380  -0.34133  -0.33801  -0.33652
 Alpha  occ. eigenvalues --   -0.33416  -0.33377  -0.33156  -0.33082  -0.33077
 Alpha  occ. eigenvalues --   -0.32674  -0.32427  -0.32305  -0.32120  -0.31806
 Alpha  occ. eigenvalues --   -0.31723  -0.31477  -0.31416  -0.31121  -0.30909
 Alpha  occ. eigenvalues --   -0.30341  -0.29931  -0.29463  -0.29402  -0.28692
 Alpha  occ. eigenvalues --   -0.28480  -0.28088  -0.27718  -0.27619  -0.27557
 Alpha  occ. eigenvalues --   -0.27396  -0.26680  -0.26339  -0.26162  -0.26063
 Alpha  occ. eigenvalues --   -0.25972  -0.25654  -0.25126  -0.25087  -0.24757
 Alpha  occ. eigenvalues --   -0.24683  -0.24052  -0.23919  -0.23813  -0.23609
 Alpha  occ. eigenvalues --   -0.23531  -0.23318  -0.22659  -0.22139  -0.22026
 Alpha  occ. eigenvalues --   -0.21894  -0.21466  -0.21371  -0.21001  -0.20840
 Alpha  occ. eigenvalues --   -0.20711  -0.20087  -0.18872  -0.18709  -0.16787
 Alpha  occ. eigenvalues --   -0.13680  -0.13380  -0.11384
 Alpha virt. eigenvalues --   -0.09979  -0.04606  -0.03822  -0.02078  -0.01915
 Alpha virt. eigenvalues --   -0.01912  -0.01291  -0.00984  -0.00579  -0.00415
 Alpha virt. eigenvalues --    0.00433   0.01066   0.01376   0.01974   0.02010

 Mulliken charges:
               1
     1  C    0.066765
     2  C   -0.008146
     3  O   -0.324107
     4  H    0.050277
     5  H   -0.003035
     6  H    0.000680
     7  N   -0.086796
     8  C    0.076055
     9  C    0.074635
    10  O   -0.296260
    11  C    0.159458
    12  C   -0.033732
    13  O   -0.402220
    14  O   -0.385725
    15  H    0.118999
    16  H   -0.024399
    17  H   -0.008101
    18  H   -0.031697
    19  N   -0.106204
    20  C    0.096153
    21  C    0.092639
    22  O   -0.310393
    23  C    0.007301
    24  C    0.006071
    25  C   -0.040960
    26  C    0.021425
    27  N    0.087124
    28  H    0.136565
    29  H    0.002977
    30  H    0.017636
    31  H    0.028234
    32  H    0.009054
    33  H   -0.006035
    34  H    0.054963
    35  H    0.031549
    36  H    0.074133
    37  H    0.070444
    38  H    0.192595
    39  H    0.179158
    40  H    0.201154
    41  N   -0.093691
    42  C    0.112101
    43  C    0.098212
    44  O   -0.271842
    45  C    0.121887
    46  C    0.121913
    47  O   -0.408940
    48  O   -0.444176
    49  H    0.155202
    50  H   -0.010428
    51  H   -0.008619
    52  H    0.014592
    53  N   -0.120505
    54  C    0.233465
    55  C    0.074899
    56  O   -0.370611
    57  H    0.137736
    58  H    0.044191
    59  H    0.017923
    60  N   -0.151613
    61  C    0.103166
    62  C    0.075820
    63  O   -0.268840
    64  C    0.076513
    65  C    0.079478
    66  N   -0.050274
    67  O   -0.317453
    68  H    0.133461
    69  H    0.033322
    70  H    0.057401
    71  H    0.003866
    72  H    0.119726
    73  H    0.152421
    74  N   -0.118172
    75  C    0.221151
    76  C    0.034592
    77  O   -0.288898
    78  H    0.108504
    79  H    0.015127
    80  H    0.035820
    81  N   -0.121650
    82  C    0.078620
    83  C    0.101850
    84  O   -0.300324
    85  C    0.131496
    86  C    0.012831
    87  C    0.015243
    88  C   -0.005840
    89  C   -0.039061
    90  C   -0.039649
    91  C    0.192738
    92  O   -0.217095
    93  H    0.126575
    94  H    0.014377
    95  H   -0.002578
    96  H    0.027348
    97  H   -0.043165
    98  H   -0.032595
    99  H   -0.036458
   100  H   -0.044428
   101  H    0.175564
   102  N   -0.098855
   103  C    0.171284
   104  C    0.043176
   105  O   -0.278284
   106  C   -0.086815
   107  C    0.009264
   108  C    0.077732
   109  C    0.017905
   110  H    0.139490
   111  H   -0.000313
   112  H   -0.006074
   113  H    0.003364
   114  H   -0.020763
   115  H    0.002433
   116  H    0.003037
   117  H    0.008968
   118  H    0.003887
   119  H    0.004485
   120  H    0.004499
   121  N   -0.123182
   122  C    0.155873
   123  C    0.049387
   124  O   -0.270686
   125  C    0.176037
   126  O   -0.294936
   127  H    0.144324
   128  H    0.032688
   129  H   -0.009192
   130  H    0.016005
   131  H    0.165382
   132  N   -0.117286
   133  C    0.037596
   134  C    0.057780
   135  O   -0.281105
   136  C    0.081165
   137  H    0.112838
   138  H    0.009881
   139  H   -0.017945
   140  H    0.022754
   141  H    0.017367
   142  N   -0.119599
   143  C    0.114548
   144  C    0.056646
   145  O   -0.263617
   146  C    0.051818
   147  H    0.130205
   148  H   -0.002703
   149  H   -0.004090
   150  H    0.035275
   151  H    0.014418
   152  N   -0.114609
   153  C    0.083918
   154  C    0.067758
   155  O   -0.261861
   156  C    0.053748
   157  C    0.119378
   158  C    0.088859
   159  O   -0.405673
   160  O   -0.452463
   161  H    0.120757
   162  H   -0.015339
   163  H    0.026615
   164  H    0.018240
   165  H   -0.043473
   166  H   -0.023917
   167  N   -0.151919
   168  C    0.129658
   169  H    0.027671
   170  H   -0.000991
   171  H    0.032406
   172  H    0.102650
   173  Ca   1.302537
   174  O   -0.289660
   175  H    0.194516
   176  H    0.174670
 Sum of Mulliken charges =  -0.00000

 Dipole moment (field-independent basis, Debye):
    X=             24.8735    Y=              2.4740    Z=              4.1998  Tot=             25.3466
 Quadrupole moment (field-independent basis, Debye-Ang):
   XX=           -113.5828   YY=           -620.6468   ZZ=           -447.7271
   XY=           -165.8406   XZ=            176.1981   YZ=             14.5560

 ESP charges:
               1
     1  C   -0.441015
     2  C    0.740525
     3  O   -0.613272
     4  H    0.148020
     5  H    0.091377
     6  H    0.092685
     7  N   -0.689085
     8  C    0.537259
     9  C    0.506516
    10  O   -0.529538
    11  C   -0.352041
    12  C    0.819357
    13  O   -0.751994
    14  O   -0.739337
    15  H    0.312248
    16  H   -0.078750
    17  H    0.079334
    18  H    0.037729
    19  N   -0.785466
    20  C    0.181541
    21  C    0.461529
    22  O   -0.548320
    23  C   -0.271243
    24  C    0.342877
    25  C   -0.144755
    26  C    0.131155
    27  N   -0.438738
    28  H    0.386011
    29  H    0.075730
    30  H    0.049717
    31  H    0.102903
    32  H   -0.112316
    33  H   -0.037222
    34  H    0.086873
    35  H    0.033931
    36  H    0.045528
    37  H    0.059888
    38  H    0.352317
    39  H    0.334213
    40  H    0.347233
    41  N   -0.132247
    42  C   -0.421214
    43  C    0.638942
    44  O   -0.484235
    45  C   -0.124955
    46  C    0.744125
    47  O   -0.747647
    48  O   -0.759346
    49  H    0.299541
    50  H    0.159566
    51  H    0.054277
    52  H    0.117200
    53  N   -0.327113
    54  C   -0.218415
    55  C    0.695668
    56  O   -0.593731
    57  H    0.290214
    58  H    0.151343
    59  H    0.102171
    60  N   -0.727306
    61  C    0.247527
    62  C    0.603818
    63  O   -0.536562
    64  C   -0.396781
    65  C    0.869646
    66  N   -0.852503
    67  O   -0.655532
    68  H    0.337126
    69  H    0.062583
    70  H    0.111913
    71  H    0.107129
    72  H    0.386415
    73  H    0.399866
    74  N   -0.532369
    75  C    0.015284
    76  C    0.759039
    77  O   -0.600950
    78  H    0.327808
    79  H    0.074322
    80  H    0.068023
    81  N   -1.175822
    82  C    1.185903
    83  C   -0.055831
    84  O   -0.372750
    85  C   -0.309319
    86  C    0.187131
    87  C   -0.295376
    88  C   -0.256515
    89  C   -0.147507
    90  C   -0.182694
    91  C    0.276364
    92  O   -0.556077
    93  H    0.436703
    94  H   -0.133902
    95  H    0.043658
    96  H    0.082805
    97  H    0.145115
    98  H    0.154173
    99  H    0.138008
   100  H    0.119293
   101  H    0.419336
   102  N   -0.150806
   103  C   -0.703735
   104  C    0.775845
   105  O   -0.562485
   106  C    0.238124
   107  C    0.226247
   108  C   -0.402602
   109  C   -0.210726
   110  H    0.318472
   111  H    0.250983
   112  H    0.007415
   113  H   -0.011921
   114  H   -0.041695
   115  H    0.116843
   116  H    0.106922
   117  H    0.097852
   118  H    0.028987
   119  H    0.051652
   120  H    0.038659
   121  N   -0.235875
   122  C   -0.141608
   123  C    0.488364
   124  O   -0.493457
   125  C    0.194912
   126  O   -0.580130
   127  H    0.210164
   128  H    0.148409
   129  H    0.013041
   130  H    0.028393
   131  H    0.391656
   132  N   -0.495947
   133  C    0.369173
   134  C    0.539538
   135  O   -0.532573
   136  C   -0.370746
   137  H    0.263039
   138  H    0.007984
   139  H    0.076845
   140  H    0.107098
   141  H    0.082881
   142  N   -0.761195
   143  C    0.746806
   144  C    0.348188
   145  O   -0.465339
   146  C   -0.460627
   147  H    0.266548
   148  H   -0.098790
   149  H    0.067999
   150  H    0.130606
   151  H    0.136194
   152  N   -0.523327
   153  C    0.127878
   154  C    0.441571
   155  O   -0.485808
   156  C    0.251268
   157  C   -0.188574
   158  C    0.742275
   159  O   -0.699140
   160  O   -0.820550
   161  H    0.282163
   162  H    0.004163
   163  H   -0.045973
   164  H   -0.005053
   165  H    0.014184
   166  H    0.026798
   167  N   -0.353521
   168  C   -0.098037
   169  H    0.081689
   170  H    0.058746
   171  H    0.078630
   172  H    0.265379
   173  Ca   1.631005
   174  O   -0.805537
   175  H    0.408304
   176  H    0.417148
 Sum of ESP charges =  -0.00000

 Normal termination of Gaussian 16 at Tue Sep 17 00:48:35 2019.
