 Gaussian 16, Revision A.03,
 Gaussian 16:  ES64L-G16RevA.03 25-Dec-2016

 ----------------------------------------------------------------------
 #b3lyp/svp scf=(tight,noincore) Test #IOP(5/87=12) Density=Current Pop
 =(MK,readradii) iop(6/33=2) iop(6/42=6)
 ----------------------------------------------------------------------

 -----------------
 Ng-293_loop3_20.0
 -----------------
 Symbolic Z-matrix:
 Charge =  0 Multiplicity = 1

                         Standard orientation:
 ---------------------------------------------------------------------
 Center     Atomic      Atomic             Coordinates (Angstroms)
 Number     Number       Type             X           Y           Z
 ---------------------------------------------------------------------
      1          6           0       -9.414312   -2.088661    6.587582
      2          6           0       -9.655495   -2.241275    5.094150
      3          8           0      -10.767351   -1.869505    4.697965
      4          1           0      -10.364167   -2.160955    7.117223
      5          1           0       -8.747078   -2.878871    6.930973
      6          1           0       -8.961271   -1.117680    6.785736
      7          7           0       -8.742064   -2.673949    4.218401
      8          6           0       -8.929498   -2.743263    2.783039
      9          6           0       -7.799257   -2.048771    2.042540
     10          8           0       -6.765644   -1.762879    2.638870
     11          6           0       -9.025929   -4.187347    2.295266
     12          6           0       -9.214616   -4.325022    0.797253
     13          8           0      -10.042749   -3.587416    0.195728
     14          8           0       -8.615489   -5.184038    0.124841
     15          1           0       -7.796964   -2.844192    4.517737
     16          1           0       -9.843579   -2.288841    2.412423
     17          1           0       -9.756300   -4.783665    2.852010
     18          1           0       -8.097010   -4.736877    2.416615
     19          7           0       -7.983303   -1.684018    0.773532
     20          6           0       -6.946869   -1.371047   -0.190445
     21          6           0       -5.871771   -2.436912   -0.383309
     22          8           0       -5.961946   -3.531707    0.165045
     23          6           0       -6.273066   -0.031722    0.088838
     24          6           0       -7.167361    1.133153    0.471724
     25          6           0       -8.027933    1.533442   -0.728354
     26          6           0       -8.893077    2.713164   -0.290425
     27          7           0       -9.508636    3.368510   -1.452883
     28          1           0       -8.890570   -1.850340    0.377800
     29          1           0       -7.440348   -1.190589   -1.153208
     30          1           0       -5.703575    0.235715   -0.808133
     31          1           0       -5.540505   -0.036854    0.892224
     32          1           0       -6.465077    1.963172    0.573535
     33          1           0       -7.825718    1.028897    1.340860
     34          1           0       -8.771617    0.778626   -0.972048
     35          1           0       -7.493822    1.800983   -1.637500
     36          1           0       -8.277569    3.435837    0.235116
     37          1           0       -9.625000    2.430122    0.462420
     38          1           0      -10.189803    4.036390   -1.143289
     39          1           0       -8.825256    3.785420   -2.063521
     40          1           0       -9.989507    2.676553   -2.016230
     41          7           0       -4.908848   -2.116498   -1.248592
     42          6           0       -3.788335   -2.930012   -1.669833
     43          6           0       -2.587539   -2.888400   -0.740071
     44          8           0       -2.150547   -4.013270   -0.491867
     45          6           0       -3.426102   -2.682941   -3.131012
     46          6           0       -3.428534   -1.239715   -3.604398
     47          8           0       -3.433932   -1.108083   -4.852454
     48          8           0       -3.404480   -0.221758   -2.868881
     49          1           0       -5.026909   -1.177102   -1.612043
     50          1           0       -4.098243   -3.981695   -1.665316
     51          1           0       -4.185779   -3.149411   -3.752860
     52          1           0       -2.414233   -3.072002   -3.282187
     53          7           0       -2.143923   -1.741758   -0.212418
     54          6           0       -1.142931   -1.626043    0.830427
     55          6           0        0.225171   -2.169032    0.439451
     56          8           0        0.931302   -2.716053    1.290361
     57          1           0       -2.700868   -0.903586   -0.303410
     58          1           0       -1.544555   -2.058045    1.739202
     59          1           0       -1.044031   -0.538949    0.880876
     60          7           0        0.647492   -2.192018   -0.820833
     61          6           0        1.286982   -3.434452   -1.211357
     62          6           0        2.791543   -3.465807   -0.967818
     63          8           0        3.541519   -2.547194   -1.274879
     64          6           0        0.970981   -3.697260   -2.677228
     65          6           0        1.793899   -4.912895   -3.083106
     66          7           0        2.717613   -4.676207   -4.015861
     67          8           0        1.559310   -6.031439   -2.608103
     68          1           0        0.231444   -1.529138   -1.462389
     69          1           0        0.905101   -4.347530   -0.750103
     70          1           0        1.149262   -2.848014   -3.344084
     71          1           0       -0.085336   -3.978898   -2.755807
     72          1           0        2.698879   -3.827245   -4.561949
     73          1           0        3.248596   -5.449742   -4.382742
     74          7           0        3.188872   -4.590593   -0.366164
     75          6           0        4.583767   -4.813195   -0.060193
     76          6           0        5.375487   -3.733802    0.679124
     77          8           0        5.154627   -3.575734    1.872579
     78          1           0        2.594085   -5.390966   -0.558339
     79          1           0        5.139390   -5.018999   -0.978413
     80          1           0        4.656975   -5.716294    0.540684
     81          7           0        6.242469   -3.025841   -0.043672
     82          6           0        7.034064   -2.011423    0.613316
     83          6           0        6.228655   -0.906350    1.295906
     84          8           0        6.729484   -0.087507    2.065169
     85          6           0        8.108219   -2.568609    1.544571
     86          6           0        9.044401   -3.522691    0.844649
     87          6           0        8.872964   -4.896783    1.035386
     88          6           0       10.106512   -3.050202    0.062041
     89          6           0        9.841335   -5.780453    0.562854
     90          6           0       11.074000   -3.944262   -0.432656
     91          6           0       10.928821   -5.327672   -0.211526
     92          8           0       11.976724   -6.156929   -0.446542
     93          1           0        6.280148   -3.080758   -1.057113
     94          1           0        7.609308   -1.491551   -0.158583
     95          1           0        7.682755   -3.123649    2.390154
     96          1           0        8.724217   -1.709941    1.798809
     97          1           0        8.037177   -5.343270    1.571211
     98          1           0       10.298562   -1.989315   -0.018796
     99          1           0        9.789254   -6.815436    0.869606
    100          1           0       11.934916   -3.510480   -0.918409
    101          1           0       12.645247   -5.611335   -0.873278
    102          7           0        4.964516   -0.786137    0.888350
    103          6           0        4.049731    0.333008    1.018275
    104          6           0        4.523965    1.628571    0.374055
    105          8           0        3.744306    2.353564   -0.237022
    106          6           0        3.729880    0.556631    2.491736
    107          6           0        3.448040   -0.713790    3.283442
    108          6           0        2.459919    1.393481    2.542545
    109          6           0        3.549168   -0.582251    4.805865
    110          1           0        4.686362   -1.561606    0.301938
    111          1           0        3.085574    0.066224    0.581666
    112          1           0        4.615775    1.090744    2.837734
    113          1           0        4.275898   -1.384723    3.073207
    114          1           0        2.478734   -1.161513    3.049156
    115          1           0        2.314404    1.730586    3.567867
    116          1           0        2.489446    2.319684    1.971864
    117          1           0        1.583412    0.828004    2.201852
    118          1           0        3.500689   -1.559976    5.275124
    119          1           0        4.444414   -0.012353    5.026436
    120          1           0        2.686816   -0.050825    5.213705
    121          7           0        5.831434    1.881235    0.289285
    122          6           0        6.486064    2.998030   -0.355019
    123          6           0        6.054407    4.391996    0.073504
    124          8           0        6.256067    5.324183   -0.709861
    125          6           0        7.987009    2.792991   -0.151737
    126          8           0        8.393396    1.517284   -0.571524
    127          1           0        6.407475    1.125985    0.629394
    128          1           0        6.239892    2.949257   -1.414180
    129          1           0        8.192084    2.809237    0.919795
    130          1           0        8.520114    3.546030   -0.733484
    131          1           0        9.347720    1.467852   -0.667559
    132          7           0        5.472407    4.529095    1.273120
    133          6           0        4.761312    5.694198    1.747861
    134          6           0        3.757016    6.274361    0.753426
    135          8           0        3.447536    7.455038    0.816873
    136          6           0        5.737412    6.689527    2.361334
    137          1           0        5.574800    3.723694    1.872156
    138          1           0        4.116772    5.439997    2.591988
    139          1           0        5.290561    7.676192    2.444494
    140          1           0        6.149722    6.348851    3.312197
    141          1           0        6.569918    6.800496    1.676119
    142          7           0        3.048512    5.451812   -0.028390
    143          6           0        1.932556    5.793377   -0.897513
    144          6           0        0.603849    5.523476   -0.217300
    145          8           0        0.539546    4.668874    0.668601
    146          6           0        2.118199    4.922374   -2.134360
    147          1           0        3.299796    4.476947    0.021544
    148          1           0        1.929617    6.847229   -1.183849
    149          1           0        2.141978    3.868845   -1.826447
    150          1           0        1.271293    5.148799   -2.784270
    151          1           0        3.116879    5.000654   -2.571750
    152          7           0       -0.383343    6.276164   -0.693235
    153          6           0       -1.779232    6.110352   -0.334350
    154          6           0       -2.030174    6.180861    1.167535
    155          8           0       -3.111188    5.856127    1.669587
    156          6           0       -2.323749    4.840132   -0.980525
    157          6           0       -2.210039    4.757013   -2.502616
    158          6           0       -2.879718    3.556837   -3.154083
    159          8           0       -2.125214    2.617263   -3.465568
    160          8           0       -4.115073    3.483924   -3.359465
    161          1           0       -0.204639    6.808748   -1.536514
    162          1           0       -2.370908    6.945493   -0.702262
    163          1           0       -3.366458    4.772311   -0.686146
    164          1           0       -1.809043    3.986575   -0.528729
    165          1           0       -1.132231    4.748883   -2.686092
    166          1           0       -2.561786    5.695018   -2.950857
    167          7           0       -1.126754    6.857791    1.874498
    168          6           0       -1.140907    7.014003    3.313246
    169          1           0       -2.161554    7.199116    3.648348
    170          1           0       -0.764758    6.104304    3.781986
    171          1           0       -0.508930    7.856114    3.594009
    172          1           0       -0.357402    7.087355    1.267045
    173         20           0       -3.966343    1.334043   -5.042079
    174          8           0       -6.103169    0.400615   -3.932942
    175          1           0       -6.691487    1.150017   -3.908888
    176          1           0       -6.679407   -0.352105   -3.800794
 ---------------------------------------------------------------------

 SCF Done:  E(RB3LYP) =  -5333.35637159     A.U. after   36 cycles

 The electronic state is 1-A.
 Alpha  occ. eigenvalues -- -145.46306 -19.24234 -19.16349 -19.14061 -19.10661
 Alpha  occ. eigenvalues --  -19.10607 -19.10109 -19.09884 -19.09266 -19.09119
 Alpha  occ. eigenvalues --  -19.09118 -19.09023 -19.09006 -19.08943 -19.08628
 Alpha  occ. eigenvalues --  -19.08262 -19.08200 -19.07659 -19.07203 -19.07144
 Alpha  occ. eigenvalues --  -19.06779 -19.04586 -19.00016 -18.99915 -15.52297
 Alpha  occ. eigenvalues --  -14.58905 -14.37271 -14.37002 -14.36394 -14.35587
 Alpha  occ. eigenvalues --  -14.35252 -14.34938 -14.34701 -14.34093 -14.34011
 Alpha  occ. eigenvalues --  -14.33983 -14.33472 -14.32577 -14.32551 -14.31751
 Alpha  occ. eigenvalues --  -12.65886 -12.65858 -12.65801 -10.34513 -10.29802
 Alpha  occ. eigenvalues --  -10.28690 -10.28315 -10.28152 -10.28037 -10.28031
 Alpha  occ. eigenvalues --  -10.27663 -10.27517 -10.27487 -10.27443 -10.27375
 Alpha  occ. eigenvalues --  -10.27233 -10.26779 -10.26430 -10.26282 -10.25344
 Alpha  occ. eigenvalues --  -10.24929 -10.24647 -10.24407 -10.24074 -10.23774
 Alpha  occ. eigenvalues --  -10.23575 -10.23474 -10.23423 -10.23067 -10.22948
 Alpha  occ. eigenvalues --  -10.22887 -10.22591 -10.22455 -10.21833 -10.21596
 Alpha  occ. eigenvalues --  -10.21466 -10.20553 -10.20445 -10.19286 -10.19251
 Alpha  occ. eigenvalues --  -10.19196 -10.19145 -10.18973 -10.18794 -10.18650
 Alpha  occ. eigenvalues --  -10.18594 -10.18440 -10.18382 -10.17959 -10.17882
 Alpha  occ. eigenvalues --  -10.16632 -10.16465 -10.16352 -10.14744 -10.14350
 Alpha  occ. eigenvalues --  -10.14033 -10.12784  -1.89166  -1.16770  -1.16374
 Alpha  occ. eigenvalues --   -1.16079  -1.14328  -1.10396  -1.05486  -1.04057
 Alpha  occ. eigenvalues --   -1.03929  -1.03404  -1.03224  -1.03129  -1.03060
 Alpha  occ. eigenvalues --   -1.02725  -1.02296  -1.02014  -1.01911  -1.01484
 Alpha  occ. eigenvalues --   -1.01133  -1.00956  -1.00618  -1.00427  -0.99536
 Alpha  occ. eigenvalues --   -0.97740  -0.94472  -0.94207  -0.93434  -0.93392
 Alpha  occ. eigenvalues --   -0.92646  -0.92515  -0.92310  -0.91928  -0.91780
 Alpha  occ. eigenvalues --   -0.91270  -0.91166  -0.90703  -0.90418  -0.90347
 Alpha  occ. eigenvalues --   -0.90315  -0.89489  -0.88896  -0.87651  -0.84744
 Alpha  occ. eigenvalues --   -0.83594  -0.81610  -0.80050  -0.79963  -0.79506
 Alpha  occ. eigenvalues --   -0.78377  -0.78245  -0.77743  -0.76223  -0.76043
 Alpha  occ. eigenvalues --   -0.74827  -0.74418  -0.74365  -0.74346  -0.73302
 Alpha  occ. eigenvalues --   -0.73084  -0.72867  -0.72634  -0.72319  -0.71169
 Alpha  occ. eigenvalues --   -0.69596  -0.69589  -0.68818  -0.67878  -0.67250
 Alpha  occ. eigenvalues --   -0.65869  -0.65736  -0.65159  -0.64698  -0.64089
 Alpha  occ. eigenvalues --   -0.63831  -0.63570  -0.62203  -0.62037  -0.61881
 Alpha  occ. eigenvalues --   -0.61477  -0.60658  -0.60637  -0.60558  -0.60015
 Alpha  occ. eigenvalues --   -0.59776  -0.59595  -0.58814  -0.58636  -0.58520
 Alpha  occ. eigenvalues --   -0.57974  -0.57797  -0.56771  -0.56396  -0.56249
 Alpha  occ. eigenvalues --   -0.55960  -0.55696  -0.55634  -0.54998  -0.54943
 Alpha  occ. eigenvalues --   -0.54662  -0.54562  -0.54164  -0.53910  -0.53813
 Alpha  occ. eigenvalues --   -0.53370  -0.52810  -0.52394  -0.51990  -0.51875
 Alpha  occ. eigenvalues --   -0.51708  -0.51152  -0.50787  -0.50546  -0.50239
 Alpha  occ. eigenvalues --   -0.49922  -0.49917  -0.49465  -0.49211  -0.48861
 Alpha  occ. eigenvalues --   -0.48729  -0.48231  -0.47978  -0.47762  -0.47640
 Alpha  occ. eigenvalues --   -0.47339  -0.47141  -0.46758  -0.46651  -0.46632
 Alpha  occ. eigenvalues --   -0.45835  -0.45598  -0.45453  -0.45247  -0.45227
 Alpha  occ. eigenvalues --   -0.45116  -0.45006  -0.44827  -0.44776  -0.44598
 Alpha  occ. eigenvalues --   -0.44444  -0.44416  -0.44156  -0.44014  -0.43863
 Alpha  occ. eigenvalues --   -0.43631  -0.43534  -0.43334  -0.43229  -0.43065
 Alpha  occ. eigenvalues --   -0.42861  -0.42615  -0.42504  -0.42308  -0.42304
 Alpha  occ. eigenvalues --   -0.41960  -0.41871  -0.41781  -0.41670  -0.41486
 Alpha  occ. eigenvalues --   -0.41327  -0.41181  -0.41113  -0.40950  -0.40882
 Alpha  occ. eigenvalues --   -0.40763  -0.40685  -0.40509  -0.40394  -0.40344
 Alpha  occ. eigenvalues --   -0.40239  -0.40016  -0.39970  -0.39684  -0.39568
 Alpha  occ. eigenvalues --   -0.39520  -0.39478  -0.39306  -0.39215  -0.39045
 Alpha  occ. eigenvalues --   -0.38654  -0.38502  -0.38362  -0.38177  -0.37961
 Alpha  occ. eigenvalues --   -0.37961  -0.37627  -0.37570  -0.37377  -0.37216
 Alpha  occ. eigenvalues --   -0.36930  -0.36790  -0.36614  -0.36349  -0.36104
 Alpha  occ. eigenvalues --   -0.35917  -0.35797  -0.35731  -0.35712  -0.35366
 Alpha  occ. eigenvalues --   -0.35190  -0.35111  -0.35086  -0.34656  -0.34635
 Alpha  occ. eigenvalues --   -0.34580  -0.34520  -0.34363  -0.34219  -0.34078
 Alpha  occ. eigenvalues --   -0.34003  -0.33833  -0.33601  -0.33536  -0.33277
 Alpha  occ. eigenvalues --   -0.33090  -0.32737  -0.32490  -0.31762  -0.30573
 Alpha  occ. eigenvalues --   -0.29910  -0.29271  -0.28741  -0.28727  -0.28408
 Alpha  occ. eigenvalues --   -0.28380  -0.28024  -0.27926  -0.27444  -0.27343
 Alpha  occ. eigenvalues --   -0.27150  -0.26798  -0.26757  -0.26291  -0.26014
 Alpha  occ. eigenvalues --   -0.25919  -0.25891  -0.25842  -0.25776  -0.25604
 Alpha  occ. eigenvalues --   -0.25551  -0.24876  -0.24659  -0.24636  -0.24418
 Alpha  occ. eigenvalues --   -0.24310  -0.24252  -0.24055  -0.23994  -0.23720
 Alpha  occ. eigenvalues --   -0.23656  -0.23391  -0.23071  -0.22968  -0.22962
 Alpha  occ. eigenvalues --   -0.22625  -0.22164  -0.21980  -0.21847  -0.20476
 Alpha  occ. eigenvalues --   -0.17388  -0.16858  -0.13587
 Alpha virt. eigenvalues --   -0.12462  -0.11211  -0.06400  -0.04958  -0.03953
 Alpha virt. eigenvalues --   -0.01641  -0.00689  -0.00524   0.00132   0.00481
 Alpha virt. eigenvalues --    0.00761   0.00906   0.00971   0.01202   0.01429

 Mulliken charges:
               1
     1  C    0.077596
     2  C    0.002743
     3  O   -0.321475
     4  H    0.028344
     5  H    0.001379
     6  H    0.029360
     7  N   -0.098216
     8  C    0.100540
     9  C    0.056412
    10  O   -0.291072
    11  C    0.109086
    12  C    0.025416
    13  O   -0.391392
    14  O   -0.278629
    15  H    0.113966
    16  H    0.002283
    17  H    0.015033
    18  H   -0.012764
    19  N   -0.108256
    20  C    0.103185
    21  C    0.088122
    22  O   -0.203465
    23  C    0.023909
    24  C    0.059132
    25  C   -0.083012
    26  C    0.019519
    27  N    0.103036
    28  H    0.106057
    29  H   -0.032538
    30  H   -0.008791
    31  H    0.025496
    32  H    0.023262
    33  H    0.042139
    34  H    0.029217
    35  H   -0.021340
    36  H    0.067498
    37  H    0.086228
    38  H    0.183253
    39  H    0.173409
    40  H    0.170571
    41  N   -0.161531
    42  C    0.165976
    43  C    0.046177
    44  O   -0.269277
    45  C    0.086329
    46  C    0.079527
    47  O   -0.481949
    48  O   -0.393635
    49  H    0.117264
    50  H    0.032255
    51  H    0.021356
    52  H    0.032210
    53  N   -0.151770
    54  C    0.229488
    55  C    0.041021
    56  O   -0.263096
    57  H    0.125901
    58  H    0.051335
    59  H    0.020197
    60  N   -0.108852
    61  C    0.088452
    62  C    0.089347
    63  O   -0.299990
    64  C    0.095886
    65  C   -0.049043
    66  N   -0.033521
    67  O   -0.264714
    68  H    0.126118
    69  H    0.038747
    70  H   -0.011745
    71  H    0.061531
    72  H    0.127030
    73  H    0.123988
    74  N   -0.121830
    75  C    0.250370
    76  C    0.011160
    77  O   -0.243786
    78  H    0.150184
    79  H   -0.023454
    80  H    0.021256
    81  N   -0.127740
    82  C    0.083430
    83  C    0.094461
    84  O   -0.319374
    85  C    0.189356
    86  C   -0.048475
    87  C   -0.011276
    88  C   -0.008033
    89  C   -0.035977
    90  C   -0.065663
    91  C    0.178802
    92  O   -0.185311
    93  H    0.136547
    94  H   -0.000839
    95  H    0.014949
    96  H   -0.001414
    97  H   -0.014833
    98  H   -0.036311
    99  H   -0.021702
   100  H   -0.041715
   101  H    0.169158
   102  N   -0.115980
   103  C    0.190457
   104  C    0.044824
   105  O   -0.287000
   106  C   -0.137321
   107  C    0.033161
   108  C    0.075415
   109  C    0.031611
   110  H    0.143177
   111  H   -0.000161
   112  H   -0.021576
   113  H    0.016126
   114  H    0.010267
   115  H   -0.011672
   116  H    0.008200
   117  H   -0.000156
   118  H    0.011262
   119  H   -0.001969
   120  H   -0.012475
   121  N   -0.130658
   122  C    0.123589
   123  C    0.050787
   124  O   -0.278486
   125  C    0.225251
   126  O   -0.317582
   127  H    0.142454
   128  H    0.014137
   129  H   -0.005714
   130  H    0.016730
   131  H    0.171848
   132  N   -0.130034
   133  C    0.064772
   134  C    0.059040
   135  O   -0.288752
   136  C    0.073868
   137  H    0.127946
   138  H    0.034943
   139  H    0.023983
   140  H   -0.004599
   141  H    0.010977
   142  N   -0.133535
   143  C    0.088603
   144  C    0.063551
   145  O   -0.253571
   146  C    0.047208
   147  H    0.147798
   148  H   -0.003371
   149  H    0.038826
   150  H   -0.003635
   151  H    0.035745
   152  N   -0.158761
   153  C    0.097426
   154  C    0.045890
   155  O   -0.301134
   156  C    0.014602
   157  C    0.124701
   158  C    0.098203
   159  O   -0.390682
   160  O   -0.460504
   161  H    0.130262
   162  H    0.013119
   163  H   -0.001329
   164  H    0.027308
   165  H   -0.017642
   166  H   -0.034917
   167  N   -0.123724
   168  C    0.147006
   169  H    0.030041
   170  H    0.033022
   171  H    0.018709
   172  H    0.116050
   173  Ca   1.207914
   174  O   -0.271228
   175  H    0.151399
   176  H    0.197767
 Sum of Mulliken charges =  -0.00000

 Dipole moment (field-independent basis, Debye):
    X=             -6.3527    Y=             23.7597    Z=            -23.6441  Tot=             34.1163
 Quadrupole moment (field-independent basis, Debye-Ang):
   XX=           -439.4995   YY=           -642.3593   ZZ=           -480.8910
   XY=           -277.9427   XZ=            104.5246   YZ=            -12.1353

 ESP charges:
               1
     1  C   -0.415092
     2  C    0.770653
     3  O   -0.608681
     4  H    0.118914
     5  H    0.089220
     6  H    0.109693
     7  N   -0.758170
     8  C    0.513762
     9  C    0.427299
    10  O   -0.527669
    11  C   -0.282251
    12  C    0.718616
    13  O   -0.683569
    14  O   -0.586994
    15  H    0.339565
    16  H   -0.053391
    17  H    0.081466
    18  H    0.047210
    19  N   -0.533032
    20  C    0.316849
    21  C    0.365576
    22  O   -0.422312
    23  C   -0.098584
    24  C   -0.049867
    25  C   -0.181973
    26  C    0.228274
    27  N   -0.400639
    28  H    0.277897
    29  H   -0.022644
    30  H    0.043384
    31  H    0.065108
    32  H    0.053998
    33  H    0.062491
    34  H    0.045723
    35  H    0.085916
    36  H    0.028073
    37  H    0.060279
    38  H    0.327757
    39  H    0.314165
    40  H    0.297464
    41  N   -0.301989
    42  C    0.038617
    43  C    0.533820
    44  O   -0.513161
    45  C   -0.409615
    46  C    0.797377
    47  O   -0.764081
    48  O   -0.640408
    49  H    0.158502
    50  H    0.113061
    51  H    0.144895
    52  H    0.111059
    53  N   -0.279306
    54  C   -0.361357
    55  C    0.787886
    56  O   -0.603205
    57  H    0.234820
    58  H    0.180533
    59  H    0.158305
    60  N   -0.585914
    61  C    0.291944
    62  C    0.622941
    63  O   -0.612472
    64  C   -0.429889
    65  C    0.674376
    66  N   -0.754216
    67  O   -0.556875
    68  H    0.289884
    69  H    0.016836
    70  H    0.121806
    71  H    0.148039
    72  H    0.351729
    73  H    0.356420
    74  N   -0.478630
    75  C    0.006297
    76  C    0.583188
    77  O   -0.515215
    78  H    0.330050
    79  H    0.005809
    80  H    0.095011
    81  N   -0.685241
    82  C    0.188350
    83  C    0.711035
    84  O   -0.540644
    85  C   -0.496523
    86  C    0.378115
    87  C   -0.333851
    88  C   -0.246610
    89  C   -0.158044
    90  C   -0.287637
    91  C    0.285918
    92  O   -0.508769
    93  H    0.385986
    94  H    0.047449
    95  H    0.183850
    96  H    0.109471
    97  H    0.182307
    98  H    0.156554
    99  H    0.145478
   100  H    0.143007
   101  H    0.392151
   102  N   -0.857267
   103  C    0.244685
   104  C    0.465408
   105  O   -0.534982
   106  C    0.071157
   107  C    0.228252
   108  C   -0.147674
   109  C   -0.280278
   110  H    0.473546
   111  H    0.005702
   112  H   -0.007128
   113  H    0.010855
   114  H   -0.017020
   115  H    0.030824
   116  H   -0.003523
   117  H    0.020725
   118  H    0.073707
   119  H    0.044772
   120  H    0.038924
   121  N   -0.217110
   122  C    0.005319
   123  C    0.449953
   124  O   -0.513218
   125  C    0.072461
   126  O   -0.590422
   127  H    0.173985
   128  H    0.109617
   129  H    0.045824
   130  H    0.064086
   131  H    0.410793
   132  N   -0.477131
   133  C    0.348705
   134  C    0.490311
   135  O   -0.548713
   136  C   -0.289315
   137  H    0.265986
   138  H    0.012450
   139  H    0.067705
   140  H    0.065568
   141  H    0.081872
   142  N   -0.460102
   143  C    0.411259
   144  C    0.465172
   145  O   -0.457905
   146  C   -0.327531
   147  H    0.194712
   148  H   -0.038075
   149  H    0.118116
   150  H    0.025684
   151  H    0.108145
   152  N   -0.585372
   153  C   -0.291753
   154  C    0.482916
   155  O   -0.531078
   156  C    0.418894
   157  C   -0.144186
   158  C    0.605560
   159  O   -0.660776
   160  O   -0.735208
   161  H    0.370493
   162  H    0.148251
   163  H   -0.078495
   164  H   -0.008340
   165  H    0.036043
   166  H   -0.001551
   167  N   -0.204574
   168  C   -0.194332
   169  H    0.099628
   170  H    0.109350
   171  H    0.093278
   172  H    0.223178
   173  Ca   1.369131
   174  O   -0.758535
   175  H    0.325514
   176  H    0.419365
 Sum of ESP charges =   0.00000

 Normal termination of Gaussian 16 at Tue Sep 17 00:16:10 2019.
