 Gaussian 16, Revision A.03,
 Gaussian 16:  ES64L-G16RevA.03 25-Dec-2016

 ----------------------------------------------------------------------
 #b3lyp/svp scf=(tight,noincore) Test #IOP(5/87=12) Density=Current Pop
 =(MK,readradii) iop(6/33=2) iop(6/42=6)
 ----------------------------------------------------------------------

 -----------------
 Ng-293_loop3_28.0
 -----------------
 Symbolic Z-matrix:
 Charge =  0 Multiplicity = 1

                         Standard orientation:
 ---------------------------------------------------------------------
 Center     Atomic      Atomic             Coordinates (Angstroms)
 Number     Number       Type             X           Y           Z
 ---------------------------------------------------------------------
      1          6           0        9.495572   -3.398165   -5.868113
      2          6           0        9.772654   -3.002700   -4.416516
      3          8           0       10.718456   -2.299123   -4.071933
      4          1           0        8.505841   -3.849048   -5.939093
      5          1           0        9.536724   -2.511493   -6.500685
      6          1           0       10.245469   -4.116028   -6.199681
      7          7           0        8.896460   -3.499611   -3.538869
      8          6           0        8.864065   -3.271720   -2.114539
      9          6           0        7.686291   -2.459984   -1.602258
     10          8           0        6.682859   -2.244255   -2.292174
     11          6           0        8.956521   -4.649344   -1.456585
     12          6           0        9.170314   -4.769288    0.048375
     13          8           0        9.381307   -3.752622    0.750211
     14          8           0        9.196633   -5.902508    0.571080
     15          1           0        8.104452   -4.002014   -3.913055
     16          1           0        9.822326   -2.800173   -1.893677
     17          1           0        9.789546   -5.212214   -1.859259
     18          1           0        8.153584   -5.285826   -1.832594
     19          7           0        7.780973   -1.843063   -0.424317
     20          6           0        6.767647   -1.102864    0.304158
     21          6           0        5.526279   -1.913830    0.633154
     22          8           0        5.338293   -3.055892    0.239128
     23          6           0        6.359798    0.171594   -0.420008
     24          6           0        7.546438    0.952380   -0.998592
     25          6           0        8.463197    1.397766    0.132816
     26          6           0        9.326319    2.506503   -0.465368
     27          7           0       10.299030    1.968847   -1.420176
     28          1           0        8.645211   -2.086855    0.037482
     29          1           0        7.211160   -0.754114    1.232096
     30          1           0        5.818306    0.907012    0.190358
     31          1           0        5.646734   -0.036967   -1.211236
     32          1           0        7.040562    1.821820   -1.407083
     33          1           0        8.038999    0.297613   -1.706944
     34          1           0        9.218248    0.657355    0.418981
     35          1           0        7.974525    1.844980    0.998032
     36          1           0        9.862109    2.903005    0.401704
     37          1           0        8.644936    3.212059   -0.933352
     38          1           0       10.921263    1.252716   -1.081380
     39          1           0        9.801490    1.648479   -2.246746
     40          1           0       10.896139    2.733939   -1.698914
     41          7           0        4.580877   -1.216702    1.269807
     42          6           0        3.372302   -1.770375    1.842164
     43          6           0        2.540713   -2.524076    0.824720
     44          8           0        2.291358   -3.715819    1.051150
     45          6           0        2.573846   -0.660696    2.522518
     46          6           0        3.212735   -0.124542    3.800039
     47          8           0        4.339355   -0.529973    4.154936
     48          8           0        2.713419    0.871962    4.373592
     49          1           0        4.832352   -0.302212    1.619334
     50          1           0        3.733518   -2.471010    2.605731
     51          1           0        1.529870   -0.923695    2.726344
     52          1           0        2.694567    0.229149    1.903646
     53          7           0        2.005237   -1.828995   -0.186036
     54          6           0        1.420723   -2.538776   -1.307041
     55          6           0        0.275463   -3.539688   -1.242591
     56          8           0        0.221399   -4.431624   -2.075253
     57          1           0        2.201265   -0.842595   -0.294608
     58          1           0        2.219117   -2.949077   -1.916895
     59          1           0        0.972992   -1.746044   -1.907718
     60          7           0       -0.589130   -3.465887   -0.226553
     61          6           0       -1.437849   -4.517288    0.292226
     62          6           0       -2.894426   -4.124865    0.512880
     63          8           0       -3.094858   -3.022694    1.012927
     64          6           0       -0.850748   -5.062292    1.584427
     65          6           0       -1.764882   -6.043852    2.295412
     66          7           0       -1.851369   -7.279163    1.788237
     67          8           0       -2.328385   -5.866332    3.367909
     68          1           0       -0.393810   -2.724049    0.431419
     69          1           0       -1.430869   -5.284372   -0.489589
     70          1           0       -0.567781   -4.151455    2.123413
     71          1           0        0.070883   -5.616442    1.380431
     72          1           0       -1.696402   -7.446198    0.802851
     73          1           0       -2.373364   -8.006712    2.256311
     74          7           0       -3.796005   -5.078859    0.273821
     75          6           0       -5.219765   -5.027029    0.498816
     76          6           0       -5.936193   -4.038094   -0.414441
     77          8           0       -5.833751   -4.164785   -1.638392
     78          1           0       -3.488709   -5.871985   -0.283422
     79          1           0       -5.472010   -4.829654    1.536320
     80          1           0       -5.592258   -6.017035    0.230231
     81          7           0       -6.576172   -3.038161    0.201562
     82          6           0       -7.091312   -1.853756   -0.442112
     83          6           0       -6.149553   -0.901421   -1.144001
     84          8           0       -6.410833   -0.263668   -2.160270
     85          6           0       -8.360793   -2.244941   -1.196626
     86          6           0       -9.485742   -2.944928   -0.457837
     87          6           0       -9.485889   -4.328950   -0.638622
     88          6           0      -10.415581   -2.307438    0.357704
     89          6           0      -10.496970   -5.135524   -0.093412
     90          6           0      -11.454287   -3.084788    0.893818
     91          6           0      -11.490821   -4.474121    0.663558
     92          8           0      -12.450161   -5.233383    1.258611
     93          1           0       -6.802263   -3.130807    1.184262
     94          1           0       -7.391058   -1.213443    0.392784
     95          1           0       -7.961260   -2.888824   -1.983256
     96          1           0       -8.754140   -1.349256   -1.686654
     97          1           0       -8.710187   -4.802552   -1.229034
     98          1           0      -10.263054   -1.245184    0.471064
     99          1           0      -10.530068   -6.207821   -0.238958
    100          1           0      -12.259987   -2.652334    1.454114
    101          1           0      -12.814032   -4.831151    2.051017
    102          7           0       -4.981094   -0.753178   -0.511445
    103          6           0       -4.032631    0.339382   -0.651202
    104          6           0       -4.537991    1.720477   -0.241825
    105          8           0       -3.884012    2.297658    0.615947
    106          6           0       -3.279509    0.266181   -1.975419
    107          6           0       -2.592722   -1.087910   -2.167414
    108          6           0       -2.252020    1.377128   -2.076231
    109          6           0       -2.214750   -1.332290   -3.627865
    110          1           0       -4.949578   -1.191665    0.391680
    111          1           0       -3.303900    0.108959    0.133180
    112          1           0       -3.977446    0.361916   -2.802352
    113          1           0       -3.176948   -1.939262   -1.820170
    114          1           0       -1.713215   -1.143481   -1.543012
    115          1           0       -1.760459    1.674996   -1.149871
    116          1           0       -1.480273    1.096644   -2.803717
    117          1           0       -2.787486    2.219553   -2.514633
    118          1           0       -1.962144   -2.386324   -3.647952
    119          1           0       -3.093954   -1.248000   -4.281850
    120          1           0       -1.474419   -0.661057   -4.060479
    121          7           0       -5.640925    2.129148   -0.867145
    122          6           0       -6.358112    3.355482   -0.586525
    123          6           0       -5.700260    4.638232   -1.068588
    124          8           0       -5.779799    5.642104   -0.372016
    125          6           0       -7.854209    3.161990   -0.864108
    126          8           0       -8.373598    2.097575   -0.101050
    127          1           0       -6.038719    1.485178   -1.530215
    128          1           0       -6.313503    3.515378    0.495392
    129          1           0       -8.014228    2.905924   -1.915500
    130          1           0       -8.521448    4.014486   -0.759983
    131          1           0       -9.326103    2.203112   -0.123311
    132          7           0       -4.945910    4.462490   -2.154301
    133          6           0       -4.143359    5.474944   -2.822918
    134          6           0       -3.159209    6.183307   -1.908768
    135          8           0       -3.078549    7.393570   -2.102049
    136          6           0       -5.038479    6.201351   -3.817097
    137          1           0       -4.801251    3.507401   -2.441142
    138          1           0       -3.449019    4.883561   -3.423717
    139          1           0       -5.645878    6.846406   -3.186962
    140          1           0       -4.413767    6.878055   -4.397706
    141          1           0       -5.509754    5.431433   -4.430796
    142          7           0       -2.581840    5.487467   -0.928743
    143          6           0       -1.748568    6.035562    0.115599
    144          6           0       -0.259895    5.769396   -0.093705
    145          8           0        0.111834    4.878309   -0.853561
    146          6           0       -2.220281    5.534161    1.476438
    147          1           0       -2.837289    4.505226   -0.989143
    148          1           0       -1.815361    7.126013    0.183091
    149          1           0       -3.179416    6.026012    1.660132
    150          1           0       -2.273663    4.439918    1.420932
    151          1           0       -1.436447    5.798596    2.177280
    152          7           0        0.560581    6.679058    0.436140
    153          6           0        2.000854    6.552255    0.469809
    154          6           0        2.617903    6.462728   -0.922361
    155          8           0        3.756224    6.028849   -1.068217
    156          6           0        2.495085    5.449119    1.405130
    157          6           0        1.755861    5.507633    2.738893
    158          6           0        2.253143    4.474271    3.735224
    159          8           0        1.526308    3.994032    4.630590
    160          8           0        3.460899    4.156627    3.729967
    161          1           0        0.145614    7.483922    0.885359
    162          1           0        2.409092    7.519152    0.797455
    163          1           0        3.568660    5.594187    1.469103
    164          1           0        2.184394    4.509620    0.946205
    165          1           0        0.719669    5.307814    2.473413
    166          1           0        1.961530    6.442037    3.269542
    167          7           0        1.936429    6.802398   -2.015987
    168          6           0        2.369249    6.412960   -3.339507
    169          1           0        3.207712    5.720520   -3.258091
    170          1           0        1.546793    5.926332   -3.862977
    171          1           0        2.681960    7.297775   -3.894695
    172          1           0        1.031357    7.236847   -1.884084
    173         20           0        3.436723    2.674245    5.988741
    174          8           0        2.482153    0.469852    7.192213
    175          1           0        1.593060    0.349090    7.525576
    176          1           0        2.891032   -0.399691    7.312274
 ---------------------------------------------------------------------

 SCF Done:  E(RB3LYP) =  -5333.33230766     A.U. after   41 cycles

 The electronic state is 1-A.
 Alpha  occ. eigenvalues -- -145.46542 -19.19797 -19.16153 -19.14254 -19.11256
 Alpha  occ. eigenvalues --  -19.10948 -19.10789 -19.10340 -19.09831 -19.09800
 Alpha  occ. eigenvalues --  -19.08256 -19.08088 -19.07811 -19.07750 -19.07076
 Alpha  occ. eigenvalues --  -19.06962 -19.06771 -19.06626 -19.06322 -19.05689
 Alpha  occ. eigenvalues --  -19.04862 -19.03548 -18.98771 -18.97677 -15.52485
 Alpha  occ. eigenvalues --  -14.56785 -14.37618 -14.37453 -14.36467 -14.35852
 Alpha  occ. eigenvalues --  -14.35730 -14.35420 -14.34859 -14.34559 -14.34313
 Alpha  occ. eigenvalues --  -14.34018 -14.33979 -14.32637 -14.32527 -14.31249
 Alpha  occ. eigenvalues --  -12.66087 -12.66032 -12.66008 -10.33039 -10.29637
 Alpha  occ. eigenvalues --  -10.29625 -10.29045 -10.28436 -10.28427 -10.28159
 Alpha  occ. eigenvalues --  -10.27635 -10.27354 -10.27098 -10.26912 -10.26187
 Alpha  occ. eigenvalues --  -10.25815 -10.25815 -10.25798 -10.25441 -10.25134
 Alpha  occ. eigenvalues --  -10.24870 -10.24795 -10.24636 -10.24565 -10.23866
 Alpha  occ. eigenvalues --  -10.23586 -10.23454 -10.23223 -10.23142 -10.23058
 Alpha  occ. eigenvalues --  -10.22584 -10.22331 -10.22254 -10.21418 -10.21111
 Alpha  occ. eigenvalues --  -10.20006 -10.19956 -10.19679 -10.19624 -10.19622
 Alpha  occ. eigenvalues --  -10.19190 -10.19145 -10.19092 -10.18886 -10.18362
 Alpha  occ. eigenvalues --  -10.18106 -10.17994 -10.17944 -10.17889 -10.17862
 Alpha  occ. eigenvalues --  -10.17781 -10.17504 -10.17306 -10.17297 -10.16249
 Alpha  occ. eigenvalues --  -10.16006 -10.12755  -1.89179  -1.16664  -1.16167
 Alpha  occ. eigenvalues --   -1.16071  -1.12190  -1.05481  -1.05024  -1.04559
 Alpha  occ. eigenvalues --   -1.03900  -1.03422  -1.03209  -1.02981  -1.02591
 Alpha  occ. eigenvalues --   -1.02446  -1.01921  -1.01415  -1.01389  -1.01164
 Alpha  occ. eigenvalues --   -1.00978  -1.00319  -0.99923  -0.99285  -0.99099
 Alpha  occ. eigenvalues --   -0.98310  -0.94580  -0.93994  -0.93941  -0.93323
 Alpha  occ. eigenvalues --   -0.92816  -0.92787  -0.92240  -0.91375  -0.91218
 Alpha  occ. eigenvalues --   -0.90748  -0.90440  -0.89891  -0.89668  -0.89520
 Alpha  occ. eigenvalues --   -0.88895  -0.88758  -0.88276  -0.87516  -0.85249
 Alpha  occ. eigenvalues --   -0.82468  -0.81346  -0.80414  -0.79861  -0.79589
 Alpha  occ. eigenvalues --   -0.78528  -0.78426  -0.76776  -0.76644  -0.75491
 Alpha  occ. eigenvalues --   -0.75190  -0.75069  -0.74817  -0.73687  -0.73497
 Alpha  occ. eigenvalues --   -0.72791  -0.72202  -0.72008  -0.71527  -0.70561
 Alpha  occ. eigenvalues --   -0.69844  -0.69426  -0.68967  -0.67621  -0.67015
 Alpha  occ. eigenvalues --   -0.66871  -0.65833  -0.65253  -0.64278  -0.63990
 Alpha  occ. eigenvalues --   -0.62990  -0.62794  -0.62551  -0.62510  -0.61725
 Alpha  occ. eigenvalues --   -0.61133  -0.60726  -0.60359  -0.60270  -0.59468
 Alpha  occ. eigenvalues --   -0.59074  -0.58988  -0.58887  -0.58820  -0.58507
 Alpha  occ. eigenvalues --   -0.58128  -0.57622  -0.57116  -0.56991  -0.56703
 Alpha  occ. eigenvalues --   -0.56230  -0.56102  -0.56019  -0.55246  -0.54997
 Alpha  occ. eigenvalues --   -0.54887  -0.54815  -0.54529  -0.53843  -0.53049
 Alpha  occ. eigenvalues --   -0.52741  -0.52639  -0.52465  -0.52367  -0.51900
 Alpha  occ. eigenvalues --   -0.51440  -0.51081  -0.50586  -0.49805  -0.49642
 Alpha  occ. eigenvalues --   -0.49042  -0.48799  -0.48527  -0.48471  -0.48335
 Alpha  occ. eigenvalues --   -0.48103  -0.47961  -0.47377  -0.47325  -0.47286
 Alpha  occ. eigenvalues --   -0.46722  -0.46601  -0.46414  -0.46392  -0.46031
 Alpha  occ. eigenvalues --   -0.45922  -0.45772  -0.45633  -0.45511  -0.45430
 Alpha  occ. eigenvalues --   -0.45295  -0.44982  -0.44827  -0.44709  -0.44631
 Alpha  occ. eigenvalues --   -0.44450  -0.43971  -0.43806  -0.43743  -0.43492
 Alpha  occ. eigenvalues --   -0.43449  -0.43378  -0.43338  -0.43162  -0.42980
 Alpha  occ. eigenvalues --   -0.42678  -0.42547  -0.42301  -0.42203  -0.42190
 Alpha  occ. eigenvalues --   -0.41996  -0.41705  -0.41682  -0.41531  -0.41411
 Alpha  occ. eigenvalues --   -0.41272  -0.41187  -0.41099  -0.41032  -0.40570
 Alpha  occ. eigenvalues --   -0.40526  -0.40179  -0.40024  -0.40000  -0.39849
 Alpha  occ. eigenvalues --   -0.39614  -0.39597  -0.39312  -0.38987  -0.38931
 Alpha  occ. eigenvalues --   -0.38692  -0.38461  -0.38414  -0.38279  -0.38204
 Alpha  occ. eigenvalues --   -0.38175  -0.38131  -0.38079  -0.37775  -0.37633
 Alpha  occ. eigenvalues --   -0.37373  -0.37308  -0.37169  -0.37106  -0.37052
 Alpha  occ. eigenvalues --   -0.36975  -0.36853  -0.36806  -0.36714  -0.36619
 Alpha  occ. eigenvalues --   -0.36561  -0.36203  -0.35766  -0.35653  -0.35567
 Alpha  occ. eigenvalues --   -0.35542  -0.35387  -0.35247  -0.34999  -0.34972
 Alpha  occ. eigenvalues --   -0.34582  -0.34489  -0.34397  -0.34297  -0.34194
 Alpha  occ. eigenvalues --   -0.34083  -0.33847  -0.33424  -0.33381  -0.33333
 Alpha  occ. eigenvalues --   -0.33028  -0.32683  -0.32215  -0.31727  -0.31611
 Alpha  occ. eigenvalues --   -0.31463  -0.29445  -0.29396  -0.28600  -0.28503
 Alpha  occ. eigenvalues --   -0.28176  -0.28050  -0.27733  -0.27248  -0.27039
 Alpha  occ. eigenvalues --   -0.26817  -0.26453  -0.26341  -0.26194  -0.26108
 Alpha  occ. eigenvalues --   -0.26042  -0.25637  -0.25417  -0.24954  -0.24620
 Alpha  occ. eigenvalues --   -0.24583  -0.24197  -0.24100  -0.23965  -0.23910
 Alpha  occ. eigenvalues --   -0.23821  -0.23702  -0.23639  -0.23530  -0.23487
 Alpha  occ. eigenvalues --   -0.23349  -0.23201  -0.23134  -0.22661  -0.21909
 Alpha  occ. eigenvalues --   -0.21869  -0.21752  -0.21464  -0.20891  -0.19105
 Alpha  occ. eigenvalues --   -0.16069  -0.15265  -0.12812
 Alpha virt. eigenvalues --   -0.11889  -0.08278  -0.02684  -0.02247  -0.02157
 Alpha virt. eigenvalues --   -0.01189  -0.00869  -0.00481  -0.00218  -0.00172
 Alpha virt. eigenvalues --    0.00570   0.00775   0.00857   0.01109   0.01742

 Mulliken charges:
               1
     1  C    0.057171
     2  C    0.010083
     3  O   -0.320947
     4  H    0.002128
     5  H    0.022271
     6  H    0.041424
     7  N   -0.123653
     8  C    0.126913
     9  C    0.097353
    10  O   -0.306279
    11  C    0.015389
    12  C    0.103523
    13  O   -0.388256
    14  O   -0.332259
    15  H    0.118169
    16  H   -0.019948
    17  H   -0.001869
    18  H   -0.010695
    19  N   -0.125755
    20  C    0.119482
    21  C    0.119468
    22  O   -0.219008
    23  C    0.014137
    24  C    0.001064
    25  C   -0.033581
    26  C    0.019338
    27  N    0.080879
    28  H    0.096506
    29  H    0.009273
    30  H   -0.009194
    31  H    0.017500
    32  H    0.011760
    33  H    0.025084
    34  H    0.027834
    35  H    0.052216
    36  H    0.059930
    37  H    0.077075
    38  H    0.197614
    39  H    0.199802
    40  H    0.187208
    41  N   -0.147442
    42  C    0.136623
    43  C    0.083365
    44  O   -0.263170
    45  C    0.047619
    46  C    0.079046
    47  O   -0.373074
    48  O   -0.467660
    49  H    0.103701
    50  H    0.014921
    51  H    0.028258
    52  H   -0.001274
    53  N   -0.153304
    54  C    0.192861
    55  C    0.041253
    56  O   -0.268079
    57  H    0.123902
    58  H    0.049977
    59  H    0.007419
    60  N   -0.107884
    61  C    0.046974
    62  C    0.124776
    63  O   -0.284222
    64  C    0.131681
    65  C   -0.021621
    66  N   -0.062681
    67  O   -0.252680
    68  H    0.120615
    69  H   -0.010098
    70  H    0.012935
    71  H    0.062786
    72  H    0.101593
    73  H    0.121720
    74  N   -0.135922
    75  C    0.231409
    76  C    0.046712
    77  O   -0.274028
    78  H    0.128461
    79  H    0.010670
    80  H    0.018426
    81  N   -0.128480
    82  C    0.056690
    83  C    0.117907
    84  O   -0.292874
    85  C    0.140711
    86  C   -0.036576
    87  C   -0.034975
    88  C    0.008797
    89  C   -0.011545
    90  C   -0.024040
    91  C    0.166378
    92  O   -0.213427
    93  H    0.136236
    94  H    0.014039
    95  H    0.024738
    96  H   -0.000731
    97  H   -0.007622
    98  H   -0.037400
    99  H   -0.023611
   100  H   -0.044144
   101  H    0.175984
   102  N   -0.102587
   103  C    0.136414
   104  C    0.047788
   105  O   -0.251701
   106  C   -0.110651
   107  C    0.013560
   108  C    0.096649
   109  C    0.026278
   110  H    0.119775
   111  H    0.002034
   112  H   -0.007949
   113  H    0.011763
   114  H   -0.034073
   115  H    0.035058
   116  H    0.000478
   117  H   -0.037195
   118  H    0.022578
   119  H    0.001119
   120  H    0.007526
   121  N   -0.147093
   122  C    0.114645
   123  C    0.065543
   124  O   -0.255963
   125  C    0.218164
   126  O   -0.305291
   127  H    0.145180
   128  H    0.025411
   129  H   -0.018497
   130  H    0.004466
   131  H    0.164627
   132  N   -0.169142
   133  C    0.026737
   134  C    0.049995
   135  O   -0.276869
   136  C    0.113540
   137  H    0.127685
   138  H    0.009000
   139  H    0.033602
   140  H    0.014090
   141  H    0.008177
   142  N   -0.097789
   143  C    0.077231
   144  C    0.047769
   145  O   -0.264575
   146  C    0.057021
   147  H    0.133158
   148  H   -0.000852
   149  H    0.047754
   150  H    0.044096
   151  H   -0.001336
   152  N   -0.153493
   153  C    0.104249
   154  C    0.039104
   155  O   -0.301394
   156  C    0.053257
   157  C    0.082728
   158  C    0.102008
   159  O   -0.419439
   160  O   -0.440048
   161  H    0.125132
   162  H    0.004323
   163  H    0.015363
   164  H    0.015763
   165  H    0.018356
   166  H   -0.003066
   167  N   -0.125432
   168  C    0.134995
   169  H    0.037107
   170  H    0.020957
   171  H    0.011708
   172  H    0.113527
   173  Ca   1.267012
   174  O   -0.306161
   175  H    0.184502
   176  H    0.201821
 Sum of Mulliken charges =  -0.00000

 Dipole moment (field-independent basis, Debye):
    X=              2.1868    Y=             23.2964    Z=              8.2082  Tot=             24.7968
 Quadrupole moment (field-independent basis, Debye-Ang):
   XX=           -426.9690   YY=           -627.5131   ZZ=           -448.8246
   XY=            267.1896   XZ=            -27.8837   YZ=             34.1802

 ESP charges:
               1
     1  C   -0.481807
     2  C    0.761503
     3  O   -0.622975
     4  H    0.115155
     5  H    0.119695
     6  H    0.142152
     7  N   -0.717807
     8  C    0.566254
     9  C    0.335946
    10  O   -0.522180
    11  C   -0.256738
    12  C    0.646297
    13  O   -0.656793
    14  O   -0.609220
    15  H    0.323378
    16  H   -0.058013
    17  H    0.069098
    18  H    0.054165
    19  N   -0.546307
    20  C    0.466739
    21  C    0.509637
    22  O   -0.434641
    23  C   -0.265325
    24  C   -0.003030
    25  C    0.015278
    26  C   -0.040184
    27  N   -0.364998
    28  H    0.233997
    29  H   -0.040583
    30  H    0.055284
    31  H    0.091356
    32  H    0.057338
    33  H    0.009405
    34  H    0.037754
    35  H    0.061731
    36  H    0.077206
    37  H    0.089352
    38  H    0.364965
    39  H    0.316140
    40  H    0.326259
    41  N   -0.607854
    42  C    0.115261
    43  C    0.681779
    44  O   -0.585781
    45  C   -0.575432
    46  C    0.871790
    47  O   -0.692142
    48  O   -0.727988
    49  H    0.290168
    50  H    0.099362
    51  H    0.152557
    52  H    0.141146
    53  N   -0.450744
    54  C    0.041710
    55  C    0.564670
    56  O   -0.553268
    57  H    0.284567
    58  H    0.074184
    59  H    0.032067
    60  N   -0.453307
    61  C    0.394055
    62  C    0.287261
    63  O   -0.446850
    64  C   -0.506206
    65  C    0.801509
    66  N   -0.843995
    67  O   -0.575142
    68  H    0.223823
    69  H   -0.020331
    70  H    0.146164
    71  H    0.188521
    72  H    0.338756
    73  H    0.371738
    74  N   -0.206415
    75  C   -0.390435
    76  C    0.729195
    77  O   -0.521167
    78  H    0.256260
    79  H    0.158723
    80  H    0.148460
    81  N   -0.720596
    82  C    0.213505
    83  C    0.530056
    84  O   -0.527766
    85  C   -0.299858
    86  C    0.172488
    87  C   -0.173635
    88  C   -0.144551
    89  C   -0.295231
    90  C   -0.375142
    91  C    0.435361
    92  O   -0.555346
    93  H    0.362206
    94  H    0.046978
    95  H    0.116819
    96  H    0.074301
    97  H    0.150074
    98  H    0.140288
    99  H    0.172662
   100  H    0.167157
   101  H    0.395050
   102  N   -0.394817
   103  C   -0.543674
   104  C    0.872565
   105  O   -0.592415
   106  C    0.506516
   107  C    0.172186
   108  C   -0.470596
   109  C   -0.342527
   110  H    0.324160
   111  H    0.149587
   112  H   -0.065142
   113  H    0.013455
   114  H   -0.060996
   115  H    0.114118
   116  H    0.121287
   117  H    0.060986
   118  H    0.074694
   119  H    0.078115
   120  H    0.065921
   121  N   -0.405055
   122  C   -0.273136
   123  C    0.474091
   124  O   -0.484237
   125  C    0.336770
   126  O   -0.626471
   127  H    0.314349
   128  H    0.151605
   129  H   -0.014249
   130  H    0.009855
   131  H    0.399299
   132  N   -0.415036
   133  C    0.425832
   134  C    0.459858
   135  O   -0.540566
   136  C   -0.445121
   137  H    0.235589
   138  H   -0.020169
   139  H    0.131514
   140  H    0.106881
   141  H    0.111826
   142  N   -0.625331
   143  C    0.639548
   144  C    0.479617
   145  O   -0.494213
   146  C   -0.262993
   147  H    0.215701
   148  H   -0.061683
   149  H    0.084964
   150  H    0.103961
   151  H   -0.012020
   152  N   -0.782844
   153  C    0.304767
   154  C    0.272499
   155  O   -0.518070
   156  C    0.124831
   157  C   -0.186074
   158  C    0.725248
   159  O   -0.717731
   160  O   -0.757134
   161  H    0.352855
   162  H    0.027393
   163  H   -0.019115
   164  H    0.030157
   165  H    0.080860
   166  H    0.029623
   167  N   -0.184296
   168  C   -0.018450
   169  H    0.084242
   170  H    0.046556
   171  H    0.017489
   172  H    0.208939
   173  Ca   1.417445
   174  O   -0.817151
   175  H    0.434420
   176  H    0.412166
 Sum of ESP charges =  -0.00000

 Normal termination of Gaussian 16 at Tue Sep 17 00:44:44 2019.
