 Gaussian 16, Revision A.03,
 Gaussian 16:  ES64L-G16RevA.03 25-Dec-2016

 ----------------------------------------------------------------------
 #b3lyp/svp scf=(tight,noincore) Test #IOP(5/87=12) Density=Current Pop
 =(MK,readradii) iop(6/33=2) iop(6/42=6)
 ----------------------------------------------------------------------

 -----------------
 Ng-295_loop3_25.0
 -----------------
 Symbolic Z-matrix:
 Charge =  0 Multiplicity = 1

                         Standard orientation:
 ---------------------------------------------------------------------
 Center     Atomic      Atomic             Coordinates (Angstroms)
 Number     Number       Type             X           Y           Z
 ---------------------------------------------------------------------
      1          6           0       -8.135063   -6.371089   -3.419726
      2          6           0       -7.210648   -5.620036   -2.475334
      3          8           0       -6.490141   -6.249790   -1.699139
      4          1           0       -8.008524   -5.987309   -4.432403
      5          1           0       -7.889976   -7.433498   -3.400831
      6          1           0       -9.168615   -6.230482   -3.105295
      7          7           0       -7.341237   -4.290568   -2.496813
      8          6           0       -6.645648   -3.319606   -1.680792
      9          6           0       -7.502308   -3.146929   -0.426632
     10          8           0       -8.603594   -2.601438   -0.402011
     11          6           0       -6.365960   -2.044257   -2.471780
     12          6           0       -5.404217   -1.090833   -1.798778
     13          8           0       -4.327310   -0.762366   -2.354908
     14          8           0       -5.662016   -0.702046   -0.632723
     15          1           0       -7.991117   -3.826103   -3.108719
     16          1           0       -5.722653   -3.804367   -1.355236
     17          1           0       -7.294766   -1.516742   -2.676347
     18          1           0       -5.945073   -2.356110   -3.429069
     19          7           0       -6.915157   -3.659681    0.650605
     20          6           0       -7.572278   -3.708292    1.939647
     21          6           0       -8.067281   -2.363774    2.481352
     22          8           0       -8.912395   -2.348038    3.379091
     23          6           0       -6.568028   -4.379188    2.867159
     24          6           0       -5.379254   -3.464212    3.178666
     25          6           0       -4.384471   -3.994459    4.209755
     26          6           0       -2.974351   -3.443451    4.042270
     27          7           0       -2.797357   -2.029772    4.406669
     28          1           0       -6.012768   -4.128073    0.601584
     29          1           0       -8.468035   -4.273027    1.715160
     30          1           0       -6.122391   -5.248587    2.376698
     31          1           0       -7.014713   -4.818916    3.762319
     32          1           0       -5.839534   -2.556444    3.549070
     33          1           0       -4.815007   -3.338398    2.251306
     34          1           0       -4.239447   -5.066305    4.120228
     35          1           0       -4.746574   -3.780553    5.218530
     36          1           0       -2.748912   -3.558222    2.993554
     37          1           0       -2.386495   -4.108767    4.680846
     38          1           0       -1.813471   -1.805176    4.411750
     39          1           0       -3.223642   -1.448640    3.697327
     40          1           0       -3.199726   -1.719695    5.281169
     41          7           0       -7.498179   -1.235376    2.055392
     42          6           0       -7.620864    0.037592    2.725394
     43          6           0       -8.030051    1.115667    1.733821
     44          8           0       -8.293002    2.224922    2.202022
     45          6           0       -6.308358    0.403717    3.416972
     46          6           0       -5.160055    0.249722    2.430571
     47          8           0       -4.390618   -0.734402    2.507819
     48          8           0       -4.901846    1.119812    1.570995
     49          1           0       -6.763321   -1.407236    1.382751
     50          1           0       -8.388390   -0.036609    3.497468
     51          1           0       -6.203723   -0.398123    4.153318
     52          1           0       -6.366168    1.427750    3.787938
     53          7           0       -8.142417    0.775458    0.447690
     54          6           0       -8.458523    1.519396   -0.747815
     55          6           0       -7.477483    2.584353   -1.203480
     56          8           0       -7.856603    3.387389   -2.059225
     57          1           0       -8.160043   -0.220670    0.283922
     58          1           0       -9.429387    2.012933   -0.634929
     59          1           0       -8.495240    0.817082   -1.581665
     60          7           0       -6.234260    2.623731   -0.737814
     61          6           0       -5.335768    3.654601   -1.218459
     62          6           0       -4.062221    3.072969   -1.827050
     63          8           0       -3.521181    2.069985   -1.365642
     64          6           0       -5.110688    4.608982   -0.057986
     65          6           0       -3.959386    5.609199   -0.155294
     66          7           0       -2.927337    5.484987    0.686992
     67          8           0       -3.961373    6.517975   -0.972437
     68          1           0       -5.934238    1.945647   -0.047387
     69          1           0       -5.652656    4.401557   -1.943124
     70          1           0       -4.928090    4.034466    0.843118
     71          1           0       -6.024628    5.194408    0.065662
     72          1           0       -3.041978    4.912803    1.514315
     73          1           0       -2.194661    6.168923    0.691261
     74          7           0       -3.413183    3.751713   -2.776289
     75          6           0       -2.531055    3.104966   -3.731940
     76          6           0       -1.065177    3.042200   -3.330240
     77          8           0       -0.347137    2.265161   -3.950182
     78          1           0       -3.733646    4.668845   -3.048818
     79          1           0       -2.626807    3.549601   -4.726792
     80          1           0       -2.816131    2.061536   -3.824063
     81          7           0       -0.743490    3.853857   -2.326283
     82          6           0        0.576255    3.952759   -1.714324
     83          6           0        1.073858    2.622445   -1.183140
     84          8           0        0.330568    1.922841   -0.486451
     85          6           0        0.549394    5.046963   -0.656687
     86          6           0        1.899653    5.375842   -0.079072
     87          6           0        2.387382    4.662683    1.023709
     88          6           0        2.689682    6.341681   -0.713036
     89          6           0        3.675548    4.915412    1.502100
     90          6           0        3.939377    6.665352   -0.172297
     91          6           0        4.459835    5.916475    0.895086
     92          8           0        5.681393    6.239704    1.393304
     93          1           0       -1.562755    4.298641   -1.939278
     94          1           0        1.279765    4.305253   -2.470447
     95          1           0        0.018441    4.630754    0.204625
     96          1           0        0.134248    5.908603   -1.181121
     97          1           0        1.801930    3.905357    1.517776
     98          1           0        2.356771    6.755540   -1.658811
     99          1           0        4.088624    4.266199    2.267926
    100          1           0        4.555476    7.363347   -0.730711
    101          1           0        6.110646    6.846751    0.787800
    102          7           0        2.294945    2.241978   -1.568615
    103          6           0        3.077805    1.108907   -1.108308
    104          6           0        3.544828    1.291529    0.325756
    105          8           0        2.752124    1.623920    1.206686
    106          6           0        2.447672   -0.245949   -1.408634
    107          6           0        3.255647   -1.503832   -1.121218
    108          6           0        1.960194   -0.347449   -2.841765
    109          6           0        2.459351   -2.816458   -1.126237
    110          1           0        2.721188    2.959812   -2.119188
    111          1           0        4.012355    0.936741   -1.663803
    112          1           0        1.535867   -0.310110   -0.813995
    113          1           0        3.713615   -1.421875   -0.136359
    114          1           0        4.076502   -1.521625   -1.835907
    115          1           0        1.207903    0.420513   -3.040995
    116          1           0        2.813284   -0.231928   -3.508618
    117          1           0        1.498543   -1.310488   -3.076571
    118          1           0        3.117181   -3.621747   -0.824130
    119          1           0        1.658880   -2.833199   -0.391754
    120          1           0        1.932113   -2.989121   -2.066666
    121          7           0        4.830388    1.061366    0.610992
    122          6           0        5.255047    0.885219    1.978046
    123          6           0        6.748493    0.998609    2.244435
    124          8           0        7.008141    1.139029    3.444587
    125          6           0        4.755849   -0.492794    2.381509
    126          8           0        5.462611   -1.457166    1.618112
    127          1           0        5.511054    0.912235   -0.117743
    128          1           0        4.706763    1.647682    2.549303
    129          1           0        3.681022   -0.603209    2.244927
    130          1           0        4.968327   -0.614183    3.446271
    131          1           0        5.080071   -2.309116    1.818968
    132          7           0        7.595907    1.101918    1.228700
    133          6           0        9.017506    1.387192    1.373870
    134          6           0        9.778495    0.600467    2.430638
    135          8           0       10.384561    1.186890    3.314601
    136          6           0        9.352986    2.873211    1.388056
    137          1           0        7.224296    1.216190    0.295186
    138          1           0        9.496460    0.972031    0.489763
    139          1           0        9.001299    3.322357    2.321642
    140          1           0       10.439511    2.969551    1.397103
    141          1           0        8.846515    3.296579    0.526461
    142          7           0        9.772272   -0.732828    2.465082
    143          6           0        9.111496   -1.676837    1.569302
    144          6           0       10.110837   -2.404564    0.685089
    145          8           0       11.250906   -2.578187    1.117754
    146          6           0        8.330523   -2.502954    2.579159
    147          1           0       10.493575   -1.129559    3.040779
    148          1           0        8.432043   -1.184480    0.884957
    149          1           0        8.031592   -3.432069    2.104622
    150          1           0        8.921269   -2.753707    3.463151
    151          1           0        7.453407   -1.976603    2.965969
    152          7           0        9.748389   -2.872902   -0.516531
    153          6           0        8.453697   -2.932009   -1.145481
    154          6           0        8.462663   -2.514749   -2.609145
    155          8           0        7.792349   -1.536988   -2.961227
    156          6           0        7.878550   -4.349972   -1.077034
    157          6           0        6.404625   -4.528104   -1.395647
    158          6           0        5.849075   -5.939377   -1.264981
    159          8           0        6.280926   -6.780107   -2.085272
    160          8           0        5.084487   -6.194948   -0.307176
    161          1           0       10.497235   -3.370271   -0.983385
    162          1           0        7.759050   -2.261234   -0.633985
    163          1           0        8.022970   -4.725739   -0.072772
    164          1           0        8.524674   -4.947597   -1.724157
    165          1           0        6.203782   -4.256182   -2.432045
    166          1           0        5.818079   -3.873518   -0.750914
    167          7           0        9.359225   -3.021046   -3.455868
    168          6           0        9.415704   -2.771047   -4.876330
    169          1           0        9.260741   -1.708871   -5.064219
    170          1           0       10.391431   -3.069299   -5.259744
    171          1           0        8.636756   -3.345299   -5.378150
    172          1           0       10.048001   -3.639840   -3.042127
    173         20           0       -3.258498   -0.205859    0.021074
    174          8           0       -1.159259    0.038525   -1.572874
    175          1           0       -0.942348    0.244157   -2.478172
    176          1           0       -0.487238    0.501651   -1.062873
 ---------------------------------------------------------------------

 SCF Done:  E(RB3LYP) =  -5333.46339738     A.U. after   36 cycles

 The electronic state is 1-A.
 Alpha  occ. eigenvalues -- -145.46201 -19.18301 -19.17184 -19.16387 -19.15729
 Alpha  occ. eigenvalues --  -19.15465 -19.14455 -19.14114 -19.13257 -19.13179
 Alpha  occ. eigenvalues --  -19.12465 -19.12230 -19.11643 -19.11459 -19.11219
 Alpha  occ. eigenvalues --  -19.10523 -19.10434 -19.10005 -19.09447 -19.08231
 Alpha  occ. eigenvalues --  -19.07964 -19.07014 -18.97463 -18.97059 -15.52052
 Alpha  occ. eigenvalues --  -14.55289 -14.40503 -14.40028 -14.39396 -14.39276
 Alpha  occ. eigenvalues --  -14.38855 -14.38467 -14.38229 -14.37901 -14.37613
 Alpha  occ. eigenvalues --  -14.36670 -14.36098 -14.35142 -14.34894 -14.32947
 Alpha  occ. eigenvalues --  -12.65668 -12.65627 -12.65568 -10.34400 -10.33947
 Alpha  occ. eigenvalues --  -10.33751 -10.32821 -10.31691 -10.31662 -10.31291
 Alpha  occ. eigenvalues --  -10.30979 -10.30771 -10.30347 -10.30192 -10.29998
 Alpha  occ. eigenvalues --  -10.29171 -10.28901 -10.27834 -10.27644 -10.27500
 Alpha  occ. eigenvalues --  -10.27382 -10.26883 -10.26879 -10.26813 -10.26737
 Alpha  occ. eigenvalues --  -10.26636 -10.26427 -10.26338 -10.26022 -10.25002
 Alpha  occ. eigenvalues --  -10.24938 -10.24810 -10.24378 -10.24187 -10.23914
 Alpha  occ. eigenvalues --  -10.23426 -10.23260 -10.22604 -10.22365 -10.21955
 Alpha  occ. eigenvalues --  -10.21930 -10.21647 -10.21599 -10.21541 -10.21443
 Alpha  occ. eigenvalues --  -10.21296 -10.20950 -10.20399 -10.20363 -10.18485
 Alpha  occ. eigenvalues --  -10.18218 -10.18123 -10.17382 -10.17136 -10.16734
 Alpha  occ. eigenvalues --  -10.15367 -10.11768  -1.88867  -1.16495  -1.16227
 Alpha  occ. eigenvalues --   -1.15851  -1.11381  -1.10379  -1.08651  -1.07340
 Alpha  occ. eigenvalues --   -1.07300  -1.06542  -1.05890  -1.05768  -1.05748
 Alpha  occ. eigenvalues --   -1.05476  -1.04753  -1.03883  -1.03709  -1.03322
 Alpha  occ. eigenvalues --   -1.03266  -1.03014  -1.02561  -1.01803  -1.01010
 Alpha  occ. eigenvalues --   -1.00574  -0.99428  -0.97553  -0.96766  -0.96544
 Alpha  occ. eigenvalues --   -0.95788  -0.95380  -0.95299  -0.95169  -0.94905
 Alpha  occ. eigenvalues --   -0.93947  -0.93569  -0.93342  -0.92460  -0.91949
 Alpha  occ. eigenvalues --   -0.91262  -0.90406  -0.90143  -0.89214  -0.87861
 Alpha  occ. eigenvalues --   -0.84324  -0.84041  -0.82721  -0.81859  -0.81851
 Alpha  occ. eigenvalues --   -0.81542  -0.80918  -0.79390  -0.77733  -0.77333
 Alpha  occ. eigenvalues --   -0.77274  -0.76853  -0.76832  -0.75895  -0.75401
 Alpha  occ. eigenvalues --   -0.75165  -0.74446  -0.74259  -0.72665  -0.71654
 Alpha  occ. eigenvalues --   -0.70906  -0.70897  -0.70069  -0.69797  -0.69360
 Alpha  occ. eigenvalues --   -0.68787  -0.67948  -0.67521  -0.66978  -0.65707
 Alpha  occ. eigenvalues --   -0.65396  -0.65182  -0.65020  -0.64686  -0.64495
 Alpha  occ. eigenvalues --   -0.64353  -0.63396  -0.62636  -0.62530  -0.62170
 Alpha  occ. eigenvalues --   -0.61908  -0.61640  -0.61595  -0.61459  -0.61196
 Alpha  occ. eigenvalues --   -0.60639  -0.59969  -0.59624  -0.58746  -0.58504
 Alpha  occ. eigenvalues --   -0.58141  -0.58029  -0.57997  -0.57813  -0.57388
 Alpha  occ. eigenvalues --   -0.57147  -0.57054  -0.56719  -0.56286  -0.56136
 Alpha  occ. eigenvalues --   -0.55456  -0.55194  -0.54932  -0.54613  -0.54002
 Alpha  occ. eigenvalues --   -0.53788  -0.53723  -0.53409  -0.53156  -0.52909
 Alpha  occ. eigenvalues --   -0.52744  -0.52366  -0.52168  -0.51918  -0.51781
 Alpha  occ. eigenvalues --   -0.51422  -0.51155  -0.50865  -0.50701  -0.50247
 Alpha  occ. eigenvalues --   -0.50032  -0.49948  -0.49554  -0.49359  -0.49144
 Alpha  occ. eigenvalues --   -0.48769  -0.48615  -0.48387  -0.48180  -0.47925
 Alpha  occ. eigenvalues --   -0.47616  -0.47415  -0.47372  -0.47229  -0.46963
 Alpha  occ. eigenvalues --   -0.46784  -0.46567  -0.46428  -0.46305  -0.46109
 Alpha  occ. eigenvalues --   -0.46064  -0.45919  -0.45819  -0.45600  -0.45576
 Alpha  occ. eigenvalues --   -0.45465  -0.45333  -0.45239  -0.44973  -0.44636
 Alpha  occ. eigenvalues --   -0.44437  -0.44200  -0.44080  -0.43940  -0.43680
 Alpha  occ. eigenvalues --   -0.43590  -0.43488  -0.43396  -0.43328  -0.43246
 Alpha  occ. eigenvalues --   -0.43094  -0.42943  -0.42731  -0.42517  -0.42425
 Alpha  occ. eigenvalues --   -0.42326  -0.42167  -0.42051  -0.41763  -0.41497
 Alpha  occ. eigenvalues --   -0.41418  -0.41253  -0.41207  -0.41107  -0.41007
 Alpha  occ. eigenvalues --   -0.40787  -0.40751  -0.40441  -0.40374  -0.40357
 Alpha  occ. eigenvalues --   -0.40265  -0.39979  -0.39746  -0.39689  -0.39553
 Alpha  occ. eigenvalues --   -0.39337  -0.39119  -0.38994  -0.38891  -0.38484
 Alpha  occ. eigenvalues --   -0.38400  -0.38342  -0.38261  -0.38183  -0.37781
 Alpha  occ. eigenvalues --   -0.37747  -0.37710  -0.37461  -0.37423  -0.37228
 Alpha  occ. eigenvalues --   -0.37087  -0.36833  -0.36602  -0.36378  -0.36047
 Alpha  occ. eigenvalues --   -0.35832  -0.35474  -0.35116  -0.34839  -0.34411
 Alpha  occ. eigenvalues --   -0.34267  -0.33755  -0.33489  -0.33390  -0.33363
 Alpha  occ. eigenvalues --   -0.33182  -0.33165  -0.31910  -0.31634  -0.31382
 Alpha  occ. eigenvalues --   -0.31283  -0.31206  -0.31074  -0.30836  -0.30603
 Alpha  occ. eigenvalues --   -0.30553  -0.29609  -0.29517  -0.29411  -0.29277
 Alpha  occ. eigenvalues --   -0.29067  -0.28952  -0.28595  -0.28158  -0.28137
 Alpha  occ. eigenvalues --   -0.28038  -0.27513  -0.27430  -0.27383  -0.27334
 Alpha  occ. eigenvalues --   -0.27204  -0.27163  -0.26785  -0.26566  -0.26272
 Alpha  occ. eigenvalues --   -0.25935  -0.25759  -0.25275  -0.25038  -0.24743
 Alpha  occ. eigenvalues --   -0.24524  -0.24474  -0.23348  -0.23094  -0.22457
 Alpha  occ. eigenvalues --   -0.14611  -0.14147  -0.12232
 Alpha virt. eigenvalues --   -0.11173  -0.07749  -0.04857  -0.04462  -0.03699
 Alpha virt. eigenvalues --   -0.03315  -0.03223  -0.02445  -0.02350  -0.01756
 Alpha virt. eigenvalues --   -0.01689  -0.01550  -0.01199  -0.00815  -0.00557

 Mulliken charges:
               1
     1  C    0.034119
     2  C    0.034700
     3  O   -0.288301
     4  H    0.024270
     5  H    0.038481
     6  H    0.040843
     7  N   -0.126384
     8  C    0.066740
     9  C    0.109973
    10  O   -0.279303
    11  C    0.150777
    12  C    0.056546
    13  O   -0.382065
    14  O   -0.458248
    15  H    0.121746
    16  H   -0.019585
    17  H    0.018195
    18  H    0.013357
    19  N   -0.156832
    20  C    0.150359
    21  C    0.042497
    22  O   -0.269771
    23  C    0.045796
    24  C   -0.015570
    25  C   -0.007419
    26  C    0.047879
    27  N    0.092425
    28  H    0.130740
    29  H    0.031109
    30  H    0.010844
    31  H    0.027160
    32  H    0.030142
    33  H   -0.024870
    34  H    0.036255
    35  H    0.025134
    36  H    0.045555
    37  H    0.071289
    38  H    0.165293
    39  H    0.132799
    40  H    0.173699
    41  N   -0.182263
    42  C    0.065332
    43  C    0.053744
    44  O   -0.279612
    45  C    0.179267
    46  C    0.099886
    47  O   -0.462255
    48  O   -0.389781
    49  H    0.163845
    50  H    0.053073
    51  H   -0.021220
    52  H    0.048919
    53  N   -0.138647
    54  C    0.224665
    55  C    0.015076
    56  O   -0.301393
    57  H    0.146907
    58  H    0.042767
    59  H    0.038963
    60  N   -0.122991
    61  C    0.115227
    62  C    0.138995
    63  O   -0.336042
    64  C    0.123879
    65  C   -0.053529
    66  N   -0.052583
    67  O   -0.261651
    68  H    0.171806
    69  H    0.025275
    70  H   -0.014526
    71  H    0.057819
    72  H    0.124875
    73  H    0.131447
    74  N   -0.178914
    75  C    0.191387
    76  C    0.010938
    77  O   -0.283280
    78  H    0.142932
    79  H    0.055116
    80  H    0.049142
    81  N   -0.108347
    82  C    0.151956
    83  C    0.104815
    84  O   -0.338625
    85  C    0.129464
    86  C   -0.086444
    87  C    0.017081
    88  C   -0.024699
    89  C   -0.036151
    90  C   -0.040334
    91  C    0.169463
    92  O   -0.178984
    93  H    0.135161
    94  H   -0.015900
    95  H    0.001720
    96  H    0.013707
    97  H   -0.006009
    98  H   -0.025282
    99  H   -0.007738
   100  H   -0.030287
   101  H    0.174315
   102  N   -0.074135
   103  C    0.164966
   104  C    0.094481
   105  O   -0.288928
   106  C   -0.104814
   107  C    0.009111
   108  C    0.055179
   109  C    0.032424
   110  H    0.125537
   111  H   -0.012707
   112  H   -0.040410
   113  H   -0.026770
   114  H    0.016605
   115  H    0.004790
   116  H   -0.003438
   117  H    0.013290
   118  H    0.051672
   119  H   -0.039694
   120  H    0.013483
   121  N   -0.134855
   122  C    0.071608
   123  C    0.113883
   124  O   -0.268857
   125  C    0.221400
   126  O   -0.302690
   127  H    0.122075
   128  H    0.043589
   129  H    0.000962
   130  H    0.014134
   131  H    0.190269
   132  N   -0.128910
   133  C    0.011944
   134  C    0.041988
   135  O   -0.253759
   136  C    0.112766
   137  H    0.118955
   138  H    0.011425
   139  H    0.039792
   140  H    0.027653
   141  H   -0.020573
   142  N   -0.098306
   143  C    0.018666
   144  C    0.063986
   145  O   -0.276206
   146  C    0.091299
   147  H    0.130685
   148  H    0.006880
   149  H    0.005675
   150  H    0.004415
   151  H    0.020007
   152  N   -0.085765
   153  C    0.087839
   154  C    0.064257
   155  O   -0.298258
   156  C    0.044437
   157  C    0.081146
   158  C    0.047320
   159  O   -0.370864
   160  O   -0.378904
   161  H    0.112000
   162  H   -0.000585
   163  H   -0.008511
   164  H   -0.027561
   165  H   -0.017541
   166  H   -0.056417
   167  N   -0.150007
   168  C    0.139861
   169  H    0.029941
   170  H    0.015061
   171  H    0.038966
   172  H    0.111283
   173  Ca   1.253202
   174  O   -0.347768
   175  H    0.202488
   176  H    0.191991
 Sum of Mulliken charges =  -0.00000

 Dipole moment (field-independent basis, Debye):
    X=            -15.5621    Y=             12.0397    Z=              6.7854  Tot=             20.8129
 Quadrupole moment (field-independent basis, Debye-Ang):
   XX=           -789.7973   YY=           -661.2199   ZZ=           -512.0485
   XY=            154.3380   XZ=            -68.3434   YZ=            -68.9237

 ESP charges:
               1
     1  C   -0.422266
     2  C    0.704605
     3  O   -0.576208
     4  H    0.098772
     5  H    0.130272
     6  H    0.118451
     7  N   -0.514337
     8  C    0.126513
     9  C    0.477164
    10  O   -0.502482
    11  C   -0.305808
    12  C    0.720125
    13  O   -0.657144
    14  O   -0.788693
    15  H    0.296596
    16  H    0.045698
    17  H    0.127113
    18  H    0.089242
    19  N   -0.285237
    20  C    0.014585
    21  C    0.503715
    22  O   -0.539651
    23  C   -0.298711
    24  C    0.155153
    25  C   -0.101534
    26  C    0.036373
    27  N   -0.311073
    28  H    0.213456
    29  H    0.115276
    30  H    0.096686
    31  H    0.098660
    32  H    0.076174
    33  H    0.036757
    34  H    0.069567
    35  H    0.035107
    36  H    0.043878
    37  H    0.081970
    38  H    0.282449
    39  H    0.265278
    40  H    0.324456
    41  N   -0.347608
    42  C    0.242791
    43  C    0.220999
    44  O   -0.496238
    45  C   -0.391820
    46  C    0.852333
    47  O   -0.835486
    48  O   -0.704111
    49  H    0.092447
    50  H    0.107204
    51  H    0.076539
    52  H    0.141390
    53  N    0.079629
    54  C   -0.405720
    55  C    0.695307
    56  O   -0.583178
    57  H    0.128434
    58  H    0.151729
    59  H    0.154806
    60  N   -0.446488
    61  C    0.079757
    62  C    0.539881
    63  O   -0.522530
    64  C   -0.353206
    65  C    0.721082
    66  N   -0.828817
    67  O   -0.568235
    68  H    0.349356
    69  H    0.070140
    70  H    0.080915
    71  H    0.164881
    72  H    0.360077
    73  H    0.379909
    74  N   -0.393926
    75  C   -0.178487
    76  C    0.598130
    77  O   -0.554059
    78  H    0.306225
    79  H    0.130990
    80  H    0.134225
    81  N   -0.466352
    82  C    0.294324
    83  C    0.119606
    84  O   -0.482378
    85  C   -0.475777
    86  C    0.260384
    87  C   -0.347329
    88  C   -0.249994
    89  C   -0.075897
    90  C   -0.212368
    91  C    0.252704
    92  O   -0.508644
    93  H    0.260945
    94  H    0.056814
    95  H    0.174088
    96  H    0.151567
    97  H    0.209522
    98  H    0.154190
    99  H    0.139609
   100  H    0.126398
   101  H    0.404142
   102  N   -0.237685
   103  C   -0.058899
   104  C    0.590989
   105  O   -0.489922
   106  C    0.271693
   107  C    0.082030
   108  C   -0.340488
   109  C   -0.110042
   110  H    0.253044
   111  H    0.068521
   112  H   -0.097244
   113  H   -0.014585
   114  H   -0.025989
   115  H    0.061264
   116  H    0.083284
   117  H    0.105704
   118  H    0.049690
   119  H   -0.002118
   120  H    0.026682
   121  N   -0.571983
   122  C   -0.076591
   123  C    0.624627
   124  O   -0.510820
   125  C    0.057591
   126  O   -0.528819
   127  H    0.288184
   128  H    0.122851
   129  H    0.062755
   130  H    0.045010
   131  H    0.406109
   132  N   -0.474726
   133  C    0.342526
   134  C    0.445522
   135  O   -0.511474
   136  C   -0.374325
   137  H    0.305121
   138  H   -0.015305
   139  H    0.111701
   140  H    0.113822
   141  H    0.067672
   142  N   -0.570169
   143  C    0.393653
   144  C    0.538997
   145  O   -0.560478
   146  C   -0.277202
   147  H    0.325303
   148  H    0.030800
   149  H    0.036742
   150  H    0.082355
   151  H    0.095434
   152  N   -0.625587
   153  C   -0.054089
   154  C    0.581959
   155  O   -0.549836
   156  C    0.210748
   157  C   -0.312602
   158  C    0.694658
   159  O   -0.654714
   160  O   -0.665221
   161  H    0.325386
   162  H    0.004906
   163  H    0.035067
   164  H   -0.057936
   165  H    0.068582
   166  H    0.029033
   167  N   -0.329472
   168  C   -0.207530
   169  H    0.107138
   170  H    0.101188
   171  H    0.111286
   172  H    0.288315
   173  Ca   1.492907
   174  O   -0.926235
   175  H    0.478915
   176  H    0.496563
 Sum of ESP charges =  -0.00000

 Normal termination of Gaussian 16 at Wed Sep 18 11:03:52 2019.
