 Gaussian 16, Revision A.03,
 Gaussian 16:  ES64L-G16RevA.03 25-Dec-2016

 ----------------------------------------------------------------------
 #b3lyp/svp scf=(tight,noincore) Test #IOP(5/87=12) Density=Current Pop
 =(MK,readradii) iop(6/33=2) iop(6/42=6)
 ----------------------------------------------------------------------

 ----------------
 Ng-295_loop3_2.0
 ----------------
 Symbolic Z-matrix:
 Charge =  0 Multiplicity = 1

                         Standard orientation:
 ---------------------------------------------------------------------
 Center     Atomic      Atomic             Coordinates (Angstroms)
 Number     Number       Type             X           Y           Z
 ---------------------------------------------------------------------
      1          6           0       -0.140216   -5.690138    3.715224
      2          6           0        0.662570   -4.798661    2.774105
      3          8           0        0.302201   -4.813789    1.600518
      4          1           0       -1.101278   -5.927375    3.258355
      5          1           0        0.410817   -6.612416    3.901770
      6          1           0       -0.305766   -5.168191    4.657636
      7          7           0        1.792691   -4.196806    3.145986
      8          6           0        2.711064   -3.453828    2.300721
      9          6           0        3.758291   -4.339921    1.648377
     10          8           0        4.958182   -4.180320    1.874847
     11          6           0        3.244964   -2.156310    2.895027
     12          6           0        3.021183   -1.043031    1.887093
     13          8           0        1.983599   -0.341784    1.845003
     14          8           0        3.788628   -0.968728    0.901493
     15          1           0        2.001972   -4.192393    4.128372
     16          1           0        2.225483   -3.105295    1.384568
     17          1           0        4.320104   -2.261643    3.058669
     18          1           0        2.775739   -1.967149    3.855103
     19          7           0        3.173459   -5.180575    0.778967
     20          6           0        3.913968   -6.042580   -0.117188
     21          6           0        5.030722   -5.382438   -0.917920
     22          8           0        6.212904   -5.700157   -0.806565
     23          6           0        2.907778   -6.851118   -0.931588
     24          6           0        1.837637   -7.663709   -0.215631
     25          6           0        0.766348   -8.320599   -1.075477
     26          6           0       -0.151056   -7.324622   -1.776119
     27          7           0       -0.892926   -6.412309   -0.901582
     28          1           0        2.169019   -5.183980    0.769526
     29          1           0        4.470775   -6.715890    0.519775
     30          1           0        3.469435   -7.602173   -1.502778
     31          1           0        2.369410   -6.192249   -1.607939
     32          1           0        1.374220   -7.034956    0.550473
     33          1           0        2.351030   -8.485666    0.295558
     34          1           0        0.221202   -8.968976   -0.389748
     35          1           0        1.125969   -9.022821   -1.830234
     36          1           0       -0.836521   -7.897272   -2.394835
     37          1           0        0.443108   -6.683586   -2.431132
     38          1           0       -1.683298   -6.030301   -1.401463
     39          1           0       -1.335020   -6.923570   -0.139175
     40          1           0       -0.410858   -5.572418   -0.633454
     41          7           0        4.589232   -4.260463   -1.507970
     42          6           0        5.309794   -3.436548   -2.457735
     43          6           0        6.353068   -2.596409   -1.734033
     44          8           0        7.386633   -2.229876   -2.306133
     45          6           0        4.369900   -2.519981   -3.226113
     46          6           0        3.431770   -1.745774   -2.309044
     47          8           0        3.357426   -0.508928   -2.418981
     48          8           0        2.655385   -2.310812   -1.498084
     49          1           0        3.586850   -4.194165   -1.549617
     50          1           0        5.827309   -4.043389   -3.204008
     51          1           0        3.721329   -3.060396   -3.915538
     52          1           0        4.950610   -1.834936   -3.842627
     53          7           0        6.160030   -2.423194   -0.430640
     54          6           0        7.155252   -1.853970    0.461277
     55          6           0        7.308964   -0.338253    0.444727
     56          8           0        8.426694    0.166343    0.549424
     57          1           0        5.328154   -2.745864    0.031927
     58          1           0        8.098505   -2.353989    0.255963
     59          1           0        6.936164   -2.161485    1.489496
     60          7           0        6.183585    0.374751    0.301375
     61          6           0        6.162248    1.789853    0.006196
     62          6           0        4.887455    2.288505    0.668653
     63          8           0        3.817303    1.857509    0.241901
     64          6           0        6.139243    1.940596   -1.519631
     65          6           0        5.875130    3.338927   -2.046713
     66          7           0        5.088084    3.510953   -3.100215
     67          8           0        6.413826    4.299648   -1.491716
     68          1           0        5.339811   -0.184545    0.251043
     69          1           0        6.978496    2.286523    0.518503
     70          1           0        5.459649    1.180691   -1.922243
     71          1           0        7.121464    1.771730   -1.965194
     72          1           0        4.639271    2.730407   -3.570017
     73          1           0        5.007459    4.447094   -3.460825
     74          7           0        4.943065    3.131740    1.693037
     75          6           0        3.946944    3.331122    2.737829
     76          6           0        2.606694    3.951409    2.355241
     77          8           0        1.724247    4.084818    3.193089
     78          1           0        5.853820    3.334637    2.075474
     79          1           0        4.383206    3.999966    3.471193
     80          1           0        3.677038    2.440270    3.313792
     81          7           0        2.430399    4.236506    1.063831
     82          6           0        1.237187    4.742861    0.416103
     83          6           0        0.080982    3.767745    0.305938
     84          8           0        0.356843    2.605713   -0.014816
     85          6           0        1.494182    5.492000   -0.895897
     86          6           0        2.209767    6.806850   -0.730648
     87          6           0        3.522764    7.039681   -1.145772
     88          6           0        1.497148    7.867999   -0.140702
     89          6           0        4.215826    8.183691   -0.715181
     90          6           0        2.188547    9.002152    0.290185
     91          6           0        3.570504    9.177819    0.047621
     92          8           0        4.213392   10.271856    0.559362
     93          1           0        3.195326    3.967601    0.459284
     94          1           0        0.815270    5.434685    1.150586
     95          1           0        0.504005    5.594596   -1.348802
     96          1           0        1.996566    4.858198   -1.611443
     97          1           0        4.077885    6.309998   -1.717702
     98          1           0        0.484365    7.723881    0.184417
     99          1           0        5.226772    8.379699   -1.011945
    100          1           0        1.625814    9.634463    0.955177
    101          1           0        3.537020   10.862673    0.894408
    102          7           0       -1.149492    4.197739    0.620801
    103          6           0       -2.428220    3.531543    0.649764
    104          6           0       -2.975856    3.287591   -0.748478
    105          8           0       -2.239987    3.174621   -1.728444
    106          6           0       -2.532809    2.329775    1.597347
    107          6           0       -1.874776    2.503280    2.958850
    108          6           0       -2.097992    0.953755    1.124798
    109          6           0       -2.161814    3.763315    3.776665
    110          1           0       -1.207124    5.196631    0.788711
    111          1           0       -3.080900    4.274324    1.110291
    112          1           0       -3.619141    2.273098    1.718887
    113          1           0       -0.791515    2.417067    2.791782
    114          1           0       -2.081009    1.633632    3.584773
    115          1           0       -1.004048    0.939703    1.055600
    116          1           0       -2.425131    0.219542    1.865347
    117          1           0       -2.589080    0.723961    0.176891
    118          1           0       -3.207075    3.786533    4.086167
    119          1           0       -1.682897    3.681241    4.744344
    120          1           0       -2.004252    4.715707    3.267722
    121          7           0       -4.299582    3.135458   -0.746237
    122          6           0       -5.034173    2.646655   -1.888361
    123          6           0       -6.550046    2.694722   -1.704187
    124          8           0       -7.243995    3.005839   -2.671162
    125          6           0       -4.663189    1.204191   -2.229341
    126          8           0       -5.107863    0.273368   -1.263560
    127          1           0       -4.797138    3.386590    0.091540
    128          1           0       -4.722798    3.279453   -2.715895
    129          1           0       -3.588221    1.129808   -2.386857
    130          1           0       -5.064946    1.018688   -3.227830
    131          1           0       -4.907816   -0.564408   -1.685358
    132          7           0       -6.999407    2.360390   -0.497208
    133          6           0       -8.325385    2.368883    0.110255
    134          6           0       -9.468989    1.658013   -0.588480
    135          8           0      -10.417352    2.311956   -1.028442
    136          6           0       -8.680478    3.835775    0.340552
    137          1           0       -6.234724    2.200067    0.145486
    138          1           0       -8.194021    1.909408    1.086589
    139          1           0       -7.998717    4.389979    0.999839
    140          1           0       -8.797265    4.385225   -0.598472
    141          1           0       -9.595227    3.875874    0.930913
    142          7           0       -9.351924    0.388210   -0.997378
    143          6           0       -8.247262   -0.532449   -1.127796
    144          6           0       -8.707776   -1.901053   -0.638562
    145          8           0       -9.882976   -2.263615   -0.728295
    146          6           0       -7.830455   -0.535248   -2.594549
    147          1           0      -10.201996    0.002196   -1.393447
    148          1           0       -7.376948   -0.136094   -0.611797
    149          1           0       -6.914014   -1.115667   -2.587456
    150          1           0       -8.569021   -1.117737   -3.163431
    151          1           0       -7.629035    0.441982   -3.043829
    152          7           0       -7.830004   -2.721663   -0.063919
    153          6           0       -6.462517   -2.513579    0.352713
    154          6           0       -6.329370   -2.076492    1.800927
    155          8           0       -6.636662   -2.860211    2.693315
    156          6           0       -5.737078   -3.830495    0.101174
    157          6           0       -4.244475   -3.618757    0.328775
    158          6           0       -3.520870   -4.746478   -0.389028
    159          8           0       -3.662984   -5.917631    0.016933
    160          8           0       -3.085310   -4.611642   -1.559799
    161          1           0       -8.217237   -3.611342    0.230738
    162          1           0       -5.924558   -1.780501   -0.255725
    163          1           0       -5.989599   -4.213405   -0.889641
    164          1           0       -6.126324   -4.575739    0.801459
    165          1           0       -4.037711   -3.621349    1.401408
    166          1           0       -3.960231   -2.621739   -0.010284
    167          7           0       -5.837348   -0.871576    2.117617
    168          6           0       -6.345068   -0.113052    3.239384
    169          1           0       -7.329474   -0.490641    3.517140
    170          1           0       -5.665924   -0.215293    4.085538
    171          1           0       -6.424836    0.938070    2.962186
    172          1           0       -5.408707   -0.316306    1.393709
    173         20           0        1.778202    0.389412   -0.631459
    174          8           0       -0.566941    0.273399   -1.780696
    175          1           0       -1.305383   -0.324483   -1.848816
    176          1           0       -0.790407    1.003652   -2.366266
 ---------------------------------------------------------------------

 SCF Done:  E(RB3LYP) =  -5333.54646841     A.U. after   16 cycles

 The electronic state is 1-A.
 Alpha  occ. eigenvalues -- -145.41605 -19.21412 -19.20202 -19.18286 -19.15741
 Alpha  occ. eigenvalues --  -19.15731 -19.13947 -19.12856 -19.12795 -19.11720
 Alpha  occ. eigenvalues --  -19.11084 -19.10765 -19.10289 -19.09581 -19.09563
 Alpha  occ. eigenvalues --  -19.08874 -19.07959 -19.07364 -19.07269 -19.06707
 Alpha  occ. eigenvalues --  -19.06515 -19.06121 -19.03270 -19.02377 -15.47405
 Alpha  occ. eigenvalues --  -14.46026 -14.41603 -14.41293 -14.40110 -14.39556
 Alpha  occ. eigenvalues --  -14.38776 -14.37828 -14.37176 -14.36653 -14.36478
 Alpha  occ. eigenvalues --  -14.36221 -14.35099 -14.33694 -14.32503 -14.31870
 Alpha  occ. eigenvalues --  -12.61034 -12.60970 -12.60952 -10.34009 -10.33955
 Alpha  occ. eigenvalues --  -10.32301 -10.31930 -10.31629 -10.30786 -10.29346
 Alpha  occ. eigenvalues --  -10.29317 -10.29207 -10.29019 -10.28903 -10.28815
 Alpha  occ. eigenvalues --  -10.28544 -10.28248 -10.28001 -10.27332 -10.27234
 Alpha  occ. eigenvalues --  -10.27234 -10.26843 -10.26717 -10.26647 -10.25985
 Alpha  occ. eigenvalues --  -10.25379 -10.24966 -10.24737 -10.24651 -10.24385
 Alpha  occ. eigenvalues --  -10.24110 -10.24051 -10.23714 -10.23666 -10.23663
 Alpha  occ. eigenvalues --  -10.23357 -10.22724 -10.22199 -10.21985 -10.21817
 Alpha  occ. eigenvalues --  -10.21715 -10.21678 -10.21573 -10.21387 -10.21134
 Alpha  occ. eigenvalues --  -10.20867 -10.20673 -10.20576 -10.20210 -10.19909
 Alpha  occ. eigenvalues --  -10.19778 -10.19444 -10.19408 -10.18757 -10.18544
 Alpha  occ. eigenvalues --  -10.18334 -10.17084  -1.84143  -1.11825  -1.11499
 Alpha  occ. eigenvalues --   -1.11285  -1.08900  -1.08170  -1.07477  -1.07175
 Alpha  occ. eigenvalues --   -1.07017  -1.06893  -1.06092  -1.05768  -1.04676
 Alpha  occ. eigenvalues --   -1.04224  -1.03492  -1.03339  -1.02726  -1.02592
 Alpha  occ. eigenvalues --   -1.02585  -1.02563  -1.02362  -1.01142  -0.99526
 Alpha  occ. eigenvalues --   -0.98921  -0.98548  -0.98161  -0.98053  -0.96381
 Alpha  occ. eigenvalues --   -0.96123  -0.95155  -0.94615  -0.93894  -0.93494
 Alpha  occ. eigenvalues --   -0.93273  -0.92264  -0.92059  -0.91229  -0.91023
 Alpha  occ. eigenvalues --   -0.90938  -0.90295  -0.88053  -0.87324  -0.86815
 Alpha  occ. eigenvalues --   -0.86151  -0.84658  -0.82724  -0.82297  -0.80739
 Alpha  occ. eigenvalues --   -0.79951  -0.79612  -0.78772  -0.78577  -0.77996
 Alpha  occ. eigenvalues --   -0.77679  -0.77272  -0.76472  -0.76355  -0.75320
 Alpha  occ. eigenvalues --   -0.74859  -0.74218  -0.73848  -0.73496  -0.70946
 Alpha  occ. eigenvalues --   -0.70724  -0.70144  -0.69064  -0.68750  -0.68313
 Alpha  occ. eigenvalues --   -0.67958  -0.67016  -0.66877  -0.66176  -0.65367
 Alpha  occ. eigenvalues --   -0.64768  -0.64586  -0.64123  -0.63895  -0.63385
 Alpha  occ. eigenvalues --   -0.63121  -0.62488  -0.62313  -0.61771  -0.61483
 Alpha  occ. eigenvalues --   -0.61290  -0.61268  -0.60504  -0.60453  -0.60427
 Alpha  occ. eigenvalues --   -0.60172  -0.59966  -0.59862  -0.59269  -0.59136
 Alpha  occ. eigenvalues --   -0.58015  -0.57849  -0.57102  -0.56972  -0.56929
 Alpha  occ. eigenvalues --   -0.56473  -0.55787  -0.55769  -0.55242  -0.55156
 Alpha  occ. eigenvalues --   -0.54869  -0.54467  -0.53568  -0.53241  -0.53004
 Alpha  occ. eigenvalues --   -0.52927  -0.52690  -0.52593  -0.52188  -0.51922
 Alpha  occ. eigenvalues --   -0.51735  -0.51633  -0.51072  -0.50957  -0.50677
 Alpha  occ. eigenvalues --   -0.50376  -0.50125  -0.50050  -0.49797  -0.49535
 Alpha  occ. eigenvalues --   -0.49513  -0.49371  -0.49022  -0.48749  -0.48683
 Alpha  occ. eigenvalues --   -0.48364  -0.48224  -0.47935  -0.47706  -0.47608
 Alpha  occ. eigenvalues --   -0.47491  -0.47411  -0.47239  -0.47160  -0.46861
 Alpha  occ. eigenvalues --   -0.46768  -0.46639  -0.46465  -0.45893  -0.45799
 Alpha  occ. eigenvalues --   -0.45768  -0.45550  -0.45342  -0.44965  -0.44754
 Alpha  occ. eigenvalues --   -0.44627  -0.44535  -0.44449  -0.44182  -0.44143
 Alpha  occ. eigenvalues --   -0.44046  -0.43869  -0.43552  -0.43530  -0.43525
 Alpha  occ. eigenvalues --   -0.43292  -0.43123  -0.43014  -0.42865  -0.42797
 Alpha  occ. eigenvalues --   -0.42759  -0.42740  -0.42658  -0.42574  -0.42427
 Alpha  occ. eigenvalues --   -0.42233  -0.42029  -0.41926  -0.41617  -0.41537
 Alpha  occ. eigenvalues --   -0.41405  -0.41279  -0.41227  -0.40533  -0.40457
 Alpha  occ. eigenvalues --   -0.40427  -0.40295  -0.40074  -0.40032  -0.39953
 Alpha  occ. eigenvalues --   -0.39915  -0.39815  -0.39507  -0.39423  -0.39172
 Alpha  occ. eigenvalues --   -0.39134  -0.38976  -0.38913  -0.38572  -0.38538
 Alpha  occ. eigenvalues --   -0.38393  -0.38304  -0.38298  -0.38268  -0.37955
 Alpha  occ. eigenvalues --   -0.37793  -0.37697  -0.37479  -0.37283  -0.37187
 Alpha  occ. eigenvalues --   -0.36874  -0.36837  -0.36641  -0.36582  -0.36329
 Alpha  occ. eigenvalues --   -0.36179  -0.36140  -0.36077  -0.35818  -0.35672
 Alpha  occ. eigenvalues --   -0.35508  -0.35229  -0.35200  -0.34632  -0.34105
 Alpha  occ. eigenvalues --   -0.34097  -0.33058  -0.32854  -0.32830  -0.32817
 Alpha  occ. eigenvalues --   -0.32148  -0.31793  -0.31261  -0.30650  -0.30210
 Alpha  occ. eigenvalues --   -0.29996  -0.29655  -0.28656  -0.28652  -0.28297
 Alpha  occ. eigenvalues --   -0.28166  -0.28000  -0.27774  -0.27731  -0.27315
 Alpha  occ. eigenvalues --   -0.27105  -0.26990  -0.26622  -0.26295  -0.25979
 Alpha  occ. eigenvalues --   -0.25858  -0.25653  -0.25338  -0.25264  -0.25132
 Alpha  occ. eigenvalues --   -0.24645  -0.24452  -0.24403  -0.24344  -0.24171
 Alpha  occ. eigenvalues --   -0.23359  -0.22852  -0.22197  -0.21809  -0.21576
 Alpha  occ. eigenvalues --   -0.21148  -0.20713  -0.17537
 Alpha virt. eigenvalues --   -0.05486  -0.04875  -0.04100  -0.03725  -0.03567
 Alpha virt. eigenvalues --   -0.02379  -0.02193  -0.01954  -0.01803  -0.01732
 Alpha virt. eigenvalues --   -0.01133  -0.00867   0.00168   0.00265   0.00475

 Mulliken charges:
               1
     1  C    0.051201
     2  C    0.041780
     3  O   -0.339491
     4  H    0.052841
     5  H    0.044354
     6  H    0.024161
     7  N   -0.097834
     8  C   -0.005848
     9  C    0.105729
    10  O   -0.258801
    11  C    0.195348
    12  C    0.080755
    13  O   -0.452085
    14  O   -0.401947
    15  H    0.122152
    16  H    0.062587
    17  H    0.020356
    18  H   -0.028374
    19  N   -0.155616
    20  C    0.149260
    21  C    0.055818
    22  O   -0.232035
    23  C    0.013108
    24  C   -0.007947
    25  C    0.019017
    26  C    0.038017
    27  N    0.088063
    28  H    0.126205
    29  H   -0.005390
    30  H    0.016093
    31  H   -0.019997
    32  H   -0.012624
    33  H    0.013435
    34  H    0.018918
    35  H    0.024413
    36  H    0.055751
    37  H    0.047918
    38  H    0.137426
    39  H    0.170702
    40  H    0.177759
    41  N   -0.142856
    42  C    0.097489
    43  C    0.065690
    44  O   -0.282667
    45  C    0.107672
    46  C    0.120664
    47  O   -0.457352
    48  O   -0.407465
    49  H    0.117649
    50  H    0.009978
    51  H    0.008742
    52  H    0.014946
    53  N   -0.155107
    54  C    0.216202
    55  C    0.021492
    56  O   -0.283501
    57  H    0.160953
    58  H    0.021388
    59  H    0.030939
    60  N   -0.170510
    61  C    0.190930
    62  C    0.097660
    63  O   -0.373452
    64  C    0.102841
    65  C   -0.039107
    66  N   -0.042933
    67  O   -0.292519
    68  H    0.159950
    69  H   -0.006357
    70  H    0.014271
    71  H    0.059620
    72  H    0.132590
    73  H    0.128216
    74  N   -0.120144
    75  C    0.174764
    76  C    0.034122
    77  O   -0.281518
    78  H    0.145104
    79  H    0.035120
    80  H    0.063651
    81  N   -0.096716
    82  C    0.074425
    83  C    0.168480
    84  O   -0.375658
    85  C    0.155689
    86  C   -0.003041
    87  C    0.016553
    88  C    0.003985
    89  C   -0.032546
    90  C   -0.060873
    91  C    0.187395
    92  O   -0.182739
    93  H    0.131059
    94  H   -0.013504
    95  H   -0.000831
    96  H   -0.015002
    97  H   -0.033376
    98  H   -0.047918
    99  H   -0.011634
   100  H   -0.036188
   101  H    0.175314
   102  N   -0.113403
   103  C    0.104755
   104  C    0.096754
   105  O   -0.270758
   106  C   -0.083337
   107  C   -0.006306
   108  C    0.077129
   109  C    0.058893
   110  H    0.135922
   111  H    0.000377
   112  H   -0.054896
   113  H    0.037938
   114  H    0.002313
   115  H    0.033740
   116  H    0.017386
   117  H   -0.025095
   118  H   -0.019006
   119  H    0.024978
   120  H   -0.005645
   121  N   -0.138889
   122  C    0.087132
   123  C    0.062211
   124  O   -0.245052
   125  C    0.225274
   126  O   -0.306331
   127  H    0.125289
   128  H    0.031558
   129  H   -0.019522
   130  H    0.023056
   131  H    0.210987
   132  N   -0.119896
   133  C    0.023523
   134  C    0.077480
   135  O   -0.250611
   136  C    0.072309
   137  H    0.102253
   138  H    0.012660
   139  H   -0.026754
   140  H    0.055675
   141  H    0.019014
   142  N   -0.095658
   143  C   -0.004295
   144  C    0.079117
   145  O   -0.267976
   146  C    0.075009
   147  H    0.135577
   148  H   -0.003950
   149  H   -0.034161
   150  H    0.021422
   151  H    0.056850
   152  N   -0.078619
   153  C    0.096430
   154  C    0.065620
   155  O   -0.255415
   156  C    0.009553
   157  C    0.114730
   158  C    0.042804
   159  O   -0.413635
   160  O   -0.425094
   161  H    0.138288
   162  H   -0.050439
   163  H    0.017382
   164  H    0.028088
   165  H    0.004635
   166  H   -0.068327
   167  N   -0.165408
   168  C    0.119613
   169  H    0.046273
   170  H    0.034964
   171  H   -0.000256
   172  H    0.116180
   173  Ca   1.324464
   174  O   -0.312945
   175  H    0.201522
   176  H    0.199352
 Sum of Mulliken charges =  -0.00000

 Dipole moment (field-independent basis, Debye):
    X=             -5.2351    Y=              6.8090    Z=              3.2366  Tot=              9.1785
 Quadrupole moment (field-independent basis, Debye-Ang):
   XX=           -858.7263   YY=           -472.1777   ZZ=           -533.5518
   XY=             -8.3725   XZ=             -9.3567   YZ=             17.5776

 ESP charges:
               1
     1  C   -0.326139
     2  C    0.849608
     3  O   -0.682367
     4  H    0.103831
     5  H    0.095843
     6  H    0.079438
     7  N   -0.908931
     8  C    0.728309
     9  C    0.378377
    10  O   -0.471769
    11  C   -0.546419
    12  C    0.961883
    13  O   -0.865516
    14  O   -0.636132
    15  H    0.374760
    16  H   -0.051546
    17  H    0.084367
    18  H    0.118317
    19  N   -0.462713
    20  C    0.241040
    21  C    0.383982
    22  O   -0.496727
    23  C   -0.439017
    24  C    0.270418
    25  C   -0.156836
    26  C    0.097953
    27  N   -0.092971
    28  H    0.318373
    29  H    0.050358
    30  H    0.114064
    31  H    0.103313
    32  H   -0.115347
    33  H   -0.000066
    34  H    0.044709
    35  H    0.066144
    36  H    0.057370
    37  H    0.021026
    38  H    0.191042
    39  H    0.255640
    40  H    0.281903
    41  N   -0.278733
    42  C   -0.066727
    43  C    0.382706
    44  O   -0.545547
    45  C   -0.187309
    46  C    0.771116
    47  O   -0.803739
    48  O   -0.740951
    49  H    0.229986
    50  H    0.117317
    51  H    0.061620
    52  H    0.086952
    53  N    0.320294
    54  C   -0.464668
    55  C    0.647248
    56  O   -0.547083
    57  H   -0.062035
    58  H    0.149485
    59  H    0.168109
    60  N   -0.447410
    61  C    0.089219
    62  C    0.705897
    63  O   -0.637330
    64  C   -0.344312
    65  C    0.711636
    66  N   -0.828853
    67  O   -0.583594
    68  H    0.171676
    69  H    0.046743
    70  H    0.101864
    71  H    0.175012
    72  H    0.375546
    73  H    0.376537
    74  N   -0.645792
    75  C    0.085037
    76  C    0.561918
    77  O   -0.576398
    78  H    0.371298
    79  H    0.069497
    80  H    0.077215
    81  N   -0.402454
    82  C    0.104882
    83  C    0.454067
    84  O   -0.520990
    85  C   -0.099196
    86  C    0.063657
    87  C   -0.200264
    88  C   -0.128027
    89  C   -0.187187
    90  C   -0.319750
    91  C    0.353768
    92  O   -0.516028
    93  H    0.251309
    94  H    0.051490
    95  H    0.040209
    96  H    0.057566
    97  H    0.139302
    98  H    0.112917
    99  H    0.156524
   100  H    0.149602
   101  H    0.396159
   102  N   -0.360614
   103  C   -0.098975
   104  C    0.475991
   105  O   -0.479992
   106  C    0.172549
   107  C   -0.184801
   108  C   -0.336204
   109  C   -0.225151
   110  H    0.285314
   111  H    0.112949
   112  H    0.030143
   113  H    0.121702
   114  H    0.098118
   115  H    0.122447
   116  H    0.067011
   117  H    0.110702
   118  H    0.035424
   119  H    0.109153
   120  H    0.052470
   121  N   -0.225433
   122  C   -0.217175
   123  C    0.487743
   124  O   -0.483282
   125  C    0.253328
   126  O   -0.727144
   127  H    0.128592
   128  H    0.147080
   129  H   -0.008119
   130  H    0.033028
   131  H    0.458715
   132  N   -0.190835
   133  C    0.144259
   134  C    0.529046
   135  O   -0.500049
   136  C   -0.420250
   137  H    0.260217
   138  H    0.046631
   139  H    0.084101
   140  H    0.149203
   141  H    0.115222
   142  N   -0.655451
   143  C    0.527707
   144  C    0.457847
   145  O   -0.531279
   146  C   -0.214660
   147  H    0.328249
   148  H   -0.153130
   149  H   -0.002797
   150  H    0.054649
   151  H    0.108093
   152  N   -0.460556
   153  C   -0.331148
   154  C    0.766772
   155  O   -0.530395
   156  C    0.214841
   157  C   -0.275726
   158  C    0.656712
   159  O   -0.686845
   160  O   -0.693928
   161  H    0.327016
   162  H    0.163322
   163  H    0.054103
   164  H    0.012009
   165  H    0.062213
   166  H   -0.018041
   167  N   -0.486560
   168  C   -0.085413
   169  H    0.091780
   170  H    0.082657
   171  H    0.043243
   172  H    0.279434
   173  Ca   1.637879
   174  O   -0.857049
   175  H    0.439681
   176  H    0.431080
 Sum of ESP charges =   0.00000

 Normal termination of Gaussian 16 at Tue Sep 17 23:47:01 2019.
