 Gaussian 16, Revision A.03,
 Gaussian 16:  ES64L-G16RevA.03 25-Dec-2016

 ----------------------------------------------------------------------
 #b3lyp/svp scf=(tight,noincore) Test #IOP(5/87=12) Density=Current Pop
 =(MK,readradii) iop(6/33=2) iop(6/42=6)
 ----------------------------------------------------------------------

 ----------------
 Ng-293_loop3_5.0
 ----------------
 Symbolic Z-matrix:
 Charge =  0 Multiplicity = 1

                         Standard orientation:
 ---------------------------------------------------------------------
 Center     Atomic      Atomic             Coordinates (Angstroms)
 Number     Number       Type             X           Y           Z
 ---------------------------------------------------------------------
      1          6           0        8.303725   -4.045717   -6.619606
      2          6           0        8.578018   -3.818544   -5.142800
      3          8           0        9.614997   -3.269099   -4.800477
      4          1           0        7.473715   -4.743805   -6.730776
      5          1           0        8.046570   -3.097551   -7.091972
      6          1           0        9.192534   -4.460765   -7.094920
      7          7           0        7.634026   -4.092225   -4.235840
      8          6           0        7.883788   -4.001121   -2.809860
      9          6           0        6.815614   -3.231008   -2.032409
     10          8           0        5.705095   -3.061015   -2.537831
     11          6           0        8.153691   -5.425713   -2.341148
     12          6           0        8.592436   -5.479250   -0.876895
     13          8           0        9.287680   -4.592706   -0.345410
     14          8           0        8.205120   -6.492043   -0.254932
     15          1           0        6.755974   -4.539616   -4.475561
     16          1           0        8.801698   -3.446662   -2.641886
     17          1           0        9.029583   -5.717976   -2.908153
     18          1           0        7.297237   -6.106962   -2.421672
     19          7           0        7.185995   -2.707746   -0.867371
     20          6           0        6.368326   -1.844341   -0.041508
     21          6           0        5.207145   -2.526949    0.664187
     22          8           0        4.815413   -3.665660    0.411435
     23          6           0        5.959864   -0.591559   -0.825470
     24          6           0        7.139780    0.151898   -1.435528
     25          6           0        8.141925    0.677379   -0.408215
     26          6           0        9.182361    1.629538   -0.996166
     27          7           0       10.117488    0.898198   -1.866327
     28          1           0        8.116767   -2.962632   -0.563405
     29          1           0        6.995929   -1.533077    0.789774
     30          1           0        5.449258    0.115289   -0.171370
     31          1           0        5.169386   -0.856766   -1.522400
     32          1           0        6.678931    0.967094   -1.978919
     33          1           0        7.611126   -0.473326   -2.198698
     34          1           0        8.673872   -0.138039    0.083747
     35          1           0        7.618747    1.187643    0.398517
     36          1           0        9.740799    2.066068   -0.159931
     37          1           0        8.749215    2.479815   -1.515023
     38          1           0       10.593500    0.188648   -1.319928
     39          1           0        9.529512    0.463926   -2.566464
     40          1           0       10.782725    1.512971   -2.310414
     41          7           0        4.593989   -1.743922    1.553405
     42          6           0        3.514629   -2.261235    2.390943
     43          6           0        2.313159   -2.588304    1.516933
     44          8           0        1.870519   -3.730308    1.403814
     45          6           0        3.231928   -1.279852    3.524199
     46          6           0        4.437831   -0.781150    4.298598
     47          8           0        5.003374   -1.493456    5.155442
     48          8           0        4.822596    0.380917    4.065236
     49          1           0        4.989564   -0.853777    1.806708
     50          1           0        3.851814   -3.108403    2.985176
     51          1           0        2.652423   -1.782748    4.294374
     52          1           0        2.645869   -0.464313    3.101315
     53          7           0        1.840278   -1.545898    0.833431
     54          6           0        0.699963   -1.593651   -0.052515
     55          6           0       -0.515815   -2.426307    0.313909
     56          8           0       -0.923539   -3.280794   -0.465779
     57          1           0        2.135351   -0.585580    0.957215
     58          1           0        1.029006   -1.979734   -1.017332
     59          1           0        0.299586   -0.589544   -0.188407
     60          7           0       -1.132199   -2.308096    1.497081
     61          6           0       -2.014864   -3.330368    2.023448
     62          6           0       -3.452888   -3.259546    1.532356
     63          8           0       -4.124796   -2.232568    1.629591
     64          6           0       -1.998481   -3.304204    3.549013
     65          6           0       -2.648662   -4.575541    4.071190
     66          7           0       -2.109609   -5.731156    3.676125
     67          8           0       -3.675079   -4.502218    4.742153
     68          1           0       -0.848512   -1.574534    2.129149
     69          1           0       -1.528034   -4.226885    1.634792
     70          1           0       -2.506144   -2.458933    4.014088
     71          1           0       -0.963905   -3.300717    3.896202
     72          1           0       -1.383532   -5.822875    2.971143
     73          1           0       -2.521760   -6.604249    3.971489
     74          7           0       -4.015105   -4.383606    1.092467
     75          6           0       -5.427422   -4.637135    0.926083
     76          6           0       -6.019116   -3.692313   -0.119579
     77          8           0       -5.710994   -3.692202   -1.311368
     78          1           0       -3.468607   -5.203593    0.873466
     79          1           0       -5.915116   -4.426537    1.872605
     80          1           0       -5.660736   -5.660861    0.623511
     81          7           0       -6.943640   -2.817431    0.276574
     82          6           0       -7.568133   -1.801410   -0.544468
     83          6           0       -6.651575   -0.742981   -1.148578
     84          8           0       -7.132261    0.135517   -1.853831
     85          6           0       -8.533504   -2.386698   -1.584850
     86          6           0       -9.870790   -2.834275   -1.065292
     87          6           0       -9.916882   -3.978970   -0.256867
     88          6           0      -11.048007   -2.097823   -1.282314
     89          6           0      -11.141050   -4.434067    0.255771
     90          6           0      -12.260004   -2.582101   -0.770224
     91          6           0      -12.350783   -3.761776   -0.003982
     92          8           0      -13.565492   -4.154401    0.494242
     93          1           0       -7.270701   -2.971653    1.225071
     94          1           0       -8.170183   -1.187683    0.117783
     95          1           0       -8.043364   -3.186175   -2.140456
     96          1           0       -8.793293   -1.607797   -2.299289
     97          1           0       -9.023029   -4.502414    0.024439
     98          1           0      -11.033344   -1.209846   -1.891973
     99          1           0      -11.194069   -5.327495    0.851317
    100          1           0      -13.110025   -1.940196   -0.911725
    101          1           0      -14.300051   -3.570286    0.337613
    102          7           0       -5.371695   -0.832643   -0.794363
    103          6           0       -4.237068    0.048982   -1.008746
    104          6           0       -4.292492    1.465428   -0.477042
    105          8           0       -3.356226    1.884137    0.210773
    106          6           0       -3.935928    0.004042   -2.511375
    107          6           0       -3.409587   -1.376610   -2.884156
    108          6           0       -3.044029    1.158622   -2.943884
    109          6           0       -3.248333   -1.568951   -4.388982
    110          1           0       -5.197887   -1.490487   -0.041813
    111          1           0       -3.428843   -0.463195   -0.491981
    112          1           0       -4.872840    0.061990   -3.048532
    113          1           0       -4.171619   -2.067893   -2.522997
    114          1           0       -2.489815   -1.531317   -2.319723
    115          1           0       -2.996602    1.216070   -4.037434
    116          1           0       -3.615251    2.009948   -2.570590
    117          1           0       -2.044299    1.047047   -2.535485
    118          1           0       -2.793970   -2.533226   -4.627789
    119          1           0       -4.219246   -1.478039   -4.881896
    120          1           0       -2.562490   -0.833096   -4.801216
    121          7           0       -5.419443    2.150413   -0.669075
    122          6           0       -5.829369    3.382603   -0.023886
    123          6           0       -5.091655    4.630904   -0.477453
    124          8           0       -5.020615    5.550229    0.320667
    125          6           0       -7.345517    3.565219    0.008471
    126          8           0       -7.944376    2.614039    0.862710
    127          1           0       -6.076371    1.703166   -1.297259
    128          1           0       -5.425124    3.313031    0.980528
    129          1           0       -7.903060    3.442693   -0.923158
    130          1           0       -7.535699    4.525645    0.480288
    131          1           0       -8.820447    2.457674    0.498087
    132          7           0       -4.517792    4.663258   -1.681170
    133          6           0       -3.773385    5.769368   -2.260979
    134          6           0       -2.742987    6.352644   -1.311522
    135          8           0       -2.672810    7.564264   -1.134178
    136          6           0       -4.706218    6.770493   -2.932671
    137          1           0       -4.556006    3.832238   -2.255405
    138          1           0       -3.298863    5.343068   -3.145059
    139          1           0       -5.325238    7.283151   -2.192337
    140          1           0       -4.142739    7.482729   -3.527577
    141          1           0       -5.385361    6.169669   -3.540351
    142          7           0       -1.988511    5.499293   -0.608985
    143          6           0       -0.921571    5.962261    0.259289
    144          6           0        0.431163    5.379217   -0.145026
    145          8           0        0.677176    4.212468   -0.433774
    146          6           0       -1.323407    5.583029    1.675096
    147          1           0       -1.978372    4.520927   -0.839633
    148          1           0       -0.770905    7.040984    0.177095
    149          1           0       -2.326402    5.955810    1.883268
    150          1           0       -1.168551    4.510400    1.831580
    151          1           0       -0.577337    6.039736    2.319531
    152          7           0        1.368075    6.322175    0.012541
    153          6           0        2.786983    6.140791   -0.237858
    154          6           0        3.107453    6.045480   -1.731048
    155          8           0        4.044337    5.335849   -2.075827
    156          6           0        3.532875    5.170654    0.653590
    157          6           0        3.233470    5.377712    2.138475
    158          6           0        3.971087    4.484508    3.128984
    159          8           0        3.513479    3.392051    3.512173
    160          8           0        5.021325    4.812216    3.712256
    161          1           0        1.120893    7.248350    0.312377
    162          1           0        3.204160    7.096990    0.080023
    163          1           0        4.614441    5.100517    0.490513
    164          1           0        3.238029    4.140501    0.421534
    165          1           0        2.171905    5.249902    2.337835
    166          1           0        3.573491    6.400748    2.293017
    167          7           0        2.286563    6.668175   -2.574960
    168          6           0        2.412101    6.545424   -4.016685
    169          1           0        3.461466    6.415066   -4.279435
    170          1           0        1.842180    5.681914   -4.359850
    171          1           0        2.027651    7.447439   -4.493723
    172          1           0        1.573613    7.279105   -2.219619
    173         20           0        4.777169    2.498587    5.616884
    174          8           0        7.180247    2.490590    4.488278
    175          1           0        7.265731    2.790021    3.580460
    176          1           0        8.011036    2.723194    4.896916
 ---------------------------------------------------------------------

 SCF Done:  E(RB3LYP) =  -5333.34897142     A.U. after   36 cycles

 The electronic state is 1-A.
 Alpha  occ. eigenvalues -- -145.48078 -19.20638 -19.16003 -19.12272 -19.10987
 Alpha  occ. eigenvalues --  -19.10964 -19.09944 -19.09933 -19.09602 -19.09319
 Alpha  occ. eigenvalues --  -19.08786 -19.08545 -19.08521 -19.08349 -19.07712
 Alpha  occ. eigenvalues --  -19.06746 -19.06373 -19.06368 -19.06248 -19.06194
 Alpha  occ. eigenvalues --  -19.06162 -19.03655 -19.00145 -18.99574 -15.53987
 Alpha  occ. eigenvalues --  -14.57334 -14.37184 -14.37150 -14.36457 -14.36270
 Alpha  occ. eigenvalues --  -14.35781 -14.35585 -14.35034 -14.34837 -14.34217
 Alpha  occ. eigenvalues --  -14.34067 -14.34005 -14.33459 -14.32444 -14.32247
 Alpha  occ. eigenvalues --  -12.67572 -12.67540 -12.67531 -10.34438 -10.29549
 Alpha  occ. eigenvalues --  -10.29006 -10.28750 -10.28748 -10.28686 -10.28227
 Alpha  occ. eigenvalues --  -10.27568 -10.27498 -10.27396 -10.27050 -10.26969
 Alpha  occ. eigenvalues --  -10.26568 -10.25907 -10.25821 -10.25664 -10.25220
 Alpha  occ. eigenvalues --  -10.24912 -10.24868 -10.24589 -10.24303 -10.24289
 Alpha  occ. eigenvalues --  -10.23644 -10.23626 -10.23465 -10.23445 -10.23114
 Alpha  occ. eigenvalues --  -10.22821 -10.22783 -10.22460 -10.22074 -10.21429
 Alpha  occ. eigenvalues --  -10.21010 -10.20261 -10.20184 -10.18948 -10.18890
 Alpha  occ. eigenvalues --  -10.18822 -10.18789 -10.18689 -10.18678 -10.18635
 Alpha  occ. eigenvalues --  -10.18607 -10.18257 -10.17766 -10.17711 -10.17683
 Alpha  occ. eigenvalues --  -10.17672 -10.16955 -10.16886 -10.16872 -10.15401
 Alpha  occ. eigenvalues --  -10.14890 -10.12949  -1.90613  -1.17987  -1.17638
 Alpha  occ. eigenvalues --   -1.17571  -1.12657  -1.06639  -1.04422  -1.04364
 Alpha  occ. eigenvalues --   -1.03897  -1.03390  -1.02901  -1.02743  -1.02493
 Alpha  occ. eigenvalues --   -1.02383  -1.02002  -1.01946  -1.01500  -1.01037
 Alpha  occ. eigenvalues --   -1.00807  -1.00752  -1.00224  -0.99869  -0.99668
 Alpha  occ. eigenvalues --   -0.98710  -0.94365  -0.94256  -0.93377  -0.92867
 Alpha  occ. eigenvalues --   -0.92615  -0.92408  -0.91720  -0.91519  -0.91259
 Alpha  occ. eigenvalues --   -0.91112  -0.90566  -0.90397  -0.90049  -0.90032
 Alpha  occ. eigenvalues --   -0.89786  -0.89268  -0.88709  -0.87715  -0.84573
 Alpha  occ. eigenvalues --   -0.84334  -0.81033  -0.80509  -0.80406  -0.79574
 Alpha  occ. eigenvalues --   -0.78474  -0.77977  -0.77390  -0.76326  -0.75235
 Alpha  occ. eigenvalues --   -0.75115  -0.75007  -0.73945  -0.73768  -0.73767
 Alpha  occ. eigenvalues --   -0.72934  -0.72451  -0.72201  -0.71531  -0.71425
 Alpha  occ. eigenvalues --   -0.70269  -0.69984  -0.69285  -0.68908  -0.67658
 Alpha  occ. eigenvalues --   -0.66335  -0.65645  -0.65056  -0.64455  -0.64088
 Alpha  occ. eigenvalues --   -0.63114  -0.62466  -0.62289  -0.61673  -0.61401
 Alpha  occ. eigenvalues --   -0.61288  -0.60816  -0.60707  -0.60429  -0.59996
 Alpha  occ. eigenvalues --   -0.59861  -0.59828  -0.59591  -0.59292  -0.58658
 Alpha  occ. eigenvalues --   -0.58605  -0.58056  -0.57865  -0.57705  -0.57180
 Alpha  occ. eigenvalues --   -0.56191  -0.55603  -0.55361  -0.55326  -0.55079
 Alpha  occ. eigenvalues --   -0.54781  -0.54294  -0.54115  -0.54039  -0.53672
 Alpha  occ. eigenvalues --   -0.53037  -0.53022  -0.52375  -0.51791  -0.51399
 Alpha  occ. eigenvalues --   -0.51276  -0.51083  -0.50688  -0.50222  -0.50159
 Alpha  occ. eigenvalues --   -0.49622  -0.49409  -0.49250  -0.48731  -0.48340
 Alpha  occ. eigenvalues --   -0.47964  -0.47703  -0.47648  -0.47464  -0.47112
 Alpha  occ. eigenvalues --   -0.46947  -0.46799  -0.46777  -0.46486  -0.46377
 Alpha  occ. eigenvalues --   -0.46058  -0.45632  -0.45549  -0.45445  -0.45344
 Alpha  occ. eigenvalues --   -0.44890  -0.44861  -0.44731  -0.44449  -0.44338
 Alpha  occ. eigenvalues --   -0.44131  -0.44003  -0.43873  -0.43696  -0.43649
 Alpha  occ. eigenvalues --   -0.43508  -0.43366  -0.43338  -0.43023  -0.42943
 Alpha  occ. eigenvalues --   -0.42786  -0.42707  -0.42453  -0.42187  -0.42153
 Alpha  occ. eigenvalues --   -0.42004  -0.41959  -0.41625  -0.41380  -0.41173
 Alpha  occ. eigenvalues --   -0.41038  -0.40956  -0.40742  -0.40706  -0.40636
 Alpha  occ. eigenvalues --   -0.40506  -0.40442  -0.40388  -0.40200  -0.40103
 Alpha  occ. eigenvalues --   -0.39808  -0.39776  -0.39578  -0.39452  -0.39358
 Alpha  occ. eigenvalues --   -0.39212  -0.39137  -0.39103  -0.38886  -0.38738
 Alpha  occ. eigenvalues --   -0.38645  -0.38442  -0.38380  -0.38171  -0.37992
 Alpha  occ. eigenvalues --   -0.37843  -0.37793  -0.37664  -0.37569  -0.37241
 Alpha  occ. eigenvalues --   -0.37150  -0.37033  -0.36911  -0.36873  -0.36759
 Alpha  occ. eigenvalues --   -0.36440  -0.36281  -0.36063  -0.35925  -0.35785
 Alpha  occ. eigenvalues --   -0.35689  -0.35675  -0.35376  -0.35133  -0.35053
 Alpha  occ. eigenvalues --   -0.34686  -0.34606  -0.34533  -0.34499  -0.34347
 Alpha  occ. eigenvalues --   -0.34229  -0.33691  -0.33197  -0.32970  -0.32850
 Alpha  occ. eigenvalues --   -0.32825  -0.32667  -0.32164  -0.31923  -0.30923
 Alpha  occ. eigenvalues --   -0.30345  -0.29760  -0.29247  -0.29098  -0.28900
 Alpha  occ. eigenvalues --   -0.28051  -0.27686  -0.27509  -0.27307  -0.26875
 Alpha  occ. eigenvalues --   -0.26717  -0.26609  -0.26554  -0.26490  -0.26207
 Alpha  occ. eigenvalues --   -0.25707  -0.25602  -0.25356  -0.25167  -0.25086
 Alpha  occ. eigenvalues --   -0.25032  -0.24845  -0.24691  -0.24653  -0.24359
 Alpha  occ. eigenvalues --   -0.24000  -0.23916  -0.23828  -0.23595  -0.23386
 Alpha  occ. eigenvalues --   -0.23207  -0.22941  -0.22766  -0.22615  -0.22085
 Alpha  occ. eigenvalues --   -0.22031  -0.21949  -0.21147  -0.20773  -0.19532
 Alpha  occ. eigenvalues --   -0.17144  -0.16680  -0.14152
 Alpha virt. eigenvalues --   -0.13244  -0.08875  -0.03308  -0.03134  -0.01863
 Alpha virt. eigenvalues --   -0.01409  -0.00411  -0.00342   0.00170   0.00359
 Alpha virt. eigenvalues --    0.00597   0.00839   0.01018   0.01358   0.01642

 Mulliken charges:
               1
     1  C    0.079799
     2  C    0.008845
     3  O   -0.324026
     4  H   -0.002670
     5  H    0.029284
     6  H    0.030227
     7  N   -0.116409
     8  C    0.071874
     9  C    0.088376
    10  O   -0.288558
    11  C    0.099290
    12  C    0.047099
    13  O   -0.385260
    14  O   -0.302046
    15  H    0.120699
    16  H   -0.032774
    17  H    0.003185
    18  H    0.004377
    19  N   -0.126633
    20  C    0.081555
    21  C    0.116605
    22  O   -0.213980
    23  C    0.049768
    24  C    0.020425
    25  C   -0.055788
    26  C    0.026162
    27  N    0.076431
    28  H    0.109261
    29  H   -0.004121
    30  H   -0.014901
    31  H    0.038217
    32  H    0.015189
    33  H    0.012340
    34  H    0.039220
    35  H    0.043027
    36  H    0.058738
    37  H    0.076719
    38  H    0.206444
    39  H    0.198355
    40  H    0.194255
    41  N   -0.169719
    42  C    0.097831
    43  C    0.099925
    44  O   -0.238336
    45  C    0.108862
    46  C    0.025181
    47  O   -0.330325
    48  O   -0.462931
    49  H    0.117820
    50  H    0.018974
    51  H    0.004392
    52  H   -0.042487
    53  N   -0.146508
    54  C    0.212082
    55  C    0.038869
    56  O   -0.276980
    57  H    0.127479
    58  H    0.036391
    59  H    0.028045
    60  N   -0.119541
    61  C    0.076530
    62  C    0.140336
    63  O   -0.300843
    64  C    0.097702
    65  C   -0.023790
    66  N   -0.064245
    67  O   -0.245136
    68  H    0.113363
    69  H   -0.003132
    70  H    0.031390
    71  H    0.031438
    72  H    0.133003
    73  H    0.126067
    74  N   -0.114399
    75  C    0.240506
    76  C   -0.001498
    77  O   -0.263881
    78  H    0.127867
    79  H    0.004788
    80  H    0.041574
    81  N   -0.136021
    82  C    0.133591
    83  C    0.089080
    84  O   -0.315108
    85  C    0.164766
    86  C   -0.059306
    87  C    0.002274
    88  C    0.001555
    89  C   -0.037748
    90  C   -0.055934
    91  C    0.207488
    92  O   -0.202799
    93  H    0.126530
    94  H    0.012828
    95  H    0.025441
    96  H   -0.008376
    97  H   -0.051179
    98  H   -0.030637
    99  H   -0.031998
   100  H   -0.049670
   101  H    0.173791
   102  N   -0.117035
   103  C    0.203204
   104  C    0.017134
   105  O   -0.276171
   106  C   -0.200244
   107  C    0.014310
   108  C    0.133582
   109  C    0.048541
   110  H    0.157516
   111  H   -0.005606
   112  H   -0.010986
   113  H    0.022391
   114  H   -0.013805
   115  H    0.002540
   116  H   -0.031698
   117  H    0.013477
   118  H    0.012628
   119  H    0.000857
   120  H   -0.011465
   121  N   -0.142686
   122  C    0.143079
   123  C    0.041559
   124  O   -0.270754
   125  C    0.233147
   126  O   -0.313871
   127  H    0.125574
   128  H    0.026051
   129  H   -0.002453
   130  H    0.007981
   131  H    0.160714
   132  N   -0.134834
   133  C    0.056276
   134  C    0.082549
   135  O   -0.271364
   136  C    0.085434
   137  H    0.124834
   138  H    0.004427
   139  H    0.032132
   140  H    0.016635
   141  H   -0.012882
   142  N   -0.125017
   143  C    0.054334
   144  C    0.083753
   145  O   -0.254466
   146  C    0.101485
   147  H    0.125378
   148  H   -0.012184
   149  H    0.058394
   150  H    0.027907
   151  H   -0.023113
   152  N   -0.163894
   153  C    0.101099
   154  C    0.073442
   155  O   -0.272517
   156  C    0.026716
   157  C    0.111555
   158  C    0.060179
   159  O   -0.445130
   160  O   -0.413270
   161  H    0.126864
   162  H   -0.003661
   163  H   -0.003238
   164  H    0.017859
   165  H    0.008881
   166  H   -0.027491
   167  N   -0.145384
   168  C    0.129759
   169  H    0.034896
   170  H    0.034564
   171  H    0.016457
   172  H    0.109646
   173  Ca   1.247464
   174  O   -0.288435
   175  H    0.190106
   176  H    0.172506
 Sum of Mulliken charges =  -0.00000

 Dipole moment (field-independent basis, Debye):
    X=             10.1206    Y=             25.5282    Z=              2.2362  Tot=             27.5521
 Quadrupole moment (field-independent basis, Debye-Ang):
   XX=           -372.1050   YY=           -647.5256   ZZ=           -487.1415
   XY=            248.6165   XZ=             14.4100   YZ=              8.6724

 ESP charges:
               1
     1  C   -0.461258
     2  C    0.819185
     3  O   -0.635229
     4  H    0.108206
     5  H    0.124304
     6  H    0.121814
     7  N   -0.827686
     8  C    0.623519
     9  C    0.443712
    10  O   -0.525119
    11  C   -0.481202
    12  C    0.764233
    13  O   -0.700037
    14  O   -0.600785
    15  H    0.353247
    16  H   -0.083197
    17  H    0.122380
    18  H    0.114125
    19  N   -0.562954
    20  C    0.278983
    21  C    0.470453
    22  O   -0.426493
    23  C   -0.232511
    24  C    0.263141
    25  C   -0.367288
    26  C    0.136152
    27  N   -0.496280
    28  H    0.279514
    29  H    0.013574
    30  H    0.010955
    31  H    0.098002
    32  H   -0.003350
    33  H   -0.058668
    34  H    0.111994
    35  H    0.142697
    36  H    0.061345
    37  H    0.073834
    38  H    0.387117
    39  H    0.363738
    40  H    0.365992
    41  N   -0.353873
    42  C   -0.184050
    43  C    0.554428
    44  O   -0.501004
    45  C   -0.044271
    46  C    0.670430
    47  O   -0.647963
    48  O   -0.723133
    49  H    0.254634
    50  H    0.141341
    51  H    0.027207
    52  H   -0.035586
    53  N   -0.364402
    54  C   -0.109338
    55  C    0.888610
    56  O   -0.626245
    57  H    0.301688
    58  H    0.095465
    59  H    0.047118
    60  N   -0.817183
    61  C    0.361183
    62  C    0.586430
    63  O   -0.524927
    64  C   -0.319798
    65  C    0.698155
    66  N   -0.832142
    67  O   -0.559457
    68  H    0.345954
    69  H    0.010814
    70  H    0.103442
    71  H    0.105851
    72  H    0.368494
    73  H    0.370892
    74  N   -0.443222
    75  C   -0.170549
    76  C    0.611921
    77  O   -0.524134
    78  H    0.300668
    79  H    0.094094
    80  H    0.139480
    81  N   -0.604501
    82  C    0.222855
    83  C    0.337258
    84  O   -0.501420
    85  C   -0.103404
    86  C    0.011387
    87  C   -0.101392
    88  C   -0.107218
    89  C   -0.308144
    90  C   -0.352050
    91  C    0.443918
    92  O   -0.580470
    93  H    0.325903
    94  H    0.048343
    95  H    0.098214
    96  H    0.032898
    97  H    0.102819
    98  H    0.136611
    99  H    0.162219
   100  H    0.140080
   101  H    0.421484
   102  N   -0.118207
   103  C   -0.332752
   104  C    0.716116
   105  O   -0.571970
   106  C    0.402989
   107  C    0.442248
   108  C   -0.459152
   109  C   -0.355769
   110  H    0.203768
   111  H    0.080642
   112  H   -0.075300
   113  H   -0.105881
   114  H   -0.159421
   115  H    0.085744
   116  H    0.088071
   117  H    0.107630
   118  H    0.080020
   119  H    0.060050
   120  H    0.056354
   121  N   -0.481233
   122  C    0.122201
   123  C    0.252852
   124  O   -0.438333
   125  C    0.145400
   126  O   -0.597385
   127  H    0.251140
   128  H    0.126502
   129  H    0.028381
   130  H    0.040987
   131  H    0.396688
   132  N   -0.307982
   133  C    0.421218
   134  C    0.299393
   135  O   -0.486436
   136  C   -0.338289
   137  H    0.197486
   138  H   -0.013043
   139  H    0.106577
   140  H    0.083817
   141  H    0.059888
   142  N   -0.488641
   143  C    0.645802
   144  C    0.172410
   145  O   -0.396528
   146  C   -0.258473
   147  H    0.197250
   148  H   -0.101330
   149  H    0.100565
   150  H    0.088797
   151  H   -0.014079
   152  N   -0.209468
   153  C   -0.471132
   154  C    0.555246
   155  O   -0.525676
   156  C    0.640463
   157  C   -0.529660
   158  C    0.870678
   159  O   -0.763110
   160  O   -0.784835
   161  H    0.273940
   162  H    0.109456
   163  H   -0.097004
   164  H   -0.065158
   165  H    0.134558
   166  H    0.082497
   167  N   -0.267221
   168  C   -0.130591
   169  H    0.077131
   170  H    0.093011
   171  H    0.074819
   172  H    0.234001
   173  Ca   1.379642
   174  O   -0.777948
   175  H    0.424570
   176  H    0.398438
 Sum of ESP charges =  -0.00000

 Normal termination of Gaussian 16 at Tue Sep 17 10:21:24 2019.
