 Gaussian 16, Revision A.03,
 Gaussian 16:  ES64L-G16RevA.03 25-Dec-2016

 ----------------------------------------------------------------------
 #b3lyp/svp scf=(tight,noincore) Test #IOP(5/87=12) Density=Current Pop
 =(MK,readradii) iop(6/33=2) iop(6/42=6)
 ----------------------------------------------------------------------

 -----------------
 Ng-293_loop3_80.0
 -----------------
 Symbolic Z-matrix:
 Charge =  0 Multiplicity = 1

                         Standard orientation:
 ---------------------------------------------------------------------
 Center     Atomic      Atomic             Coordinates (Angstroms)
 Number     Number       Type             X           Y           Z
 ---------------------------------------------------------------------
      1          6           0        7.917016    3.406114    5.563557
      2          6           0        8.635038    3.591283    4.237111
      3          8           0        9.788536    3.147444    4.158066
      4          1           0        8.521994    2.780337    6.219198
      5          1           0        7.761183    4.377861    6.032106
      6          1           0        6.953297    2.925453    5.391861
      7          7           0        8.077557    4.220647    3.209971
      8          6           0        8.746993    4.175748    1.922361
      9          6           0        8.450539    2.824526    1.281804
     10          8           0        7.401938    2.223251    1.480564
     11          6           0        8.443542    5.349483    0.997827
     12          6           0        6.964789    5.629548    0.765765
     13          8           0        6.232348    6.014430    1.696945
     14          8           0        6.510984    5.490189   -0.390669
     15          1           0        7.118123    4.527267    3.244185
     16          1           0        9.806266    4.158407    2.150920
     17          1           0        9.043697    5.251249    0.095516
     18          1           0        8.795124    6.214890    1.563918
     19          7           0        9.295346    2.511739    0.295160
     20          6           0        9.264014    1.356950   -0.575232
     21          6           0        8.163065    1.180906   -1.610181
     22          8           0        8.417280    0.902408   -2.782364
     23          6           0        9.399383    0.115872    0.296262
     24          6           0       10.000755   -1.015384   -0.523806
     25          6           0       10.424059   -2.207697    0.327312
     26          6           0       11.213971   -3.236228   -0.492909
     27          7           0       11.642165   -4.311852    0.417028
     28          1           0       10.237153    2.887914    0.369942
     29          1           0       10.187702    1.416914   -1.150129
     30          1           0        8.446337   -0.237990    0.700099
     31          1           0       10.107110    0.250120    1.122094
     32          1           0       10.894554   -0.699011   -1.069363
     33          1           0        9.283582   -1.421248   -1.235030
     34          1           0        9.552650   -2.664591    0.784253
     35          1           0       11.073550   -1.805032    1.110013
     36          1           0       12.101625   -2.917320   -1.025982
     37          1           0       10.469442   -3.674565   -1.162936
     38          1           0       10.796606   -4.735526    0.783812
     39          1           0       12.160408   -5.008737   -0.091574
     40          1           0       12.205817   -4.004738    1.200914
     41          7           0        6.929542    1.119062   -1.099302
     42          6           0        5.758614    0.595971   -1.769750
     43          6           0        4.497661    1.434795   -1.591505
     44          8           0        4.040431    1.673062   -0.479044
     45          6           0        5.577347   -0.806214   -1.213673
     46          6           0        4.932742   -1.848819   -2.104323
     47          8           0        4.548086   -1.529055   -3.255883
     48          8           0        4.947850   -3.069590   -1.808872
     49          1           0        6.856855    1.334735   -0.113401
     50          1           0        5.959417    0.621062   -2.837621
     51          1           0        5.063253   -0.819123   -0.254433
     52          1           0        6.582529   -1.219918   -1.083448
     53          7           0        3.856711    1.780136   -2.706190
     54          6           0        2.587452    2.460481   -2.828304
     55          6           0        1.435187    1.801071   -2.083948
     56          8           0        1.469346    0.622300   -1.747594
     57          1           0        4.317054    1.546246   -3.577672
     58          1           0        2.233613    2.585638   -3.853064
     59          1           0        2.744331    3.463933   -2.450187
     60          7           0        0.298368    2.475382   -1.875270
     61          6           0       -0.829967    1.999878   -1.108421
     62          6           0       -2.143091    2.524466   -1.693153
     63          8           0       -3.100741    1.760731   -1.761103
     64          6           0       -0.785998    2.284501    0.385552
     65          6           0        0.400810    1.581029    1.024548
     66          7           0        1.427856    2.333743    1.433325
     67          8           0        0.456759    0.374719    1.225009
     68          1           0        0.209655    3.320788   -2.411104
     69          1           0       -0.923231    0.919068   -1.175139
     70          1           0       -1.763634    1.965996    0.762092
     71          1           0       -0.790698    3.362221    0.532852
     72          1           0        1.478537    3.276941    1.074426
     73          1           0        2.286278    1.868359    1.702081
     74          7           0       -2.191861    3.815710   -2.035511
     75          6           0       -3.379401    4.637130   -2.162073
     76          6           0       -4.365526    4.414188   -1.024025
     77          8           0       -4.072156    4.295119    0.162001
     78          1           0       -1.277346    4.240932   -2.008160
     79          1           0       -3.877182    4.296550   -3.066959
     80          1           0       -3.119072    5.692394   -2.264283
     81          7           0       -5.635933    4.269778   -1.403777
     82          6           0       -6.708415    3.739543   -0.582294
     83          6           0       -6.570785    2.329338   -0.019817
     84          8           0       -7.622439    1.785408    0.277950
     85          6           0       -6.978783    4.775736    0.516161
     86          6           0       -7.137763    6.200913    0.036268
     87          6           0       -6.190489    7.200056    0.275609
     88          6           0       -8.331853    6.625776   -0.557734
     89          6           0       -6.371727    8.527971   -0.123385
     90          6           0       -8.575380    7.948330   -0.922214
     91          6           0       -7.595876    8.934050   -0.696324
     92          8           0       -7.761897   10.224313   -1.088191
     93          1           0       -5.830101    4.278131   -2.390300
     94          1           0       -7.598181    3.812188   -1.203292
     95          1           0       -6.294611    4.631990    1.354818
     96          1           0       -7.939151    4.599938    0.992383
     97          1           0       -5.275797    6.885811    0.773693
     98          1           0       -9.105561    5.910704   -0.761322
     99          1           0       -5.624128    9.304363   -0.073284
    100          1           0       -9.479142    8.183056   -1.470865
    101          1           0       -8.626281   10.373382   -1.471881
    102          7           0       -5.347312    1.811929    0.134786
    103          6           0       -4.945193    0.553971    0.740461
    104          6           0       -5.495398   -0.684952    0.056325
    105          8           0       -4.712589   -1.574108   -0.250939
    106          6           0       -5.145172    0.565014    2.250026
    107          6           0       -4.430581    1.741649    2.899558
    108          6           0       -4.660898   -0.752240    2.844099
    109          6           0       -5.016549    2.070570    4.274713
    110          1           0       -4.560611    2.434618    0.075131
    111          1           0       -3.853435    0.473679    0.693372
    112          1           0       -6.227919    0.716473    2.359197
    113          1           0       -4.577622    2.636583    2.300916
    114          1           0       -3.377771    1.526846    3.108964
    115          1           0       -4.792498   -0.612293    3.920526
    116          1           0       -5.301109   -1.604315    2.613887
    117          1           0       -3.629306   -0.957039    2.576378
    118          1           0       -6.090422    2.175169    4.117378
    119          1           0       -4.895643    1.267592    4.994024
    120          1           0       -4.476690    2.945440    4.643163
    121          7           0       -6.782518   -0.816179   -0.302287
    122          6           0       -7.219840   -1.939274   -1.106593
    123          6           0       -7.176643   -3.310327   -0.430320
    124          8           0       -7.065803   -4.324709   -1.115042
    125          6           0       -8.574663   -1.622446   -1.717719
    126          8           0       -8.770138   -0.276146   -2.087401
    127          1           0       -7.345100   -0.018829   -0.052221
    128          1           0       -6.579577   -2.073106   -1.973918
    129          1           0       -9.426769   -1.918861   -1.099614
    130          1           0       -8.640147   -2.212304   -2.631547
    131          1           0       -9.620511   -0.126571   -2.512363
    132          7           0       -7.242240   -3.273622    0.899849
    133          6           0       -7.271570   -4.464607    1.728159
    134          6           0       -6.280751   -5.571995    1.423416
    135          8           0       -6.585188   -6.758704    1.402433
    136          6           0       -8.713916   -4.938395    1.659128
    137          1           0       -7.246758   -2.346745    1.302191
    138          1           0       -7.043417   -4.155633    2.747071
    139          1           0       -8.827502   -5.768553    2.356648
    140          1           0       -9.447935   -4.188453    1.954597
    141          1           0       -8.918084   -5.357548    0.666391
    142          7           0       -5.080846   -5.139720    1.005006
    143          6           0       -4.039818   -6.017335    0.502063
    144          6           0       -2.645685   -5.699696    1.027704
    145          8           0       -2.350716   -4.566165    1.391299
    146          6           0       -4.022593   -5.876963   -1.024076
    147          1           0       -4.939568   -4.147318    0.880992
    148          1           0       -4.278610   -7.050611    0.730577
    149          1           0       -3.287313   -6.558328   -1.436999
    150          1           0       -5.050559   -6.147867   -1.298844
    151          1           0       -3.803742   -4.835334   -1.264103
    152          7           0       -1.818514   -6.739749    1.133431
    153          6           0       -0.432362   -6.593610    1.513731
    154          6           0       -0.240187   -6.151771    2.960606
    155          8           0        0.827474   -5.766526    3.431971
    156          6           0        0.397545   -5.699099    0.594981
    157          6           0        0.264139   -6.203034   -0.842396
    158          6           0        1.144861   -5.404749   -1.788688
    159          8           0        2.334297   -5.188769   -1.503389
    160          8           0        0.724893   -5.151586   -2.936092
    161          1           0       -2.151755   -7.663646    0.892674
    162          1           0       -0.075391   -7.624649    1.450251
    163          1           0        1.429550   -5.717824    0.930565
    164          1           0        0.009547   -4.692794    0.720312
    165          1           0       -0.780457   -6.216649   -1.153576
    166          1           0        0.586844   -7.238422   -0.953906
    167          7           0       -1.313836   -6.130873    3.749683
    168          6           0       -1.449117   -5.789964    5.151995
    169          1           0       -0.713837   -6.346709    5.732784
    170          1           0       -1.282295   -4.720626    5.284492
    171          1           0       -2.451357   -6.046812    5.494285
    172          1           0       -2.160341   -6.546120    3.377259
    173         20           0        3.349786   -4.018496   -3.620520
    174          8           0        2.803604   -6.045648   -5.039829
    175          1           0        2.522040   -6.051033   -5.954429
    176          1           0        2.726826   -6.952743   -4.757190
 ---------------------------------------------------------------------

 SCF Done:  E(RB3LYP) =  -5333.37591927     A.U. after   34 cycles

 The electronic state is 1-A.
 Alpha  occ. eigenvalues -- -145.44411 -19.22705 -19.16506 -19.11946 -19.11580
 Alpha  occ. eigenvalues --  -19.10308 -19.09849 -19.08087 -19.07764 -19.07685
 Alpha  occ. eigenvalues --  -19.07362 -19.07227 -19.07084 -19.06943 -19.06734
 Alpha  occ. eigenvalues --  -19.06264 -19.06158 -19.05339 -19.04524 -19.04252
 Alpha  occ. eigenvalues --  -19.03975 -19.03917 -18.96270 -18.95867 -15.50378
 Alpha  occ. eigenvalues --  -14.56584 -14.37459 -14.36899 -14.34974 -14.34346
 Alpha  occ. eigenvalues --  -14.34328 -14.34003 -14.33749 -14.33664 -14.32668
 Alpha  occ. eigenvalues --  -14.32069 -14.31880 -14.31702 -14.30178 -14.29417
 Alpha  occ. eigenvalues --  -12.64003 -12.63944 -12.63865 -10.34196 -10.30317
 Alpha  occ. eigenvalues --  -10.28837 -10.28395 -10.26836 -10.26658 -10.26530
 Alpha  occ. eigenvalues --  -10.26461 -10.25953 -10.25833 -10.25800 -10.25657
 Alpha  occ. eigenvalues --  -10.25519 -10.25228 -10.25203 -10.25042 -10.24470
 Alpha  occ. eigenvalues --  -10.24044 -10.23917 -10.23161 -10.23089 -10.23004
 Alpha  occ. eigenvalues --  -10.22709 -10.22669 -10.22507 -10.22271 -10.22035
 Alpha  occ. eigenvalues --  -10.21392 -10.20963 -10.20949 -10.20455 -10.20434
 Alpha  occ. eigenvalues --  -10.20371 -10.19747 -10.18932 -10.18893 -10.18836
 Alpha  occ. eigenvalues --  -10.18743 -10.18656 -10.18479 -10.18213 -10.17830
 Alpha  occ. eigenvalues --  -10.17202 -10.16788 -10.16040 -10.15941 -10.15874
 Alpha  occ. eigenvalues --  -10.15809 -10.15696 -10.15320 -10.14951 -10.14883
 Alpha  occ. eigenvalues --  -10.14277 -10.11944  -1.87094  -1.14814  -1.14314
 Alpha  occ. eigenvalues --   -1.13928  -1.12287  -1.08656  -1.05359  -1.05247
 Alpha  occ. eigenvalues --   -1.03351  -1.02987  -1.01575  -1.01361  -1.01230
 Alpha  occ. eigenvalues --   -1.01101  -1.00974  -1.00447  -1.00133  -0.99968
 Alpha  occ. eigenvalues --   -0.99635  -0.99550  -0.99202  -0.98494  -0.97487
 Alpha  occ. eigenvalues --   -0.96966  -0.94117  -0.93885  -0.91657  -0.91562
 Alpha  occ. eigenvalues --   -0.91293  -0.91125  -0.91011  -0.90858  -0.90250
 Alpha  occ. eigenvalues --   -0.89697  -0.89451  -0.89295  -0.88675  -0.88669
 Alpha  occ. eigenvalues --   -0.87827  -0.87635  -0.86221  -0.84872  -0.84792
 Alpha  occ. eigenvalues --   -0.81238  -0.80492  -0.80450  -0.79459  -0.78128
 Alpha  occ. eigenvalues --   -0.77418  -0.76798  -0.76447  -0.75439  -0.74900
 Alpha  occ. eigenvalues --   -0.74537  -0.73941  -0.73338  -0.72902  -0.72880
 Alpha  occ. eigenvalues --   -0.72306  -0.71938  -0.71498  -0.70953  -0.70403
 Alpha  occ. eigenvalues --   -0.68484  -0.68017  -0.67016  -0.66906  -0.66642
 Alpha  occ. eigenvalues --   -0.65584  -0.64568  -0.64490  -0.63195  -0.62881
 Alpha  occ. eigenvalues --   -0.62272  -0.62024  -0.61834  -0.61501  -0.61114
 Alpha  occ. eigenvalues --   -0.60616  -0.60246  -0.59919  -0.59656  -0.59196
 Alpha  occ. eigenvalues --   -0.58772  -0.58306  -0.57986  -0.57564  -0.57207
 Alpha  occ. eigenvalues --   -0.56399  -0.56396  -0.56013  -0.55497  -0.55428
 Alpha  occ. eigenvalues --   -0.55147  -0.54883  -0.54809  -0.54373  -0.54288
 Alpha  occ. eigenvalues --   -0.54042  -0.53872  -0.53753  -0.53116  -0.52452
 Alpha  occ. eigenvalues --   -0.52356  -0.51688  -0.51288  -0.51008  -0.50750
 Alpha  occ. eigenvalues --   -0.50268  -0.49924  -0.49775  -0.49503  -0.49354
 Alpha  occ. eigenvalues --   -0.49126  -0.48997  -0.48620  -0.48040  -0.47244
 Alpha  occ. eigenvalues --   -0.47134  -0.46913  -0.46792  -0.46604  -0.46418
 Alpha  occ. eigenvalues --   -0.46274  -0.46042  -0.45987  -0.45775  -0.45444
 Alpha  occ. eigenvalues --   -0.45321  -0.45293  -0.45086  -0.45011  -0.44661
 Alpha  occ. eigenvalues --   -0.44532  -0.44124  -0.43871  -0.43726  -0.43590
 Alpha  occ. eigenvalues --   -0.43163  -0.42805  -0.42760  -0.42687  -0.42588
 Alpha  occ. eigenvalues --   -0.42425  -0.42271  -0.41972  -0.41915  -0.41728
 Alpha  occ. eigenvalues --   -0.41477  -0.41359  -0.41206  -0.41122  -0.41107
 Alpha  occ. eigenvalues --   -0.40663  -0.40657  -0.40480  -0.40392  -0.40316
 Alpha  occ. eigenvalues --   -0.40055  -0.40021  -0.39938  -0.39795  -0.39596
 Alpha  occ. eigenvalues --   -0.39547  -0.39241  -0.39078  -0.38933  -0.38916
 Alpha  occ. eigenvalues --   -0.38761  -0.38740  -0.38612  -0.38205  -0.38106
 Alpha  occ. eigenvalues --   -0.38044  -0.37899  -0.37825  -0.37688  -0.37536
 Alpha  occ. eigenvalues --   -0.37392  -0.37184  -0.37154  -0.36900  -0.36840
 Alpha  occ. eigenvalues --   -0.36485  -0.36266  -0.36125  -0.35928  -0.35808
 Alpha  occ. eigenvalues --   -0.35751  -0.35565  -0.35449  -0.35398  -0.35269
 Alpha  occ. eigenvalues --   -0.35185  -0.35126  -0.34707  -0.34550  -0.34294
 Alpha  occ. eigenvalues --   -0.34276  -0.34254  -0.34118  -0.33898  -0.33862
 Alpha  occ. eigenvalues --   -0.33641  -0.33448  -0.33216  -0.33166  -0.33136
 Alpha  occ. eigenvalues --   -0.33072  -0.32891  -0.32333  -0.32253  -0.31879
 Alpha  occ. eigenvalues --   -0.31672  -0.31557  -0.31123  -0.31007  -0.30830
 Alpha  occ. eigenvalues --   -0.30659  -0.28906  -0.28738  -0.27633  -0.26927
 Alpha  occ. eigenvalues --   -0.26731  -0.26605  -0.26523  -0.26192  -0.25932
 Alpha  occ. eigenvalues --   -0.25695  -0.25641  -0.25595  -0.25508  -0.25402
 Alpha  occ. eigenvalues --   -0.25075  -0.24365  -0.23966  -0.23843  -0.23801
 Alpha  occ. eigenvalues --   -0.23649  -0.23478  -0.23115  -0.22842  -0.22632
 Alpha  occ. eigenvalues --   -0.22557  -0.22475  -0.22259  -0.22118  -0.22023
 Alpha  occ. eigenvalues --   -0.21898  -0.21865  -0.21731  -0.21527  -0.21195
 Alpha  occ. eigenvalues --   -0.20967  -0.20750  -0.20287  -0.19762  -0.19495
 Alpha  occ. eigenvalues --   -0.13824  -0.13476  -0.10731
 Alpha virt. eigenvalues --   -0.09808  -0.07465  -0.03835  -0.03413  -0.01691
 Alpha virt. eigenvalues --   -0.01061  -0.00713  -0.00570   0.00101   0.00850
 Alpha virt. eigenvalues --    0.01938   0.02177   0.02499   0.02517   0.02849

 Mulliken charges:
               1
     1  C    0.075355
     2  C    0.011226
     3  O   -0.341882
     4  H    0.008663
     5  H    0.026157
     6  H    0.025380
     7  N   -0.098697
     8  C    0.062586
     9  C    0.108336
    10  O   -0.287141
    11  C    0.162446
    12  C    0.025536
    13  O   -0.372496
    14  O   -0.358019
    15  H    0.117489
    16  H   -0.020958
    17  H   -0.044713
    18  H   -0.007744
    19  N   -0.098071
    20  C    0.091148
    21  C    0.096640
    22  O   -0.289793
    23  C    0.050179
    24  C   -0.004588
    25  C   -0.056533
    26  C    0.052448
    27  N    0.121577
    28  H    0.123337
    29  H   -0.017614
    30  H    0.033113
    31  H   -0.000491
    32  H   -0.004143
    33  H    0.030234
    34  H    0.034458
    35  H    0.014037
    36  H    0.062948
    37  H    0.065706
    38  H    0.150365
    39  H    0.131400
    40  H    0.148863
    41  N   -0.145456
    42  C    0.145657
    43  C    0.119440
    44  O   -0.269308
    45  C    0.083896
    46  C    0.112036
    47  O   -0.432949
    48  O   -0.445825
    49  H    0.144386
    50  H   -0.021185
    51  H    0.055809
    52  H   -0.008096
    53  N   -0.105318
    54  C    0.193708
    55  C    0.034831
    56  O   -0.246908
    57  H    0.121291
    58  H    0.020412
    59  H    0.033242
    60  N   -0.152795
    61  C    0.095599
    62  C    0.023363
    63  O   -0.256062
    64  C    0.124459
    65  C    0.020449
    66  N   -0.039623
    67  O   -0.239741
    68  H    0.088986
    69  H    0.049407
    70  H    0.013842
    71  H   -0.031956
    72  H    0.106072
    73  H    0.147998
    74  N   -0.133105
    75  C    0.246033
    76  C    0.038577
    77  O   -0.305626
    78  H    0.107636
    79  H    0.006544
    80  H    0.049217
    81  N   -0.105955
    82  C    0.098401
    83  C    0.131584
    84  O   -0.301950
    85  C    0.129446
    86  C   -0.008918
    87  C   -0.011031
    88  C   -0.032445
    89  C   -0.007214
    90  C   -0.043945
    91  C    0.150644
    92  O   -0.188229
    93  H    0.119736
    94  H    0.000772
    95  H    0.013111
    96  H    0.007834
    97  H   -0.013839
    98  H   -0.037141
    99  H   -0.025300
   100  H   -0.046783
   101  H    0.173247
   102  N   -0.113984
   103  C    0.164931
   104  C    0.042438
   105  O   -0.265447
   106  C   -0.159342
   107  C   -0.006833
   108  C    0.118869
   109  C    0.030490
   110  H    0.171239
   111  H    0.018654
   112  H   -0.019323
   113  H    0.003732
   114  H    0.014503
   115  H   -0.016169
   116  H   -0.021186
   117  H    0.049624
   118  H   -0.000909
   119  H    0.002771
   120  H    0.014451
   121  N   -0.150960
   122  C    0.141591
   123  C    0.046669
   124  O   -0.267298
   125  C    0.232033
   126  O   -0.315584
   127  H    0.132646
   128  H    0.016052
   129  H   -0.023452
   130  H   -0.003275
   131  H    0.169234
   132  N   -0.139740
   133  C    0.066690
   134  C    0.072027
   135  O   -0.271772
   136  C    0.078247
   137  H    0.125494
   138  H    0.012935
   139  H    0.005491
   140  H   -0.007657
   141  H    0.034528
   142  N   -0.128198
   143  C    0.061145
   144  C    0.067337
   145  O   -0.247414
   146  C    0.060025
   147  H    0.139513
   148  H   -0.010717
   149  H   -0.004289
   150  H    0.047788
   151  H    0.039625
   152  N   -0.165547
   153  C    0.099193
   154  C    0.056334
   155  O   -0.276403
   156  C    0.041533
   157  C    0.105029
   158  C    0.077792
   159  O   -0.434830
   160  O   -0.405586
   161  H    0.118320
   162  H   -0.015505
   163  H    0.030568
   164  H    0.040369
   165  H   -0.019148
   166  H   -0.030640
   167  N   -0.124036
   168  C    0.134093
   169  H    0.017366
   170  H    0.037623
   171  H    0.007234
   172  H    0.103779
   173  Ca   1.333376
   174  O   -0.313413
   175  H    0.192101
   176  H    0.205471
 Sum of Mulliken charges =  -0.00000

 Dipole moment (field-independent basis, Debye):
    X=             16.6158    Y=            -22.9691    Z=            -17.2127  Tot=             33.1653
 Quadrupole moment (field-independent basis, Debye-Ang):
   XX=           -212.3038   YY=           -521.3838   ZZ=           -490.2322
   XY=           -359.4685   XZ=            -36.0374   YZ=              4.9875

 ESP charges:
               1
     1  C   -0.420950
     2  C    0.796608
     3  O   -0.646371
     4  H    0.104923
     5  H    0.107931
     6  H    0.104690
     7  N   -0.703751
     8  C    0.430163
     9  C    0.365220
    10  O   -0.492313
    11  C   -0.365348
    12  C    0.814366
    13  O   -0.702442
    14  O   -0.682146
    15  H    0.348256
    16  H   -0.016816
    17  H    0.043515
    18  H    0.070885
    19  N   -0.457049
    20  C    0.090329
    21  C    0.513431
    22  O   -0.586219
    23  C    0.098316
    24  C   -0.153390
    25  C    0.084003
    26  C    0.069345
    27  N   -0.280963
    28  H    0.278939
    29  H    0.050660
    30  H   -0.006033
    31  H    0.025790
    32  H    0.019783
    33  H    0.050878
    34  H    0.017935
    35  H   -0.012240
    36  H    0.074548
    37  H    0.059379
    38  H    0.261437
    39  H    0.257562
    40  H    0.268123
    41  N   -0.343718
    42  C   -0.050387
    43  C    0.608756
    44  O   -0.498134
    45  C   -0.099078
    46  C    0.746590
    47  O   -0.789400
    48  O   -0.783921
    49  H    0.274483
    50  H    0.112241
    51  H    0.068315
    52  H    0.076465
    53  N   -0.477614
    54  C   -0.046792
    55  C    0.630903
    56  O   -0.494300
    57  H    0.303855
    58  H    0.083959
    59  H    0.087024
    60  N   -0.613586
    61  C    0.180062
    62  C    0.470596
    63  O   -0.474872
    64  C   -0.269115
    65  C    0.736315
    66  N   -0.831078
    67  O   -0.537586
    68  H    0.222220
    69  H    0.084738
    70  H    0.037562
    71  H    0.057245
    72  H    0.356860
    73  H    0.406552
    74  N   -0.335930
    75  C   -0.269350
    76  C    0.703644
    77  O   -0.544685
    78  H    0.310411
    79  H    0.107898
    80  H    0.152459
    81  N   -0.684462
    82  C    0.187645
    83  C    0.461268
    84  O   -0.549242
    85  C   -0.215713
    86  C    0.056591
    87  C   -0.139687
    88  C   -0.035295
    89  C   -0.283012
    90  C   -0.410292
    91  C    0.431479
    92  O   -0.560759
    93  H    0.358414
    94  H    0.071613
    95  H    0.131537
    96  H    0.068025
    97  H    0.134933
    98  H    0.105778
    99  H    0.165155
   100  H    0.155068
   101  H    0.416352
   102  N   -0.228900
   103  C   -0.584042
   104  C    0.810714
   105  O   -0.573515
   106  C    0.334764
   107  C    0.290204
   108  C   -0.510707
   109  C   -0.369939
   110  H    0.251872
   111  H    0.191784
   112  H   -0.005568
   113  H   -0.046735
   114  H   -0.016972
   115  H    0.091068
   116  H    0.124065
   117  H    0.152584
   118  H    0.054742
   119  H    0.083263
   120  H    0.082310
   121  N   -0.421869
   122  C    0.039926
   123  C    0.274543
   124  O   -0.473922
   125  C    0.361701
   126  O   -0.646201
   127  H    0.288210
   128  H    0.096413
   129  H   -0.043932
   130  H   -0.030722
   131  H    0.404293
   132  N   -0.228516
   133  C    0.292257
   134  C    0.515753
   135  O   -0.520488
   136  C   -0.363043
   137  H    0.158816
   138  H    0.015537
   139  H    0.064911
   140  H    0.081905
   141  H    0.129457
   142  N   -0.791470
   143  C    0.784914
   144  C    0.370307
   145  O   -0.465425
   146  C   -0.482697
   147  H    0.299740
   148  H   -0.099978
   149  H    0.063206
   150  H    0.148706
   151  H    0.158841
   152  N   -0.648431
   153  C    0.043626
   154  C    0.322266
   155  O   -0.482073
   156  C    0.007074
   157  C   -0.047702
   158  C    0.665651
   159  O   -0.728228
   160  O   -0.747058
   161  H    0.344926
   162  H    0.072651
   163  H    0.021462
   164  H    0.101726
   165  H    0.031416
   166  H    0.020316
   167  N   -0.041419
   168  C   -0.326827
   169  H    0.101734
   170  H    0.142453
   171  H    0.120177
   172  H    0.162692
   173  Ca   1.613232
   174  O   -0.855274
   175  H    0.439415
   176  H    0.448047
 Sum of ESP charges =  -0.00000

 Normal termination of Gaussian 16 at Tue Sep 17 23:51:10 2019.
