 Gaussian 16, Revision A.03,
 Gaussian 16:  ES64L-G16RevA.03 25-Dec-2016

 ----------------------------------------------------------------------
 #b3lyp/svp scf=(tight,noincore) Test #IOP(5/87=12) Density=Current Pop
 =(MK,readradii) iop(6/33=2) iop(6/42=6)
 ----------------------------------------------------------------------

 ----------------
 Ng-293_loop3_8.0
 ----------------
 Symbolic Z-matrix:
 Charge =  0 Multiplicity = 1

                         Standard orientation:
 ---------------------------------------------------------------------
 Center     Atomic      Atomic             Coordinates (Angstroms)
 Number     Number       Type             X           Y           Z
 ---------------------------------------------------------------------
      1          6           0       -8.309063    1.115595   -5.889040
      2          6           0       -8.045614    1.245865   -4.396082
      3          8           0       -7.928753    0.274059   -3.662231
      4          1           0       -8.028569    2.042504   -6.388956
      5          1           0       -7.719082    0.292186   -6.292377
      6          1           0       -9.368225    0.919929   -6.055552
      7          7           0       -7.798331    2.497747   -4.012232
      8          6           0       -7.355680    3.010507   -2.727811
      9          6           0       -8.049427    2.646918   -1.418644
     10          8           0       -7.994399    3.488334   -0.517151
     11          6           0       -5.860876    2.722506   -2.642871
     12          6           0       -5.135981    2.946136   -3.970507
     13          8           0       -5.197641    4.095487   -4.456911
     14          8           0       -4.441623    2.018962   -4.425607
     15          1           0       -7.883322    3.134107   -4.792567
     16          1           0       -7.458425    4.069686   -2.935861
     17          1           0       -5.672810    1.672410   -2.413896
     18          1           0       -5.418252    3.341730   -1.872906
     19          7           0       -8.651610    1.470515   -1.267472
     20          6           0       -9.386391    1.049581   -0.091074
     21          6           0       -8.633328    0.848873    1.221790
     22          8           0       -9.245833    0.693400    2.276620
     23          6           0      -10.333945   -0.101472   -0.411258
     24          6           0       -9.735476   -1.481403   -0.168923
     25          6           0       -8.559062   -1.794487   -1.102265
     26          6           0       -7.857386   -2.982453   -0.451276
     27          7           0       -6.481333   -3.166267   -0.950067
     28          1           0       -8.620947    0.841768   -2.065868
     29          1           0       -9.982736    1.947583    0.106068
     30          1           0      -10.709116   -0.009678   -1.425566
     31          1           0      -11.222545   -0.134926    0.206214
     32          1           0      -10.546076   -2.137247   -0.464384
     33          1           0       -9.467192   -1.705379    0.865465
     34          1           0       -7.831120   -1.007084   -1.277186
     35          1           0       -8.842891   -2.120838   -2.102033
     36          1           0       -8.531115   -3.771128   -0.797947
     37          1           0       -7.943516   -2.914938    0.635289
     38          1           0       -6.164238   -4.108313   -0.797095
     39          1           0       -6.455828   -3.092994   -1.960453
     40          1           0       -5.856982   -2.448406   -0.610272
     41          7           0       -7.304009    0.969325    1.197276
     42          6           0       -6.370877    0.953154    2.297958
     43          6           0       -5.179035    1.696506    1.717751
     44          8           0       -4.648444    1.307858    0.673947
     45          6           0       -6.052832   -0.496856    2.657984
     46          6           0       -4.937160   -0.736744    3.661044
     47          8           0       -4.301390   -1.786619    3.435969
     48          8           0       -4.545430    0.085685    4.521659
     49          1           0       -6.805789    0.989717    0.318207
     50          1           0       -6.782100    1.458603    3.172324
     51          1           0       -5.858142   -1.089854    1.767844
     52          1           0       -6.980660   -0.912397    3.056433
     53          7           0       -4.492790    2.500692    2.541919
     54          6           0       -3.193543    3.058811    2.225439
     55          6           0       -2.047508    2.057756    2.268966
     56          8           0       -2.174196    1.017942    2.907116
     57          1           0       -4.897990    2.624700    3.447366
     58          1           0       -3.004410    3.852641    2.944857
     59          1           0       -3.369751    3.462403    1.225107
     60          7           0       -0.928725    2.380002    1.605504
     61          6           0        0.142503    1.452767    1.353303
     62          6           0        1.544164    1.999223    1.584888
     63          8           0        2.518970    1.272039    1.419189
     64          6           0        0.044973    0.815067   -0.032022
     65          6           0       -1.322927    0.236463   -0.320411
     66          7           0       -1.775202   -0.764570    0.438522
     67          8           0       -1.969881    0.640440   -1.289150
     68          1           0       -0.892937    3.312021    1.203187
     69          1           0        0.050746    0.597429    2.022242
     70          1           0        0.717206   -0.049637   -0.099040
     71          1           0        0.377718    1.427055   -0.870682
     72          1           0       -1.205010   -1.095461    1.205849
     73          1           0       -2.450455   -1.416582    0.076979
     74          7           0        1.693339    3.315574    1.791204
     75          6           0        2.913097    4.108700    1.806767
     76          6           0        3.829618    4.010721    0.597227
     77          8           0        3.387127    4.006579   -0.545395
     78          1           0        0.871078    3.900913    1.740547
     79          1           0        3.434068    3.887668    2.741451
     80          1           0        2.592389    5.135909    1.966099
     81          7           0        5.130193    3.837498    0.822169
     82          6           0        6.197689    3.465133   -0.100109
     83          6           0        6.081234    2.141362   -0.828511
     84          8           0        7.054132    1.682646   -1.418382
     85          6           0        6.417231    4.613478   -1.068410
     86          6           0        6.747019    5.926859   -0.383378
     87          6           0        7.928759    6.112667    0.342340
     88          6           0        5.943644    7.066423   -0.460072
     89          6           0        8.240243    7.334696    0.936159
     90          6           0        6.124504    8.245897    0.273842
     91          6           0        7.347486    8.420392    0.965338
     92          8           0        7.629860    9.518891    1.731474
     93          1           0        5.394698    3.617030    1.774866
     94          1           0        7.077495    3.300001    0.518011
     95          1           0        5.503152    4.701211   -1.661337
     96          1           0        7.315560    4.381403   -1.638976
     97          1           0        8.708611    5.367802    0.377091
     98          1           0        4.984838    6.927665   -0.944364
     99          1           0        9.184164    7.358150    1.478618
    100          1           0        5.465192    9.087813    0.264612
    101          1           0        6.801792    9.990051    1.734941
    102          7           0        4.909474    1.507458   -0.865165
    103          6           0        4.538963    0.170133   -1.302067
    104          6           0        5.322478   -0.918610   -0.588174
    105          8           0        4.617426   -1.795719   -0.090098
    106          6           0        4.563493    0.011356   -2.824265
    107          6           0        3.918670    1.199398   -3.520726
    108          6           0        4.066856   -1.376930   -3.212227
    109          6           0        2.386471    1.238427   -3.536284
    110          1           0        4.108731    1.946694   -0.438337
    111          1           0        3.490012   -0.004639   -1.059051
    112          1           0        5.611786    0.079050   -3.123263
    113          1           0        4.266500    1.156356   -4.557144
    114          1           0        4.204001    2.151442   -3.085411
    115          1           0        3.084501   -1.588226   -2.780449
    116          1           0        3.861667   -1.419835   -4.278133
    117          1           0        4.827482   -2.093806   -2.891387
    118          1           0        2.095764    0.309601   -4.026664
    119          1           0        1.980549    1.275761   -2.532923
    120          1           0        2.069860    2.114323   -4.102202
    121          7           0        6.652821   -0.861224   -0.479566
    122          6           0        7.487174   -1.713252    0.340071
    123          6           0        7.596773   -3.146344   -0.158661
    124          8           0        7.824591   -4.040199    0.648074
    125          6           0        8.843165   -1.075910    0.618068
    126          8           0        8.655584    0.180814    1.238920
    127          1           0        7.047239   -0.041021   -0.924090
    128          1           0        7.022942   -1.796110    1.327503
    129          1           0        9.411963   -0.973620   -0.302369
    130          1           0        9.452130   -1.574182    1.376414
    131          1           0        9.468861    0.641907    1.412050
    132          7           0        7.382709   -3.350603   -1.462446
    133          6           0        6.946258   -4.590112   -2.069595
    134          6           0        5.995430   -5.446904   -1.252018
    135          8           0        6.221535   -6.652036   -1.153874
    136          6           0        8.227184   -5.290323   -2.529851
    137          1           0        7.274933   -2.522476   -2.018045
    138          1           0        6.459706   -4.294149   -3.005102
    139          1           0        7.962323   -6.173152   -3.097795
    140          1           0        8.778282   -4.686600   -3.251661
    141          1           0        8.848136   -5.593023   -1.690214
    142          7           0        4.990877   -4.866203   -0.600357
    143          6           0        3.957850   -5.560503    0.152106
    144          6           0        2.593165   -4.919976   -0.062043
    145          8           0        2.451118   -3.841304   -0.624882
    146          6           0        4.433325   -5.517422    1.602129
    147          1           0        4.985378   -3.864127   -0.482398
    148          1           0        3.913452   -6.598135   -0.186639
    149          1           0        4.205216   -4.582227    2.116791
    150          1           0        4.131786   -6.381345    2.193494
    151          1           0        5.507336   -5.645084    1.603256
    152          7           0        1.537386   -5.664395    0.279238
    153          6           0        0.160348   -5.331454   -0.023444
    154          6           0       -0.182753   -5.216801   -1.503422
    155          8           0       -1.187290   -4.634164   -1.889739
    156          6           0       -0.385204   -4.137994    0.765496
    157          6           0       -0.003256   -4.257289    2.232460
    158          6           0       -0.680673   -3.157803    3.045501
    159          8           0       -0.748572   -1.977868    2.652509
    160          8           0       -1.173730   -3.506485    4.141592
    161          1           0        1.610158   -6.557578    0.738181
    162          1           0       -0.437821   -6.122167    0.417086
    163          1           0       -1.471492   -4.109395    0.709270
    164          1           0        0.124161   -3.266221    0.346022
    165          1           0        1.079406   -4.147493    2.343763
    166          1           0       -0.375746   -5.170322    2.675656
    167          7           0        0.646791   -5.802283   -2.376101
    168          6           0        0.305796   -5.879952   -3.781195
    169          1           0        0.568588   -4.942397   -4.270899
    170          1           0        0.857348   -6.697577   -4.244446
    171          1           0       -0.764863   -6.056587   -3.886620
    172          1           0        1.415118   -6.338055   -2.012340
    173         20           0       -2.066586   -1.029862    4.680987
    174          8           0       -3.343191   -2.587355    6.328196
    175          1           0       -3.208177   -3.274751    6.984060
    176          1           0       -4.270249   -2.647019    6.110243
 ---------------------------------------------------------------------

 SCF Done:  E(RB3LYP) =  -5333.44165482     A.U. after   31 cycles

 The electronic state is 1-A.
 Alpha  occ. eigenvalues -- -145.43887 -19.19432 -19.17469 -19.14200 -19.13317
 Alpha  occ. eigenvalues --  -19.12132 -19.12026 -19.10687 -19.09922 -19.09898
 Alpha  occ. eigenvalues --  -19.09404 -19.09241 -19.09066 -19.09001 -19.08549
 Alpha  occ. eigenvalues --  -19.08364 -19.07996 -19.07667 -19.07388 -19.07206
 Alpha  occ. eigenvalues --  -19.05786 -19.04788 -18.93515 -18.93479 -15.49757
 Alpha  occ. eigenvalues --  -14.54900 -14.39523 -14.39193 -14.38081 -14.36625
 Alpha  occ. eigenvalues --  -14.36064 -14.35343 -14.35187 -14.34956 -14.34650
 Alpha  occ. eigenvalues --  -14.34279 -14.32989 -14.32424 -14.31621 -14.29874
 Alpha  occ. eigenvalues --  -12.63362 -12.63312 -12.63294 -10.32601 -10.31436
 Alpha  occ. eigenvalues --  -10.31275 -10.31205 -10.29433 -10.28596 -10.28179
 Alpha  occ. eigenvalues --  -10.27950 -10.27669 -10.27606 -10.27432 -10.27339
 Alpha  occ. eigenvalues --  -10.27024 -10.26911 -10.26853 -10.25755 -10.25747
 Alpha  occ. eigenvalues --  -10.25509 -10.25373 -10.25343 -10.24834 -10.24624
 Alpha  occ. eigenvalues --  -10.24438 -10.23728 -10.23522 -10.23495 -10.23316
 Alpha  occ. eigenvalues --  -10.23050 -10.22992 -10.22371 -10.22108 -10.21965
 Alpha  occ. eigenvalues --  -10.21751 -10.20211 -10.19955 -10.19880 -10.19795
 Alpha  occ. eigenvalues --  -10.19668 -10.19612 -10.19195 -10.19176 -10.18566
 Alpha  occ. eigenvalues --  -10.17916 -10.17721 -10.17711 -10.17595 -10.17502
 Alpha  occ. eigenvalues --  -10.16591 -10.16526 -10.16465 -10.16002 -10.15216
 Alpha  occ. eigenvalues --  -10.13477 -10.09205  -1.86516  -1.13970  -1.13726
 Alpha  occ. eigenvalues --   -1.13577  -1.09993  -1.06942  -1.06354  -1.05976
 Alpha  occ. eigenvalues --   -1.05385  -1.04980  -1.04149  -1.03766  -1.03520
 Alpha  occ. eigenvalues --   -1.03203  -1.02820  -1.02638  -1.02073  -1.01825
 Alpha  occ. eigenvalues --   -1.01599  -1.01480  -1.00541  -1.00485  -0.98755
 Alpha  occ. eigenvalues --   -0.97627  -0.96463  -0.94899  -0.94637  -0.93381
 Alpha  occ. eigenvalues --   -0.93334  -0.92919  -0.92544  -0.92268  -0.92262
 Alpha  occ. eigenvalues --   -0.91544  -0.91373  -0.90926  -0.90212  -0.89742
 Alpha  occ. eigenvalues --   -0.89317  -0.87754  -0.86289  -0.85698  -0.85524
 Alpha  occ. eigenvalues --   -0.81407  -0.80559  -0.79862  -0.79766  -0.79709
 Alpha  occ. eigenvalues --   -0.78559  -0.78000  -0.77965  -0.76505  -0.76277
 Alpha  occ. eigenvalues --   -0.74763  -0.74726  -0.74561  -0.74129  -0.74075
 Alpha  occ. eigenvalues --   -0.72911  -0.72489  -0.72212  -0.70384  -0.69506
 Alpha  occ. eigenvalues --   -0.69366  -0.69173  -0.68649  -0.68012  -0.67604
 Alpha  occ. eigenvalues --   -0.66818  -0.65982  -0.65437  -0.65368  -0.64006
 Alpha  occ. eigenvalues --   -0.63698  -0.63011  -0.62574  -0.62456  -0.61989
 Alpha  occ. eigenvalues --   -0.61902  -0.61200  -0.60461  -0.60223  -0.59547
 Alpha  occ. eigenvalues --   -0.59345  -0.59185  -0.58747  -0.58580  -0.58569
 Alpha  occ. eigenvalues --   -0.58363  -0.57922  -0.57786  -0.57774  -0.57530
 Alpha  occ. eigenvalues --   -0.56921  -0.56532  -0.55582  -0.55365  -0.55066
 Alpha  occ. eigenvalues --   -0.55018  -0.54618  -0.54491  -0.54008  -0.53501
 Alpha  occ. eigenvalues --   -0.53274  -0.53147  -0.52507  -0.52388  -0.51959
 Alpha  occ. eigenvalues --   -0.51700  -0.51551  -0.51431  -0.51042  -0.50268
 Alpha  occ. eigenvalues --   -0.49624  -0.49427  -0.49028  -0.49001  -0.48670
 Alpha  occ. eigenvalues --   -0.48458  -0.48404  -0.48015  -0.47857  -0.47584
 Alpha  occ. eigenvalues --   -0.47326  -0.47204  -0.47060  -0.46808  -0.46711
 Alpha  occ. eigenvalues --   -0.46603  -0.46410  -0.46199  -0.45960  -0.45832
 Alpha  occ. eigenvalues --   -0.45798  -0.45696  -0.45497  -0.45216  -0.45175
 Alpha  occ. eigenvalues --   -0.44900  -0.44616  -0.44536  -0.44494  -0.44041
 Alpha  occ. eigenvalues --   -0.43852  -0.43510  -0.43468  -0.43336  -0.43169
 Alpha  occ. eigenvalues --   -0.42949  -0.42737  -0.42643  -0.42583  -0.42543
 Alpha  occ. eigenvalues --   -0.42343  -0.42013  -0.41857  -0.41784  -0.41731
 Alpha  occ. eigenvalues --   -0.41652  -0.41551  -0.41499  -0.41268  -0.40793
 Alpha  occ. eigenvalues --   -0.40759  -0.40570  -0.40467  -0.40239  -0.40112
 Alpha  occ. eigenvalues --   -0.39989  -0.39876  -0.39685  -0.39599  -0.39586
 Alpha  occ. eigenvalues --   -0.39542  -0.39441  -0.39207  -0.39099  -0.38986
 Alpha  occ. eigenvalues --   -0.38753  -0.38582  -0.38549  -0.38248  -0.37979
 Alpha  occ. eigenvalues --   -0.37760  -0.37693  -0.37567  -0.37399  -0.37328
 Alpha  occ. eigenvalues --   -0.37241  -0.37192  -0.37113  -0.36749  -0.36645
 Alpha  occ. eigenvalues --   -0.36556  -0.36200  -0.36109  -0.35966  -0.35907
 Alpha  occ. eigenvalues --   -0.35795  -0.35534  -0.35399  -0.35162  -0.35110
 Alpha  occ. eigenvalues --   -0.34945  -0.34720  -0.34550  -0.34416  -0.34310
 Alpha  occ. eigenvalues --   -0.34123  -0.33709  -0.33558  -0.33515  -0.33305
 Alpha  occ. eigenvalues --   -0.32071  -0.31896  -0.31211  -0.30904  -0.30781
 Alpha  occ. eigenvalues --   -0.30619  -0.30329  -0.30077  -0.29650  -0.28884
 Alpha  occ. eigenvalues --   -0.28060  -0.28002  -0.27942  -0.27791  -0.27347
 Alpha  occ. eigenvalues --   -0.27301  -0.27179  -0.27039  -0.26802  -0.26520
 Alpha  occ. eigenvalues --   -0.26399  -0.26312  -0.26027  -0.25930  -0.25682
 Alpha  occ. eigenvalues --   -0.25417  -0.25351  -0.25137  -0.25107  -0.24647
 Alpha  occ. eigenvalues --   -0.24615  -0.24473  -0.24283  -0.24091  -0.23958
 Alpha  occ. eigenvalues --   -0.23421  -0.23399  -0.23326  -0.23267  -0.23196
 Alpha  occ. eigenvalues --   -0.23111  -0.22487  -0.22378  -0.20647  -0.20464
 Alpha  occ. eigenvalues --   -0.11345  -0.11056  -0.09115
 Alpha virt. eigenvalues --   -0.08140  -0.06616  -0.02681  -0.02264  -0.01775
 Alpha virt. eigenvalues --   -0.00970  -0.00898  -0.00777  -0.00423  -0.00025
 Alpha virt. eigenvalues --    0.00352   0.00515   0.00619   0.00873   0.00904

 Mulliken charges:
               1
     1  C    0.060755
     2  C    0.044879
     3  O   -0.358519
     4  H    0.023767
     5  H    0.039130
     6  H    0.016198
     7  N   -0.110452
     8  C    0.112695
     9  C    0.065122
    10  O   -0.300595
    11  C    0.089421
    12  C    0.003487
    13  O   -0.408548
    14  O   -0.363685
    15  H    0.126909
    16  H   -0.012264
    17  H   -0.038586
    18  H   -0.011230
    19  N   -0.169582
    20  C    0.138262
    21  C    0.035819
    22  O   -0.292152
    23  C    0.097707
    24  C   -0.028602
    25  C   -0.054896
    26  C   -0.002617
    27  N    0.095979
    28  H    0.142162
    29  H    0.027218
    30  H    0.006641
    31  H    0.011419
    32  H    0.001365
    33  H    0.032716
    34  H    0.042440
    35  H    0.029568
    36  H    0.058700
    37  H    0.076835
    38  H    0.187222
    39  H    0.195853
    40  H    0.218587
    41  N   -0.118416
    42  C    0.105808
    43  C    0.103918
    44  O   -0.278342
    45  C    0.121215
    46  C    0.105897
    47  O   -0.433250
    48  O   -0.427993
    49  H    0.140397
    50  H    0.004603
    51  H   -0.054255
    52  H    0.020658
    53  N   -0.114864
    54  C    0.178237
    55  C    0.118843
    56  O   -0.338444
    57  H    0.116137
    58  H    0.023481
    59  H    0.071947
    60  N   -0.133526
    61  C    0.079907
    62  C    0.076999
    63  O   -0.268443
    64  C    0.070145
    65  C   -0.033862
    66  N   -0.051151
    67  O   -0.225252
    68  H    0.137592
    69  H    0.024364
    70  H    0.059307
    71  H    0.028842
    72  H    0.121040
    73  H    0.105384
    74  N   -0.127625
    75  C    0.196262
    76  C    0.054920
    77  O   -0.281921
    78  H    0.101923
    79  H    0.004791
    80  H    0.030684
    81  N   -0.119361
    82  C    0.080865
    83  C    0.105428
    84  O   -0.319046
    85  C    0.177569
    86  C   -0.017982
    87  C   -0.041211
    88  C    0.001978
    89  C   -0.024397
    90  C   -0.045550
    91  C    0.144204
    92  O   -0.179106
    93  H    0.125824
    94  H    0.014870
    95  H    0.025996
    96  H    0.017808
    97  H   -0.032293
    98  H   -0.018285
    99  H   -0.024823
   100  H   -0.043748
   101  H    0.166353
   102  N   -0.107441
   103  C    0.146529
   104  C    0.038499
   105  O   -0.272063
   106  C   -0.117778
   107  C    0.010149
   108  C    0.092742
   109  C    0.027548
   110  H    0.146798
   111  H    0.020884
   112  H   -0.021023
   113  H   -0.007592
   114  H    0.000155
   115  H    0.034061
   116  H    0.000055
   117  H   -0.007591
   118  H    0.006690
   119  H   -0.003621
   120  H    0.025980
   121  N   -0.126880
   122  C    0.115998
   123  C    0.037355
   124  O   -0.262554
   125  C    0.236880
   126  O   -0.325477
   127  H    0.140817
   128  H    0.019396
   129  H   -0.011992
   130  H    0.012209
   131  H    0.161618
   132  N   -0.123893
   133  C    0.057157
   134  C    0.071104
   135  O   -0.278538
   136  C    0.098512
   137  H    0.113840
   138  H    0.018869
   139  H    0.001046
   140  H   -0.016398
   141  H    0.030965
   142  N   -0.142872
   143  C    0.059537
   144  C    0.093551
   145  O   -0.232785
   146  C    0.063852
   147  H    0.149727
   148  H    0.005067
   149  H    0.023230
   150  H   -0.010625
   151  H    0.040618
   152  N   -0.149519
   153  C    0.091480
   154  C    0.082944
   155  O   -0.282197
   156  C   -0.001191
   157  C    0.106136
   158  C    0.098874
   159  O   -0.439059
   160  O   -0.410378
   161  H    0.118491
   162  H   -0.007585
   163  H   -0.001830
   164  H    0.040053
   165  H    0.019949
   166  H   -0.022567
   167  N   -0.140347
   168  C    0.139459
   169  H    0.039492
   170  H    0.008717
   171  H    0.023167
   172  H    0.110176
   173  Ca   1.326225
   174  O   -0.301797
   175  H    0.186084
   176  H    0.192734
 Sum of Mulliken charges =  -0.00000

 Dipole moment (field-independent basis, Debye):
    X=             -1.1274    Y=            -11.8912    Z=             19.9851  Tot=             23.2826
 Quadrupole moment (field-independent basis, Debye-Ang):
   XX=           -532.9753   YY=           -521.8601   ZZ=           -537.2899
   XY=            175.0238   XZ=            -21.8935   YZ=             76.8249

 ESP charges:
               1
     1  C   -0.473627
     2  C    0.801894
     3  O   -0.654018
     4  H    0.121593
     5  H    0.153112
     6  H    0.095234
     7  N   -0.700337
     8  C    0.080937
     9  C    0.454959
    10  O   -0.558652
    11  C   -0.154478
    12  C    0.746675
    13  O   -0.734390
    14  O   -0.685834
    15  H    0.378563
    16  H    0.085014
    17  H    0.025312
    18  H    0.049976
    19  N   -0.112197
    20  C   -0.385500
    21  C    0.653463
    22  O   -0.559708
    23  C    0.014851
    24  C   -0.191365
    25  C    0.119555
    26  C   -0.075955
    27  N   -0.325473
    28  H    0.148718
    29  H    0.170677
    30  H    0.064514
    31  H    0.057484
    32  H    0.054635
    33  H    0.091366
    34  H    0.058998
    35  H    0.030738
    36  H    0.080156
    37  H    0.079090
    38  H    0.330355
    39  H    0.329146
    40  H    0.337754
    41  N   -0.310784
    42  C   -0.104347
    43  C    0.555895
    44  O   -0.419473
    45  C   -0.145737
    46  C    0.764093
    47  O   -0.734529
    48  O   -0.773099
    49  H    0.159308
    50  H    0.105381
    51  H    0.040867
    52  H    0.066970
    53  N   -0.412609
    54  C   -0.181978
    55  C    0.758925
    56  O   -0.582946
    57  H    0.306111
    58  H    0.107031
    59  H    0.141942
    60  N   -0.859017
    61  C    0.337786
    62  C    0.558424
    63  O   -0.535960
    64  C    0.002708
    65  C    0.629565
    66  N   -0.784237
    67  O   -0.546150
    68  H    0.375587
    69  H   -0.053741
    70  H    0.011153
    71  H    0.000049
    72  H    0.364193
    73  H    0.334050
    74  N   -0.501714
    75  C   -0.042178
    76  C    0.612602
    77  O   -0.508888
    78  H    0.307994
    79  H    0.072790
    80  H    0.098650
    81  N   -0.780844
    82  C    0.496151
    83  C    0.193319
    84  O   -0.507301
    85  C   -0.364094
    86  C    0.139440
    87  C   -0.185725
    88  C   -0.088576
    89  C   -0.245038
    90  C   -0.382950
    91  C    0.382056
    92  O   -0.519145
    93  H    0.357083
    94  H    0.014251
    95  H    0.144077
    96  H    0.120175
    97  H    0.130269
    98  H    0.122484
    99  H    0.148942
   100  H    0.166135
   101  H    0.390629
   102  N   -0.184656
   103  C   -0.281601
   104  C    0.553761
   105  O   -0.529928
   106  C    0.434063
   107  C    0.097429
   108  C   -0.444987
   109  C   -0.266340
   110  H    0.284153
   111  H    0.125995
   112  H   -0.090343
   113  H   -0.039617
   114  H   -0.014448
   115  H    0.134433
   116  H    0.106281
   117  H    0.047237
   118  H    0.054229
   119  H    0.065598
   120  H    0.088733
   121  N   -0.225840
   122  C   -0.171970
   123  C    0.436131
   124  O   -0.493928
   125  C    0.205414
   126  O   -0.603166
   127  H    0.267492
   128  H    0.146732
   129  H    0.011346
   130  H    0.047571
   131  H    0.398800
   132  N   -0.380224
   133  C    0.216908
   134  C    0.602352
   135  O   -0.525010
   136  C   -0.379021
   137  H    0.244728
   138  H    0.060360
   139  H    0.076405
   140  H    0.091091
   141  H    0.135807
   142  N   -0.951437
   143  C    0.701731
   144  C    0.441708
   145  O   -0.431602
   146  C   -0.515776
   147  H    0.410292
   148  H   -0.048100
   149  H    0.132702
   150  H    0.063190
   151  H    0.204018
   152  N   -0.562929
   153  C   -0.369538
   154  C    0.522922
   155  O   -0.538407
   156  C    0.365194
   157  C   -0.105283
   158  C    0.657102
   159  O   -0.730090
   160  O   -0.718761
   161  H    0.321326
   162  H    0.155804
   163  H   -0.051011
   164  H    0.001059
   165  H    0.028380
   166  H    0.026357
   167  N   -0.197904
   168  C   -0.256401
   169  H    0.127998
   170  H    0.098866
   171  H    0.109055
   172  H    0.237818
   173  Ca   1.621818
   174  O   -0.872013
   175  H    0.455374
   176  H    0.415314
 Sum of ESP charges =  -0.00000

 Normal termination of Gaussian 16 at Tue Sep 17 23:52:18 2019.
