 Gaussian 16, Revision A.03,
 Gaussian 16:  ES64L-G16RevA.03 25-Dec-2016

 ----------------------------------------------------------------------
 #b3lyp/svp scf=(tight,noincore) Test #IOP(5/87=12) Density=Current Pop
 =(MK,readradii) iop(6/33=2) iop(6/42=6)
 ----------------------------------------------------------------------

 -----------------
 Ng-295_loop3_32.0
 -----------------
 Symbolic Z-matrix:
 Charge =  0 Multiplicity = 1

                         Standard orientation:
 ---------------------------------------------------------------------
 Center     Atomic      Atomic             Coordinates (Angstroms)
 Number     Number       Type             X           Y           Z
 ---------------------------------------------------------------------
      1          6           0      -11.056963    5.216547    3.456514
      2          6           0      -10.745589    4.726538    2.050514
      3          8           0      -10.609392    5.343451    0.999671
      4          1           0      -10.314211    5.955798    3.755763
      5          1           0      -12.047439    5.671054    3.472332
      6          1           0      -11.030756    4.375613    4.148907
      7          7           0      -10.431238    3.427889    1.958359
      8          6           0      -10.037650    2.670866    0.793282
      9          6           0      -10.932103    1.479135    0.452207
     10          8           0      -11.547061    0.820910    1.275716
     11          6           0       -8.572781    2.273540    0.968755
     12          6           0       -7.794430    1.754942   -0.226497
     13          8           0       -6.620242    2.136516   -0.353711
     14          8           0       -8.378819    1.123705   -1.136348
     15          1           0      -10.448752    2.957986    2.853951
     16          1           0      -10.006845    3.277440   -0.108948
     17          1           0       -8.478474    1.503127    1.730969
     18          1           0       -8.048710    3.152018    1.349707
     19          7           0      -11.061104    1.193757   -0.846106
     20          6           0      -11.876236    0.076929   -1.293941
     21          6           0      -11.114045   -1.236196   -1.450364
     22          8           0      -11.711937   -2.273638   -1.741979
     23          6           0      -12.532430    0.470102   -2.617468
     24          6           0      -13.798094    1.293802   -2.428218
     25          6           0      -13.841266    2.476563   -1.467483
     26          6           0      -15.072089    3.360108   -1.332128
     27          7           0      -16.063344    2.849335   -0.380327
     28          1           0      -10.488041    1.678959   -1.519589
     29          1           0      -12.639181   -0.177584   -0.559409
     30          1           0      -12.836423   -0.489542   -3.053898
     31          1           0      -11.855196    1.077788   -3.211919
     32          1           0      -14.492194    0.524925   -2.083031
     33          1           0      -14.150262    1.642072   -3.404683
     34          1           0      -13.061443    3.171073   -1.771181
     35          1           0      -13.557423    2.073322   -0.494174
     36          1           0      -15.594404    3.590076   -2.267918
     37          1           0      -14.647316    4.262931   -0.904836
     38          1           0      -16.832071    3.479949   -0.520275
     39          1           0      -16.256439    1.893482   -0.622111
     40          1           0      -15.713577    2.966362    0.560188
     41          7           0       -9.790482   -1.277676   -1.371880
     42          6           0       -9.106874   -2.480635   -0.953944
     43          6           0       -8.512373   -2.452196    0.445327
     44          8           0       -8.041731   -3.518400    0.842194
     45          6           0       -8.083124   -2.812135   -2.038860
     46          6           0       -6.956528   -1.795834   -2.178550
     47          8           0       -6.376029   -1.490034   -3.246823
     48          8           0       -6.487374   -1.262662   -1.153356
     49          1           0       -9.261560   -0.420635   -1.482879
     50          1           0       -9.824728   -3.307299   -0.957321
     51          1           0       -8.662812   -2.935725   -2.957167
     52          1           0       -7.682306   -3.798790   -1.801041
     53          7           0       -8.595522   -1.362982    1.207692
     54          6           0       -8.068641   -1.385947    2.558125
     55          6           0       -6.567388   -1.539428    2.705037
     56          8           0       -6.097971   -1.774297    3.825699
     57          1           0       -8.819483   -0.467469    0.788173
     58          1           0       -8.507381   -2.183230    3.161157
     59          1           0       -8.429795   -0.446862    2.987063
     60          7           0       -5.813653   -1.402240    1.615329
     61          6           0       -4.390014   -1.696904    1.592407
     62          6           0       -3.511275   -0.610381    1.001234
     63          8           0       -3.990311    0.226887    0.242680
     64          6           0       -4.144027   -3.043973    0.908744
     65          6           0       -2.820934   -3.695482    1.261391
     66          7           0       -2.589127   -4.835209    0.600264
     67          8           0       -2.053181   -3.231779    2.101888
     68          1           0       -6.185681   -1.257953    0.692682
     69          1           0       -4.010573   -1.781502    2.613958
     70          1           0       -4.308148   -2.835686   -0.147987
     71          1           0       -4.916598   -3.694082    1.327664
     72          1           0       -3.327843   -5.282885    0.087639
     73          1           0       -1.754085   -5.348674    0.844512
     74          7           0       -2.258353   -0.584480    1.466977
     75          6           0       -1.253260    0.394325    1.125467
     76          6           0        0.179646   -0.106170    1.191695
     77          8           0        1.040032    0.595585    1.710710
     78          1           0       -1.952703   -1.255187    2.159241
     79          1           0       -1.412304    1.165535    1.877158
     80          1           0       -1.494848    0.917101    0.197168
     81          7           0        0.456337   -1.355152    0.796366
     82          6           0        1.738475   -2.003888    0.973471
     83          6           0        2.834243   -1.514870    0.039097
     84          8           0        2.723512   -1.443870   -1.176385
     85          6           0        1.511369   -3.507305    0.929212
     86          6           0        2.748728   -4.363253    1.058802
     87          6           0        3.411839   -4.791863   -0.096178
     88          6           0        3.087517   -4.830322    2.334447
     89          6           0        4.419400   -5.756313   -0.009252
     90          6           0        4.120864   -5.772686    2.460709
     91          6           0        4.787259   -6.167641    1.282138
     92          8           0        5.916860   -6.918261    1.466447
     93          1           0       -0.287666   -1.962361    0.483545
     94          1           0        2.083217   -1.770172    1.986501
     95          1           0        0.971646   -3.816152    0.027707
     96          1           0        0.801936   -3.735476    1.725732
     97          1           0        3.264444   -4.411198   -1.095412
     98          1           0        2.647411   -4.395735    3.215323
     99          1           0        4.977203   -6.148859   -0.843437
    100          1           0        4.600963   -6.004962    3.400045
    101          1           0        6.073292   -7.086350    2.401421
    102          7           0        3.936995   -1.051605    0.637365
    103          6           0        5.176469   -0.463248    0.152969
    104          6           0        5.909919   -1.087120   -1.024925
    105          8           0        5.357080   -1.504113   -2.040152
    106          6           0        5.181147    1.062184    0.129841
    107          6           0        4.810592    1.782676    1.432523
    108          6           0        4.235873    1.581975   -0.943086
    109          6           0        5.556443    1.409947    2.708681
    110          1           0        3.997307   -1.234571    1.630987
    111          1           0        5.718974   -0.646709    1.077378
    112          1           0        6.194187    1.420804   -0.069514
    113          1           0        3.745746    1.597002    1.578907
    114          1           0        4.930460    2.822087    1.138997
    115          1           0        3.199123    1.360310   -0.683057
    116          1           0        4.465088    2.629232   -1.142370
    117          1           0        4.509984    1.081596   -1.868874
    118          1           0        5.146163    2.034306    3.504134
    119          1           0        5.352537    0.352147    2.892208
    120          1           0        6.643588    1.451534    2.592984
    121          7           0        7.240158   -0.988413   -1.029524
    122          6           0        8.107371   -1.082912   -2.188106
    123          6           0        9.512376   -1.616191   -2.024171
    124          8           0       10.050767   -2.284082   -2.902042
    125          6           0        8.306738    0.261220   -2.887863
    126          8           0        8.853629    1.222982   -2.011892
    127          1           0        7.595952   -0.792353   -0.106826
    128          1           0        7.617624   -1.662055   -2.980787
    129          1           0        7.289031    0.478927   -3.214936
    130          1           0        9.009143    0.214636   -3.721265
    131          1           0        9.030893    1.987511   -2.562412
    132          7           0       10.086961   -1.344800   -0.844849
    133          6           0       11.397206   -1.750722   -0.372530
    134          6           0       12.566128   -1.643992   -1.333431
    135          8           0       13.362974   -2.549690   -1.573533
    136          6           0       11.310130   -3.174682    0.173870
    137          1           0        9.553561   -0.709534   -0.267163
    138          1           0       11.679638   -1.116835    0.469384
    139          1           0       10.747632   -3.761417   -0.559231
    140          1           0       12.333091   -3.538139    0.327654
    141          1           0       10.754168   -3.060895    1.102342
    142          7           0       12.864503   -0.438846   -1.819224
    143          6           0       12.360101    0.873911   -1.470590
    144          6           0       13.361524    1.786569   -0.770942
    145          8           0       14.578184    1.590465   -0.881305
    146          6           0       12.008761    1.513156   -2.811794
    147          1           0       13.510098   -0.558666   -2.586981
    148          1           0       11.398537    0.765390   -0.975092
    149          1           0       11.234142    1.055554   -3.419878
    150          1           0       11.686145    2.558444   -2.785517
    151          1           0       12.909056    1.679883   -3.406580
    152          7           0       12.944008    2.846624   -0.088253
    153          6           0       11.629723    3.226648    0.389592
    154          6           0       11.340162    2.871790    1.843804
    155          8           0       10.364687    2.138295    1.992581
    156          6           0       11.371223    4.721331    0.230846
    157          6           0        9.884212    5.076740    0.187482
    158          6           0        9.641448    6.561318   -0.072509
    159          8           0        9.334533    6.883862   -1.231978
    160          8           0        9.739973    7.374461    0.868125
    161          1           0       13.698672    3.429950    0.251325
    162          1           0       10.938627    2.637579   -0.212143
    163          1           0       11.792057    5.044473   -0.724706
    164          1           0       11.917566    5.227955    1.029684
    165          1           0        9.427028    4.815035    1.145079
    166          1           0        9.368993    4.492852   -0.573126
    167          7           0       12.192663    3.169394    2.823688
    168          6           0       11.875263    2.925456    4.216078
    169          1           0       12.016507    3.843763    4.786214
    170          1           0       10.837740    2.600914    4.301257
    171          1           0       12.532958    2.149269    4.608921
    172          1           0       12.904407    3.870624    2.672699
    173         20           0       -5.183929    0.823917   -2.185279
    174          8           0       -7.162120    2.000182   -3.198818
    175          1           0       -7.875833    1.743926   -2.612519
    176          1           0       -7.578796    2.567745   -3.841743
 ---------------------------------------------------------------------

 SCF Done:  E(RB3LYP) =  -5333.34897198     A.U. after  128 cycles

 The electronic state is 1-A.
 Alpha  occ. eigenvalues -- -145.47884 -19.18704 -19.15363 -19.14696 -19.14074
 Alpha  occ. eigenvalues --  -19.13787 -19.12728 -19.12662 -19.12137 -19.11800
 Alpha  occ. eigenvalues --  -19.11115 -19.10532 -19.09929 -19.09868 -19.09224
 Alpha  occ. eigenvalues --  -19.08864 -19.07577 -19.07167 -19.07123 -19.06800
 Alpha  occ. eigenvalues --  -19.06057 -19.05551 -18.97751 -18.97640 -15.53724
 Alpha  occ. eigenvalues --  -14.57967 -14.39399 -14.38675 -14.38481 -14.38361
 Alpha  occ. eigenvalues --  -14.36691 -14.36622 -14.35457 -14.34707 -14.34479
 Alpha  occ. eigenvalues --  -14.34222 -14.34082 -14.33856 -14.32710 -14.31075
 Alpha  occ. eigenvalues --  -12.67314 -12.67287 -12.67280 -10.35950 -10.32341
 Alpha  occ. eigenvalues --  -10.32260 -10.32117 -10.31918 -10.31514 -10.29912
 Alpha  occ. eigenvalues --  -10.29808 -10.28834 -10.28639 -10.28615 -10.28257
 Alpha  occ. eigenvalues --  -10.27518 -10.27294 -10.26765 -10.26529 -10.26468
 Alpha  occ. eigenvalues --  -10.26211 -10.25503 -10.25352 -10.24957 -10.24762
 Alpha  occ. eigenvalues --  -10.24683 -10.24666 -10.24489 -10.23795 -10.23714
 Alpha  occ. eigenvalues --  -10.23658 -10.23548 -10.22402 -10.22380 -10.22092
 Alpha  occ. eigenvalues --  -10.21963 -10.21725 -10.21378 -10.21128 -10.20172
 Alpha  occ. eigenvalues --  -10.19828 -10.19812 -10.19772 -10.19490 -10.19080
 Alpha  occ. eigenvalues --  -10.18885 -10.18876 -10.18334 -10.16911 -10.16543
 Alpha  occ. eigenvalues --  -10.16440 -10.16139 -10.15378 -10.14937 -10.14717
 Alpha  occ. eigenvalues --  -10.14312 -10.10998  -1.90328  -1.17700  -1.17473
 Alpha  occ. eigenvalues --   -1.17393  -1.14204  -1.08037  -1.07541  -1.07036
 Alpha  occ. eigenvalues --   -1.06113  -1.05992  -1.05227  -1.05076  -1.04481
 Alpha  occ. eigenvalues --   -1.04118  -1.03837  -1.03129  -1.01731  -1.01456
 Alpha  occ. eigenvalues --   -1.00973  -1.00319  -1.00161  -1.00098  -0.99338
 Alpha  occ. eigenvalues --   -0.98611  -0.97473  -0.96424  -0.95664  -0.95016
 Alpha  occ. eigenvalues --   -0.93719  -0.93654  -0.93188  -0.92999  -0.92585
 Alpha  occ. eigenvalues --   -0.91996  -0.91577  -0.91318  -0.90890  -0.90056
 Alpha  occ. eigenvalues --   -0.89887  -0.89736  -0.89090  -0.88175  -0.84934
 Alpha  occ. eigenvalues --   -0.84859  -0.82607  -0.82213  -0.80983  -0.80176
 Alpha  occ. eigenvalues --   -0.79408  -0.78767  -0.77760  -0.77060  -0.76960
 Alpha  occ. eigenvalues --   -0.75840  -0.75564  -0.74561  -0.74527  -0.74455
 Alpha  occ. eigenvalues --   -0.74121  -0.73943  -0.73707  -0.72865  -0.71448
 Alpha  occ. eigenvalues --   -0.71395  -0.69813  -0.69361  -0.69332  -0.69080
 Alpha  occ. eigenvalues --   -0.67072  -0.65522  -0.65395  -0.65351  -0.64303
 Alpha  occ. eigenvalues --   -0.63976  -0.63477  -0.63142  -0.62705  -0.62239
 Alpha  occ. eigenvalues --   -0.62094  -0.61725  -0.61396  -0.61320  -0.60793
 Alpha  occ. eigenvalues --   -0.60451  -0.60409  -0.59745  -0.59471  -0.59428
 Alpha  occ. eigenvalues --   -0.59340  -0.58530  -0.58021  -0.57885  -0.57627
 Alpha  occ. eigenvalues --   -0.57115  -0.57020  -0.56984  -0.56574  -0.56244
 Alpha  occ. eigenvalues --   -0.55848  -0.55397  -0.54781  -0.54574  -0.54503
 Alpha  occ. eigenvalues --   -0.54151  -0.53949  -0.53199  -0.53108  -0.52534
 Alpha  occ. eigenvalues --   -0.52492  -0.52108  -0.52084  -0.51945  -0.51462
 Alpha  occ. eigenvalues --   -0.51274  -0.50802  -0.50685  -0.50597  -0.50066
 Alpha  occ. eigenvalues --   -0.49773  -0.49551  -0.49111  -0.48917  -0.48813
 Alpha  occ. eigenvalues --   -0.48722  -0.48465  -0.48407  -0.48092  -0.47741
 Alpha  occ. eigenvalues --   -0.47438  -0.47388  -0.46959  -0.46737  -0.46700
 Alpha  occ. eigenvalues --   -0.46596  -0.46444  -0.46365  -0.45929  -0.45809
 Alpha  occ. eigenvalues --   -0.45690  -0.45609  -0.45380  -0.45170  -0.45096
 Alpha  occ. eigenvalues --   -0.44993  -0.44650  -0.44479  -0.44344  -0.44285
 Alpha  occ. eigenvalues --   -0.44126  -0.44018  -0.43825  -0.43603  -0.43494
 Alpha  occ. eigenvalues --   -0.43238  -0.43066  -0.42932  -0.42885  -0.42568
 Alpha  occ. eigenvalues --   -0.42519  -0.42413  -0.41954  -0.41735  -0.41452
 Alpha  occ. eigenvalues --   -0.41280  -0.41009  -0.40993  -0.40935  -0.40796
 Alpha  occ. eigenvalues --   -0.40601  -0.40475  -0.40384  -0.40166  -0.39971
 Alpha  occ. eigenvalues --   -0.39892  -0.39835  -0.39708  -0.39644  -0.39615
 Alpha  occ. eigenvalues --   -0.39342  -0.38922  -0.38852  -0.38733  -0.38639
 Alpha  occ. eigenvalues --   -0.38540  -0.38522  -0.38183  -0.38092  -0.37954
 Alpha  occ. eigenvalues --   -0.37809  -0.37345  -0.37076  -0.36978  -0.36878
 Alpha  occ. eigenvalues --   -0.36736  -0.36285  -0.36233  -0.36004  -0.35722
 Alpha  occ. eigenvalues --   -0.35513  -0.35392  -0.35308  -0.35123  -0.35112
 Alpha  occ. eigenvalues --   -0.34999  -0.34779  -0.34294  -0.34037  -0.33979
 Alpha  occ. eigenvalues --   -0.33628  -0.33485  -0.32894  -0.32846  -0.32594
 Alpha  occ. eigenvalues --   -0.32244  -0.31913  -0.31521  -0.31472  -0.31213
 Alpha  occ. eigenvalues --   -0.31204  -0.31146  -0.30577  -0.30566  -0.30109
 Alpha  occ. eigenvalues --   -0.30055  -0.29819  -0.29746  -0.29297  -0.28957
 Alpha  occ. eigenvalues --   -0.28890  -0.28425  -0.28317  -0.28136  -0.28111
 Alpha  occ. eigenvalues --   -0.27734  -0.27387  -0.27194  -0.27121  -0.27034
 Alpha  occ. eigenvalues --   -0.26641  -0.26598  -0.25865  -0.25706  -0.25521
 Alpha  occ. eigenvalues --   -0.24956  -0.24714  -0.24607  -0.24572  -0.24461
 Alpha  occ. eigenvalues --   -0.24308  -0.23820  -0.23474  -0.22721  -0.22289
 Alpha  occ. eigenvalues --   -0.21901  -0.21691  -0.21042  -0.20847  -0.20668
 Alpha  occ. eigenvalues --   -0.14755  -0.14286  -0.11859
 Alpha virt. eigenvalues --   -0.11432  -0.11150  -0.05475  -0.04711  -0.02946
 Alpha virt. eigenvalues --   -0.02342  -0.01970  -0.01718  -0.01506  -0.01240
 Alpha virt. eigenvalues --   -0.01230  -0.01005  -0.00099  -0.00005   0.00268

 Mulliken charges:
               1
     1  C    0.063592
     2  C   -0.005391
     3  O   -0.289689
     4  H    0.063134
     5  H    0.034400
     6  H    0.011057
     7  N   -0.128929
     8  C    0.139386
     9  C    0.064524
    10  O   -0.278484
    11  C    0.063505
    12  C    0.140989
    13  O   -0.398958
    14  O   -0.449037
    15  H    0.112391
    16  H   -0.000005
    17  H    0.003092
    18  H    0.037404
    19  N   -0.135985
    20  C    0.072476
    21  C    0.067085
    22  O   -0.288970
    23  C    0.106114
    24  C   -0.006638
    25  C   -0.046521
    26  C    0.031825
    27  N    0.141565
    28  H    0.118087
    29  H    0.023844
    30  H    0.036078
    31  H   -0.005776
    32  H   -0.010768
    33  H    0.006968
    34  H    0.035817
    35  H    0.030618
    36  H    0.060570
    37  H    0.061965
    38  H    0.126028
    39  H    0.148531
    40  H    0.143750
    41  N   -0.153430
    42  C    0.103582
    43  C    0.077982
    44  O   -0.291829
    45  C    0.109232
    46  C    0.101036
    47  O   -0.403265
    48  O   -0.442628
    49  H    0.142610
    50  H    0.036293
    51  H    0.009013
    52  H    0.030417
    53  N   -0.162416
    54  C    0.204027
    55  C    0.045578
    56  O   -0.296840
    57  H    0.132813
    58  H    0.037661
    59  H    0.022819
    60  N   -0.119508
    61  C    0.069580
    62  C    0.112357
    63  O   -0.361173
    64  C    0.034990
    65  C    0.039848
    66  N   -0.034549
    67  O   -0.290452
    68  H    0.146127
    69  H    0.025758
    70  H    0.030182
    71  H    0.068383
    72  H    0.131996
    73  H    0.137593
    74  N   -0.148504
    75  C    0.219956
    76  C    0.036042
    77  O   -0.258861
    78  H    0.155902
    79  H    0.032055
    80  H    0.020820
    81  N   -0.109369
    82  C    0.120947
    83  C    0.080620
    84  O   -0.245971
    85  C    0.089742
    86  C   -0.036156
    87  C    0.001130
    88  C   -0.012587
    89  C   -0.013578
    90  C   -0.023343
    91  C    0.132949
    92  O   -0.200629
    93  H    0.113519
    94  H   -0.017096
    95  H   -0.004511
    96  H    0.003963
    97  H    0.008995
    98  H   -0.026904
    99  H   -0.013783
   100  H   -0.036891
   101  H    0.170366
   102  N   -0.130213
   103  C    0.122182
   104  C    0.104065
   105  O   -0.248268
   106  C   -0.107567
   107  C   -0.016793
   108  C    0.080946
   109  C    0.053799
   110  H    0.118632
   111  H   -0.038072
   112  H   -0.006788
   113  H    0.008577
   114  H    0.005724
   115  H    0.020728
   116  H    0.002104
   117  H    0.002935
   118  H    0.022787
   119  H   -0.028787
   120  H    0.024597
   121  N   -0.114303
   122  C    0.104816
   123  C    0.067092
   124  O   -0.260338
   125  C    0.194738
   126  O   -0.308708
   127  H    0.116065
   128  H    0.033637
   129  H    0.014909
   130  H    0.011044
   131  H    0.182955
   132  N   -0.136174
   133  C   -0.024027
   134  C    0.079669
   135  O   -0.262075
   136  C    0.098339
   137  H    0.126196
   138  H    0.031892
   139  H    0.030821
   140  H    0.033718
   141  H   -0.021176
   142  N   -0.093537
   143  C    0.044048
   144  C    0.077237
   145  O   -0.274095
   146  C    0.022579
   147  H    0.126445
   148  H    0.024639
   149  H    0.013740
   150  H    0.002821
   151  H    0.005918
   152  N   -0.079913
   153  C    0.098508
   154  C    0.067505
   155  O   -0.291205
   156  C    0.015859
   157  C    0.077576
   158  C    0.053532
   159  O   -0.332040
   160  O   -0.341109
   161  H    0.109954
   162  H   -0.002133
   163  H    0.000284
   164  H   -0.020046
   165  H   -0.016899
   166  H   -0.038844
   167  N   -0.142172
   168  C    0.116881
   169  H    0.022619
   170  H    0.044043
   171  H    0.022557
   172  H    0.116538
   173  Ca   1.338930
   174  O   -0.341290
   175  H    0.174554
   176  H    0.174581
 Sum of Mulliken charges =  -0.00000

 Dipole moment (field-independent basis, Debye):
    X=            -77.5893    Y=              0.0411    Z=              0.3723  Tot=             77.5902
 Quadrupole moment (field-independent basis, Debye-Ang):
   XX=           -197.4445   YY=           -686.9830   ZZ=           -542.2744
   XY=           -318.4841   XZ=            134.3976   YZ=            -30.2700

 ESP charges:
               1
     1  C   -0.471214
     2  C    0.688298
     3  O   -0.592129
     4  H    0.162376
     5  H    0.129415
     6  H    0.124728
     7  N   -0.652000
     8  C    0.688104
     9  C    0.054975
    10  O   -0.448752
    11  C   -0.298594
    12  C    0.626970
    13  O   -0.679304
    14  O   -0.448997
    15  H    0.293153
    16  H   -0.048079
    17  H    0.051881
    18  H    0.102177
    19  N   -0.651305
    20  C    0.331798
    21  C    0.393540
    22  O   -0.537760
    23  C   -0.280198
    24  C    0.118401
    25  C   -0.122864
    26  C    0.005609
    27  N   -0.408982
    28  H    0.358953
    29  H    0.059711
    30  H    0.106428
    31  H    0.081503
    32  H   -0.027621
    33  H   -0.002498
    34  H    0.080049
    35  H    0.131364
    36  H    0.092451
    37  H    0.079832
    38  H    0.290107
    39  H    0.310480
    40  H    0.310805
    41  N   -0.226054
    42  C   -0.095933
    43  C    0.528820
    44  O   -0.533890
    45  C   -0.211485
    46  C    0.801239
    47  O   -0.776680
    48  O   -0.701895
    49  H    0.117707
    50  H    0.155651
    51  H    0.081312
    52  H    0.087201
    53  N   -0.326638
    54  C   -0.304757
    55  C    0.624735
    56  O   -0.566695
    57  H    0.346079
    58  H    0.166219
    59  H    0.121370
    60  N   -0.478761
    61  C    0.421267
    62  C    0.319265
    63  O   -0.544769
    64  C   -0.374478
    65  C    0.668145
    66  N   -0.802021
    67  O   -0.537212
    68  H    0.210322
    69  H   -0.021065
    70  H    0.086516
    71  H    0.159595
    72  H    0.381203
    73  H    0.380833
    74  N   -0.214385
    75  C   -0.151593
    76  C    0.631368
    77  O   -0.564608
    78  H    0.253961
    79  H    0.112284
    80  H    0.072079
    81  N   -0.456785
    82  C    0.070054
    83  C    0.534241
    84  O   -0.536878
    85  C   -0.066080
    86  C   -0.058613
    87  C   -0.115310
    88  C   -0.061782
    89  C   -0.264247
    90  C   -0.363850
    91  C    0.407183
    92  O   -0.557679
    93  H    0.234076
    94  H    0.077146
    95  H    0.063502
    96  H    0.036695
    97  H    0.154332
    98  H    0.113907
    99  H    0.177072
   100  H    0.153500
   101  H    0.405881
   102  N   -0.415508
   103  C   -0.127011
   104  C    0.615637
   105  O   -0.470076
   106  C    0.656644
   107  C    0.064472
   108  C   -0.587633
   109  C   -0.300623
   110  H    0.231126
   111  H    0.054697
   112  H   -0.128742
   113  H   -0.026891
   114  H   -0.017881
   115  H    0.147177
   116  H    0.104366
   117  H    0.144099
   118  H    0.098040
   119  H    0.042811
   120  H    0.060905
   121  N   -0.561326
   122  C    0.078786
   123  C    0.580186
   124  O   -0.539271
   125  C    0.090474
   126  O   -0.565615
   127  H    0.229951
   128  H    0.071235
   129  H    0.041525
   130  H    0.029170
   131  H    0.399808
   132  N   -0.479173
   133  C    0.243119
   134  C    0.692959
   135  O   -0.554045
   136  C   -0.476825
   137  H    0.333761
   138  H    0.048693
   139  H    0.144345
   140  H    0.129860
   141  H    0.098207
   142  N   -0.858283
   143  C    0.612438
   144  C    0.436255
   145  O   -0.532091
   146  C   -0.228573
   147  H    0.378902
   148  H   -0.117380
   149  H    0.069830
   150  H    0.072377
   151  H    0.046745
   152  N   -0.502790
   153  C   -0.235262
   154  C    0.695046
   155  O   -0.559903
   156  C    0.108320
   157  C   -0.258263
   158  C    0.718040
   159  O   -0.630055
   160  O   -0.635226
   161  H    0.304861
   162  H    0.090363
   163  H    0.039205
   164  H   -0.014635
   165  H    0.053767
   166  H    0.054620
   167  N   -0.443760
   168  C   -0.043216
   169  H    0.060993
   170  H    0.075522
   171  H    0.051062
   172  H    0.318595
   173  Ca   1.543316
   174  O   -0.840259
   175  H    0.309577
   176  H    0.435002
 Sum of ESP charges =  -0.00000

 Normal termination of Gaussian 16 at Wed Sep 18 11:50:44 2019.
