 Gaussian 16, Revision A.03,
 Gaussian 16:  ES64L-G16RevA.03 25-Dec-2016

 ----------------------------------------------------------------------
 #b3lyp/svp scf=(tight,noincore) Test #IOP(5/87=12) Density=Current Pop
 =(MK,readradii) iop(6/33=2) iop(6/42=6)
 ----------------------------------------------------------------------

 -----------------
 Ng-293_loop3_78.0
 -----------------
 Symbolic Z-matrix:
 Charge =  0 Multiplicity = 1

                         Standard orientation:
 ---------------------------------------------------------------------
 Center     Atomic      Atomic             Coordinates (Angstroms)
 Number     Number       Type             X           Y           Z
 ---------------------------------------------------------------------
      1          6           0       -5.597263   -0.826258    5.910449
      2          6           0       -5.390673   -1.381691    4.504243
      3          8           0       -5.128623   -0.602713    3.589134
      4          1           0       -5.972309    0.195085    5.845247
      5          1           0       -6.319184   -1.444706    6.444172
      6          1           0       -4.648490   -0.830277    6.446686
      7          7           0       -5.552394   -2.691352    4.353140
      8          6           0       -5.535977   -3.416572    3.099271
      9          6           0       -6.704684   -3.079666    2.187121
     10          8           0       -7.470835   -3.937988    1.742492
     11          6           0       -4.187590   -3.283317    2.396565
     12          6           0       -2.923950   -3.466118    3.224814
     13          8           0       -1.912160   -2.825265    2.862616
     14          8           0       -2.969966   -4.168893    4.268073
     15          1           0       -5.772140   -3.295300    5.133435
     16          1           0       -5.684779   -4.476316    3.341963
     17          1           0       -4.134199   -2.304886    1.932321
     18          1           0       -4.098851   -3.998738    1.584593
     19          7           0       -6.765167   -1.816989    1.766894
     20          6           0       -7.712965   -1.323686    0.788870
     21          6           0       -7.373458   -1.583289   -0.668505
     22          8           0       -8.085978   -1.095909   -1.542562
     23          6           0       -7.925965    0.148124    1.124885
     24          6           0       -6.953468    1.168127    0.523100
     25          6           0       -5.511977    0.992266    0.989657
     26          6           0       -4.636156    1.997364    0.249917
     27          7           0       -3.219935    1.594381    0.223041
     28          1           0       -6.024085   -1.258253    2.175198
     29          1           0       -8.686027   -1.809067    0.860674
     30          1           0       -7.898880    0.138133    2.218213
     31          1           0       -8.979830    0.233478    0.823417
     32          1           0       -7.284652    2.166728    0.796620
     33          1           0       -7.072260    1.141812   -0.557130
     34          1           0       -5.203518   -0.045362    0.929820
     35          1           0       -5.427055    1.259674    2.042929
     36          1           0       -4.778160    2.966692    0.736167
     37          1           0       -4.900857    2.160500   -0.799997
     38          1           0       -2.732867    1.535637    1.103674
     39          1           0       -3.097367    0.692777   -0.219212
     40          1           0       -2.706161    2.236494   -0.370193
     41          7           0       -6.220308   -2.209065   -0.925504
     42          6           0       -5.588032   -2.546051   -2.188978
     43          6           0       -4.522543   -3.621600   -2.092396
     44          8           0       -3.865703   -3.827535   -1.064752
     45          6           0       -5.100122   -1.268161   -2.865397
     46          6           0       -4.115470   -0.407861   -2.084088
     47          8           0       -3.985102    0.784256   -2.447767
     48          8           0       -3.566127   -0.755825   -1.019408
     49          1           0       -5.601268   -2.407909   -0.150488
     50          1           0       -6.317793   -3.101681   -2.776621
     51          1           0       -6.017674   -0.703548   -2.998849
     52          1           0       -4.657174   -1.502550   -3.834034
     53          7           0       -4.141881   -4.239689   -3.209340
     54          6           0       -2.841159   -4.866698   -3.299243
     55          6           0       -1.658589   -3.948153   -3.558865
     56          8           0       -0.919390   -4.138771   -4.523100
     57          1           0       -4.608276   -4.129437   -4.107850
     58          1           0       -2.861574   -5.552134   -4.151042
     59          1           0       -2.685972   -5.574528   -2.479796
     60          7           0       -1.469520   -2.874631   -2.786723
     61          6           0       -0.317273   -2.004440   -2.728473
     62          6           0        0.993406   -2.630388   -2.272392
     63          8           0        2.075188   -2.062020   -2.398906
     64          6           0       -0.723649   -0.776353   -1.925442
     65          6           0        0.340245    0.248327   -1.568987
     66          7           0        1.259581    0.696490   -2.425475
     67          8           0        0.224182    0.844198   -0.500967
     68          1           0       -2.111163   -2.811868   -2.005342
     69          1           0       -0.109329   -1.691041   -3.755430
     70          1           0       -1.123508   -1.120339   -0.968005
     71          1           0       -1.510928   -0.220005   -2.452291
     72          1           0        1.316780    0.256900   -3.335029
     73          1           0        2.054728    1.185978   -2.036704
     74          7           0        0.868284   -3.796687   -1.632478
     75          6           0        1.955191   -4.711889   -1.323223
     76          6           0        2.841961   -4.076274   -0.262029
     77          8           0        2.380984   -3.636844    0.789874
     78          1           0       -0.056249   -3.965345   -1.274438
     79          1           0        2.505709   -4.949708   -2.227696
     80          1           0        1.602805   -5.659539   -0.920255
     81          7           0        4.126576   -4.041527   -0.623079
     82          6           0        5.290574   -3.498798    0.060335
     83          6           0        5.245328   -2.034651    0.473161
     84          8           0        6.294002   -1.432720    0.673568
     85          6           0        5.622534   -4.336471    1.291840
     86          6           0        5.806085   -5.817438    1.029643
     87          6           0        7.067522   -6.247255    0.623397
     88          6           0        4.710319   -6.689324    1.026229
     89          6           0        7.327409   -7.594242    0.343246
     90          6           0        4.939258   -8.033641    0.712387
     91          6           0        6.236653   -8.494895    0.424964
     92          8           0        6.420686   -9.783510    0.035091
     93          1           0        4.408510   -4.614494   -1.405333
     94          1           0        6.094022   -3.616154   -0.663266
     95          1           0        4.736901   -4.236480    1.926312
     96          1           0        6.472650   -3.967583    1.860984
     97          1           0        7.902228   -5.555732    0.543642
     98          1           0        3.735804   -6.267820    1.242455
     99          1           0        8.280648   -7.972368    0.037212
    100          1           0        4.054423   -8.651417    0.683753
    101          1           0        5.604398  -10.291036    0.112504
    102          7           0        4.027737   -1.496540    0.509339
    103          6           0        3.748691   -0.082156    0.681830
    104          6           0        4.454725    0.891856   -0.248715
    105          8           0        3.790777    1.688594   -0.902459
    106          6           0        3.982293    0.325346    2.126084
    107          6           0        3.361783   -0.666328    3.110234
    108          6           0        3.300733    1.673160    2.357329
    109          6           0        1.877728   -0.981540    3.053477
    110          1           0        3.274824   -2.112638    0.240926
    111          1           0        2.659514   -0.020073    0.580140
    112          1           0        5.045352    0.401039    2.342820
    113          1           0        3.512766   -0.210764    4.093984
    114          1           0        3.995252   -1.541413    3.005141
    115          1           0        3.914366    2.455343    1.897170
    116          1           0        2.298902    1.650518    1.922334
    117          1           0        3.231646    1.884478    3.428903
    118          1           0        1.662992   -1.614254    3.918902
    119          1           0        1.270411   -0.069638    3.054355
    120          1           0        1.660018   -1.519327    2.130445
    121          7           0        5.784737    0.976385   -0.184488
    122          6           0        6.658810    1.807995   -0.989795
    123          6           0        6.323133    3.249852   -0.641412
    124          8           0        6.078973    3.981237   -1.590971
    125          6           0        8.154431    1.504293   -0.918492
    126          8           0        8.420445    0.135455   -0.689541
    127          1           0        6.298647    0.302650    0.370469
    128          1           0        6.355742    1.800601   -2.032817
    129          1           0        8.601485    2.119955   -0.143572
    130          1           0        8.616911    1.907917   -1.821875
    131          1           0        7.882641   -0.396954   -1.273587
    132          7           0        6.078091    3.601938    0.626693
    133          6           0        5.687291    4.877484    1.181722
    134          6           0        4.472278    5.540554    0.551658
    135          8           0        4.126042    6.676682    0.879582
    136          6           0        6.885467    5.800485    1.394897
    137          1           0        6.337827    2.918012    1.328250
    138          1           0        5.396429    4.663703    2.209631
    139          1           0        7.224972    6.130619    0.411663
    140          1           0        6.500268    6.726557    1.822111
    141          1           0        7.620883    5.370218    2.068420
    142          7           0        3.770495    4.820265   -0.327025
    143          6           0        2.551936    5.325683   -0.945546
    144          6           0        1.420122    5.679437    0.012345
    145          8           0        1.148976    4.902959    0.924135
    146          6           0        2.079620    4.348486   -2.013817
    147          1           0        4.108777    3.955010   -0.700387
    148          1           0        2.767389    6.252876   -1.470705
    149          1           0        1.785939    3.452291   -1.461832
    150          1           0        1.243165    4.737908   -2.591826
    151          1           0        2.956272    4.098168   -2.616330
    152          7           0        0.727804    6.793986   -0.233979
    153          6           0       -0.519227    7.236075    0.352938
    154          6           0       -0.639599    7.169583    1.868124
    155          8           0       -1.729031    7.323403    2.438807
    156          6           0       -1.732536    6.682927   -0.383954
    157          6           0       -2.057376    5.236490   -0.010190
    158          6           0       -3.144867    4.798280   -0.975247
    159          8           0       -4.215022    5.444121   -1.051128
    160          8           0       -2.968639    3.754759   -1.641286
    161          1           0        1.103550    7.500137   -0.852660
    162          1           0       -0.474420    8.318806    0.201660
    163          1           0       -1.439285    6.607711   -1.425082
    164          1           0       -2.680411    7.199186   -0.199535
    165          1           0       -2.317425    5.176547    1.049093
    166          1           0       -1.228404    4.542279   -0.123229
    167          7           0        0.394995    6.904896    2.659866
    168          6           0        0.431802    6.841383    4.108075
    169          1           0       -0.150581    7.664086    4.521834
    170          1           0        0.009068    5.893861    4.441811
    171          1           0        1.464350    6.919597    4.449506
    172          1           0        1.292077    6.881007    2.201965
    173         20           0       -3.394866    2.745140   -4.125758
    174          8           0       -2.668136    5.306686   -4.038310
    175          1           0       -2.288325    6.090332   -4.429004
    176          1           0       -2.907870    5.578451   -3.146529
 ---------------------------------------------------------------------

 SCF Done:  E(RB3LYP) =  -5333.41273307     A.U. after   47 cycles

 The electronic state is 1-A.
 Alpha  occ. eigenvalues -- -145.51744 -19.21501 -19.16904 -19.14511 -19.12397
 Alpha  occ. eigenvalues --  -19.12282 -19.12136 -19.12037 -19.11511 -19.11251
 Alpha  occ. eigenvalues --  -19.11169 -19.10778 -19.09984 -19.09770 -19.09236
 Alpha  occ. eigenvalues --  -19.09058 -19.09027 -19.08910 -19.08879 -19.06984
 Alpha  occ. eigenvalues --  -19.06695 -19.06690 -19.03492 -19.03216 -15.57668
 Alpha  occ. eigenvalues --  -14.41721 -14.38936 -14.38097 -14.37556 -14.37420
 Alpha  occ. eigenvalues --  -14.36703 -14.36238 -14.35313 -14.35281 -14.34843
 Alpha  occ. eigenvalues --  -14.34404 -14.34094 -14.34077 -14.32852 -14.32215
 Alpha  occ. eigenvalues --  -12.71287 -12.71210 -12.71195 -10.30939 -10.30840
 Alpha  occ. eigenvalues --  -10.30757 -10.30519 -10.30474 -10.29439 -10.29378
 Alpha  occ. eigenvalues --  -10.28804 -10.28505 -10.27980 -10.27925 -10.27653
 Alpha  occ. eigenvalues --  -10.27625 -10.26692 -10.26309 -10.26009 -10.25991
 Alpha  occ. eigenvalues --  -10.25661 -10.25537 -10.25396 -10.25355 -10.25311
 Alpha  occ. eigenvalues --  -10.24984 -10.24075 -10.23803 -10.23716 -10.23318
 Alpha  occ. eigenvalues --  -10.22793 -10.22630 -10.21656 -10.21646 -10.21601
 Alpha  occ. eigenvalues --  -10.21274 -10.20736 -10.20562 -10.20005 -10.19849
 Alpha  occ. eigenvalues --  -10.19830 -10.19562 -10.19492 -10.19471 -10.18736
 Alpha  occ. eigenvalues --  -10.18667 -10.18374 -10.18056 -10.17995 -10.17914
 Alpha  occ. eigenvalues --  -10.17788 -10.17680 -10.16541 -10.15921 -10.15700
 Alpha  occ. eigenvalues --  -10.14455 -10.14101  -1.94218  -1.21859  -1.21273
 Alpha  occ. eigenvalues --   -1.21141  -1.07345  -1.06729  -1.05975  -1.05692
 Alpha  occ. eigenvalues --   -1.05667  -1.05043  -1.04758  -1.04227  -1.04024
 Alpha  occ. eigenvalues --   -1.03328  -1.02968  -1.02669  -1.02554  -1.02262
 Alpha  occ. eigenvalues --   -1.02192  -1.01861  -1.01532  -0.99910  -0.99729
 Alpha  occ. eigenvalues --   -0.98279  -0.96606  -0.95757  -0.95366  -0.95186
 Alpha  occ. eigenvalues --   -0.94590  -0.93787  -0.93406  -0.92963  -0.92854
 Alpha  occ. eigenvalues --   -0.92349  -0.92339  -0.92190  -0.91321  -0.90815
 Alpha  occ. eigenvalues --   -0.89860  -0.89017  -0.88652  -0.87022  -0.85714
 Alpha  occ. eigenvalues --   -0.81717  -0.81115  -0.80365  -0.80014  -0.79767
 Alpha  occ. eigenvalues --   -0.79659  -0.78757  -0.76929  -0.76862  -0.76190
 Alpha  occ. eigenvalues --   -0.75916  -0.75311  -0.75280  -0.74608  -0.73784
 Alpha  occ. eigenvalues --   -0.72561  -0.72037  -0.70784  -0.70436  -0.69295
 Alpha  occ. eigenvalues --   -0.69004  -0.68951  -0.68366  -0.67203  -0.66697
 Alpha  occ. eigenvalues --   -0.65954  -0.64433  -0.64233  -0.63813  -0.63308
 Alpha  occ. eigenvalues --   -0.62775  -0.62632  -0.62145  -0.62004  -0.61861
 Alpha  occ. eigenvalues --   -0.61030  -0.60659  -0.60283  -0.60160  -0.60103
 Alpha  occ. eigenvalues --   -0.59582  -0.59223  -0.59033  -0.58769  -0.58604
 Alpha  occ. eigenvalues --   -0.57891  -0.57696  -0.57574  -0.57440  -0.56684
 Alpha  occ. eigenvalues --   -0.56061  -0.55668  -0.55436  -0.55351  -0.55024
 Alpha  occ. eigenvalues --   -0.54588  -0.54547  -0.54121  -0.54027  -0.53581
 Alpha  occ. eigenvalues --   -0.53477  -0.53378  -0.52982  -0.52462  -0.51499
 Alpha  occ. eigenvalues --   -0.51421  -0.51089  -0.50993  -0.50740  -0.50565
 Alpha  occ. eigenvalues --   -0.50244  -0.50204  -0.49788  -0.49685  -0.49077
 Alpha  occ. eigenvalues --   -0.48840  -0.48817  -0.48702  -0.48526  -0.48027
 Alpha  occ. eigenvalues --   -0.47749  -0.47447  -0.47347  -0.47080  -0.46821
 Alpha  occ. eigenvalues --   -0.46669  -0.46522  -0.46450  -0.46113  -0.45990
 Alpha  occ. eigenvalues --   -0.45934  -0.45856  -0.45759  -0.45676  -0.45324
 Alpha  occ. eigenvalues --   -0.45221  -0.44909  -0.44706  -0.44585  -0.44263
 Alpha  occ. eigenvalues --   -0.44006  -0.43960  -0.43933  -0.43704  -0.43627
 Alpha  occ. eigenvalues --   -0.43415  -0.43215  -0.43072  -0.43017  -0.42891
 Alpha  occ. eigenvalues --   -0.42730  -0.42685  -0.42312  -0.42221  -0.42106
 Alpha  occ. eigenvalues --   -0.41845  -0.41687  -0.41592  -0.41422  -0.41238
 Alpha  occ. eigenvalues --   -0.41029  -0.40810  -0.40775  -0.40644  -0.40494
 Alpha  occ. eigenvalues --   -0.40460  -0.40406  -0.40292  -0.40150  -0.39922
 Alpha  occ. eigenvalues --   -0.39726  -0.39666  -0.39618  -0.39443  -0.39295
 Alpha  occ. eigenvalues --   -0.39140  -0.38991  -0.38939  -0.38841  -0.38710
 Alpha  occ. eigenvalues --   -0.38634  -0.38551  -0.38550  -0.38291  -0.38081
 Alpha  occ. eigenvalues --   -0.37956  -0.37553  -0.37349  -0.37202  -0.37042
 Alpha  occ. eigenvalues --   -0.36919  -0.36901  -0.36879  -0.36567  -0.36459
 Alpha  occ. eigenvalues --   -0.36338  -0.36170  -0.35799  -0.35696  -0.35542
 Alpha  occ. eigenvalues --   -0.35285  -0.35136  -0.35085  -0.35009  -0.34839
 Alpha  occ. eigenvalues --   -0.34346  -0.33968  -0.33831  -0.33656  -0.33580
 Alpha  occ. eigenvalues --   -0.33020  -0.32911  -0.32375  -0.32218  -0.31997
 Alpha  occ. eigenvalues --   -0.31096  -0.30859  -0.30703  -0.30138  -0.30096
 Alpha  occ. eigenvalues --   -0.29844  -0.29494  -0.29459  -0.29138  -0.29057
 Alpha  occ. eigenvalues --   -0.28389  -0.28111  -0.28072  -0.27741  -0.27609
 Alpha  occ. eigenvalues --   -0.27179  -0.27081  -0.26821  -0.26760  -0.26530
 Alpha  occ. eigenvalues --   -0.26515  -0.26411  -0.26277  -0.26130  -0.26031
 Alpha  occ. eigenvalues --   -0.25852  -0.25553  -0.25402  -0.25212  -0.24895
 Alpha  occ. eigenvalues --   -0.24835  -0.24666  -0.24451  -0.23987  -0.22892
 Alpha  occ. eigenvalues --   -0.22809  -0.22741  -0.22502  -0.22247  -0.22237
 Alpha  occ. eigenvalues --   -0.19685  -0.18982  -0.16866
 Alpha virt. eigenvalues --   -0.15833  -0.05382  -0.02592  -0.02427  -0.02412
 Alpha virt. eigenvalues --   -0.01576  -0.01048  -0.00784  -0.00434  -0.00264
 Alpha virt. eigenvalues --    0.00238   0.00747   0.00863   0.01111   0.01414

 Mulliken charges:
               1
     1  C    0.058303
     2  C    0.061186
     3  O   -0.322986
     4  H    0.027289
     5  H    0.005101
     6  H    0.055155
     7  N   -0.088421
     8  C    0.097161
     9  C    0.030463
    10  O   -0.276266
    11  C    0.023692
    12  C    0.091515
    13  O   -0.291236
    14  O   -0.322069
    15  H    0.127596
    16  H   -0.002118
    17  H   -0.004851
    18  H    0.026524
    19  N   -0.198504
    20  C    0.127649
    21  C    0.058805
    22  O   -0.292032
    23  C    0.059618
    24  C    0.025942
    25  C   -0.030018
    26  C    0.066491
    27  N    0.088768
    28  H    0.164954
    29  H    0.023433
    30  H    0.003347
    31  H    0.004172
    32  H   -0.004193
    33  H    0.004278
    34  H    0.028456
    35  H    0.026047
    36  H    0.052153
    37  H    0.029873
    38  H    0.165922
    39  H    0.139043
    40  H    0.144779
    41  N   -0.140823
    42  C    0.145445
    43  C    0.074536
    44  O   -0.275537
    45  C    0.077625
    46  C    0.173106
    47  O   -0.487886
    48  O   -0.361427
    49  H    0.163867
    50  H    0.002665
    51  H    0.045934
    52  H   -0.016244
    53  N   -0.145640
    54  C    0.204675
    55  C   -0.006874
    56  O   -0.266932
    57  H    0.127598
    58  H    0.011259
    59  H    0.049979
    60  N   -0.166520
    61  C    0.112502
    62  C    0.078633
    63  O   -0.283949
    64  C    0.063125
    65  C   -0.033543
    66  N   -0.035252
    67  O   -0.282377
    68  H    0.161520
    69  H    0.003912
    70  H    0.064171
    71  H    0.014214
    72  H    0.094423
    73  H    0.152594
    74  N   -0.130296
    75  C    0.249016
    76  C    0.046086
    77  O   -0.281058
    78  H    0.136560
    79  H    0.007338
    80  H    0.035223
    81  N   -0.127872
    82  C    0.101162
    83  C    0.108735
    84  O   -0.310474
    85  C    0.113156
    86  C   -0.034472
    87  C   -0.019248
    88  C   -0.034931
    89  C   -0.009814
    90  C   -0.042755
    91  C    0.179448
    92  O   -0.196535
    93  H    0.133738
    94  H   -0.002931
    95  H    0.020042
    96  H    0.017920
    97  H   -0.018462
    98  H   -0.005292
    99  H   -0.026836
   100  H   -0.038735
   101  H    0.175908
   102  N   -0.107757
   103  C    0.151176
   104  C    0.134647
   105  O   -0.300862
   106  C   -0.164951
   107  C    0.035913
   108  C    0.073615
   109  C    0.024116
   110  H    0.144103
   111  H    0.015328
   112  H   -0.022178
   113  H   -0.014458
   114  H   -0.014884
   115  H   -0.017179
   116  H    0.046467
   117  H   -0.002114
   118  H    0.027851
   119  H    0.010715
   120  H    0.023182
   121  N   -0.139772
   122  C    0.048944
   123  C    0.022711
   124  O   -0.280824
   125  C    0.303078
   126  O   -0.290922
   127  H    0.145354
   128  H    0.001466
   129  H   -0.009976
   130  H    0.007080
   131  H    0.166281
   132  N   -0.130918
   133  C    0.060987
   134  C    0.080222
   135  O   -0.302230
   136  C    0.070947
   137  H    0.123522
   138  H    0.027825
   139  H    0.020568
   140  H    0.023464
   141  H    0.007441
   142  N   -0.087826
   143  C    0.093615
   144  C    0.074726
   145  O   -0.279442
   146  C    0.029661
   147  H    0.149129
   148  H   -0.035896
   149  H    0.051980
   150  H   -0.011758
   151  H    0.036184
   152  N   -0.138643
   153  C    0.138646
   154  C    0.001673
   155  O   -0.303529
   156  C    0.065106
   157  C    0.051805
   158  C    0.049114
   159  O   -0.348969
   160  O   -0.489058
   161  H    0.123809
   162  H    0.010359
   163  H   -0.069655
   164  H    0.046787
   165  H    0.031804
   166  H    0.002532
   167  N   -0.100197
   168  C    0.139738
   169  H    0.025439
   170  H    0.029554
   171  H    0.014523
   172  H    0.115681
   173  Ca   1.178236
   174  O   -0.331483
   175  H    0.193492
   176  H    0.196463
 Sum of Mulliken charges =  -0.00000

 Dipole moment (field-independent basis, Debye):
    X=              3.4331    Y=              3.3659    Z=            -19.6573  Tot=             20.2367
 Quadrupole moment (field-independent basis, Debye-Ang):
   XX=           -601.1274   YY=           -557.7840   ZZ=           -493.6934
   XY=            -26.7788   XZ=             49.5198   YZ=            -14.8260

 ESP charges:
               1
     1  C   -0.451977
     2  C    0.856709
     3  O   -0.609861
     4  H    0.123717
     5  H    0.085897
     6  H    0.138268
     7  N   -0.740879
     8  C    0.361044
     9  C    0.366949
    10  O   -0.558710
    11  C   -0.205305
    12  C    0.714753
    13  O   -0.585450
    14  O   -0.594832
    15  H    0.377392
    16  H    0.012515
    17  H    0.060099
    18  H    0.040430
    19  N   -0.221275
    20  C    0.146621
    21  C    0.500813
    22  O   -0.560061
    23  C   -0.152398
    24  C   -0.130813
    25  C    0.472788
    26  C   -0.517689
    27  N    0.022818
    28  H    0.022113
    29  H    0.073770
    30  H    0.045099
    31  H    0.047691
    32  H    0.025581
    33  H    0.057392
    34  H    0.044559
    35  H   -0.051785
    36  H    0.175149
    37  H    0.175016
    38  H    0.277411
    39  H    0.123942
    40  H    0.118957
    41  N   -0.432515
    42  C    0.533935
    43  C    0.365300
    44  O   -0.429506
    45  C   -0.576752
    46  C    0.498707
    47  O   -0.523377
    48  O   -0.493096
    49  H    0.166988
    50  H   -0.036110
    51  H    0.172752
    52  H    0.079014
    53  N   -0.472266
    54  C    0.152403
    55  C    0.310557
    56  O   -0.513811
    57  H    0.310266
    58  H    0.039351
    59  H    0.048433
    60  N    0.001228
    61  C   -0.452626
    62  C    0.706393
    63  O   -0.562325
    64  C   -0.141573
    65  C    0.598010
    66  N   -0.755200
    67  O   -0.573402
    68  H    0.142863
    69  H    0.154865
    70  H    0.134760
    71  H    0.134654
    72  H    0.315499
    73  H    0.425321
    74  N   -0.290210
    75  C   -0.273414
    76  C    0.610091
    77  O   -0.489249
    78  H    0.260139
    79  H    0.111937
    80  H    0.155476
    81  N   -0.646625
    82  C    0.068355
    83  C    0.457771
    84  O   -0.551472
    85  C   -0.199038
    86  C    0.034893
    87  C   -0.122195
    88  C   -0.080210
    89  C   -0.293599
    90  C   -0.398301
    91  C    0.441688
    92  O   -0.561286
    93  H    0.370615
    94  H    0.099192
    95  H    0.096739
    96  H    0.106423
    97  H    0.124193
    98  H    0.147256
    99  H    0.176411
   100  H    0.158699
   101  H    0.410706
   102  N   -0.216953
   103  C   -0.321048
   104  C    0.576057
   105  O   -0.573667
   106  C    0.355573
   107  C   -0.100351
   108  C   -0.314151
   109  C   -0.074452
   110  H    0.291814
   111  H    0.199132
   112  H   -0.051960
   113  H   -0.000406
   114  H    0.004860
   115  H   -0.035844
   116  H    0.116622
   117  H    0.092725
   118  H    0.065365
   119  H    0.029434
   120  H    0.005235
   121  N   -0.318723
   122  C   -0.132661
   123  C    0.449857
   124  O   -0.522408
   125  C    0.398410
   126  O   -0.614297
   127  H    0.286872
   128  H    0.088996
   129  H   -0.000259
   130  H   -0.027919
   131  H    0.380261
   132  N   -0.488477
   133  C    0.329658
   134  C    0.568898
   135  O   -0.584251
   136  C   -0.390942
   137  H    0.295464
   138  H    0.035533
   139  H    0.114499
   140  H    0.095597
   141  H    0.100114
   142  N   -0.648443
   143  C    0.427976
   144  C    0.642677
   145  O   -0.551954
   146  C   -0.383940
   147  H    0.415848
   148  H   -0.044198
   149  H    0.077551
   150  H    0.068870
   151  H    0.105606
   152  N   -0.725193
   153  C    0.279052
   154  C    0.237212
   155  O   -0.481929
   156  C   -0.289116
   157  C   -0.054015
   158  C    0.457844
   159  O   -0.580146
   160  O   -0.509230
   161  H    0.334687
   162  H    0.061151
   163  H    0.076176
   164  H    0.101221
   165  H    0.104820
   166  H    0.047582
   167  N   -0.045618
   168  C   -0.247006
   169  H    0.097011
   170  H    0.114289
   171  H    0.100215
   172  H    0.182928
   173  Ca   1.134248
   174  O   -0.726950
   175  H    0.400182
   176  H    0.368207
 Sum of ESP charges =   0.00000

 Normal termination of Gaussian 16 at Tue Sep 17 23:48:17 2019.
