 Gaussian 16, Revision A.03,
 Gaussian 16:  ES64L-G16RevA.03 25-Dec-2016

 ----------------------------------------------------------------------
 #b3lyp/svp scf=(tight,noincore) Test #IOP(5/87=12) Density=Current Pop
 =(MK,readradii) iop(6/33=2) iop(6/42=6)
 ----------------------------------------------------------------------

 -----------------
 Ng-295_loop3_10.0
 -----------------
 Symbolic Z-matrix:
 Charge =  0 Multiplicity = 1

                         Standard orientation:
 ---------------------------------------------------------------------
 Center     Atomic      Atomic             Coordinates (Angstroms)
 Number     Number       Type             X           Y           Z
 ---------------------------------------------------------------------
      1          6           0       10.975064   -3.942978    4.685790
      2          6           0        9.810494   -3.705553    3.735523
      3          8           0        8.901365   -4.513987    3.583146
      4          1           0       10.599054   -4.029383    5.705519
      5          1           0       11.489118   -4.863710    4.409575
      6          1           0       11.670661   -3.106204    4.624796
      7          7           0        9.802750   -2.522655    3.118926
      8          6           0        8.747184   -2.032260    2.256550
      9          6           0        9.355770   -1.058398    1.256492
     10          8           0        9.852676    0.003501    1.634323
     11          6           0        7.609193   -1.300538    2.968139
     12          6           0        6.252566   -1.205398    2.292407
     13          8           0        5.623185   -2.223058    1.924237
     14          8           0        5.717910   -0.077499    2.175848
     15          1           0       10.595609   -1.972907    3.420509
     16          1           0        8.405230   -2.918559    1.729539
     17          1           0        7.983490   -0.293378    3.136756
     18          1           0        7.412103   -1.676025    3.972463
     19          7           0        9.185076   -1.350083   -0.038376
     20          6           0       10.025880   -0.925273   -1.136504
     21          6           0        9.313044   -0.328375   -2.341361
     22          8           0        9.974720    0.268269   -3.183976
     23          6           0       10.954537   -2.091334   -1.487499
     24          6           0       11.859719   -2.682972   -0.422554
     25          6           0       12.428832   -4.033301   -0.864508
     26          6           0       13.342203   -4.710200    0.164891
     27          7           0       14.612333   -3.964814    0.194376
     28          1           0        8.561771   -2.109713   -0.241974
     29          1           0       10.666656   -0.102118   -0.839315
     30          1           0       11.609286   -1.647127   -2.244588
     31          1           0       10.320248   -2.899452   -1.847393
     32          1           0       11.276967   -2.749396    0.502750
     33          1           0       12.655471   -1.963418   -0.237835
     34          1           0       12.996325   -3.896952   -1.781001
     35          1           0       11.651134   -4.744475   -1.129873
     36          1           0       13.598232   -5.703180   -0.182298
     37          1           0       12.913842   -4.825080    1.151962
     38          1           0       15.375372   -4.589181    0.432989
     39          1           0       14.838750   -3.532309   -0.689578
     40          1           0       14.547797   -3.272514    0.921463
     41          7           0        7.982950   -0.336258   -2.471306
     42          6           0        7.210437    0.256967   -3.546066
     43          6           0        7.071870    1.778738   -3.492104
     44          8           0        6.483635    2.330225   -4.415869
     45          6           0        5.781104   -0.276098   -3.584167
     46          6           0        4.941274   -0.279164   -2.313035
     47          8           0        5.367855    0.146033   -1.226004
     48          8           0        3.843299   -0.872155   -2.232344
     49          1           0        7.392178   -0.651988   -1.715063
     50          1           0        7.692008   -0.055894   -4.473917
     51          1           0        5.902325   -1.307767   -3.925876
     52          1           0        5.224797    0.227712   -4.369340
     53          7           0        7.473108    2.413592   -2.387719
     54          6           0        7.234430    3.794972   -2.028522
     55          6           0        5.782771    4.168709   -1.743030
     56          8           0        5.291804    5.177214   -2.266451
     57          1           0        7.876238    1.811967   -1.681721
     58          1           0        7.559816    4.336134   -2.922428
     59          1           0        7.958862    4.065076   -1.260445
     60          7           0        4.999165    3.279330   -1.149089
     61          6           0        3.624799    3.583163   -0.787839
     62          6           0        3.258857    2.818628    0.469330
     63          8           0        3.760006    1.706449    0.675501
     64          6           0        2.684744    3.210153   -1.929837
     65          6           0        1.284598    3.723420   -1.618313
     66          7           0        0.374957    2.792124   -1.318579
     67          8           0        0.946516    4.885034   -1.843600
     68          1           0        5.317955    2.397630   -0.772553
     69          1           0        3.438410    4.627781   -0.570971
     70          1           0        2.561425    2.134515   -2.028304
     71          1           0        3.079574    3.619952   -2.864007
     72          1           0        0.619225    1.815418   -1.383994
     73          1           0       -0.603539    3.008168   -1.254785
     74          7           0        2.317584    3.309786    1.274358
     75          6           0        1.754899    2.598042    2.407410
     76          6           0        0.245992    2.757296    2.434600
     77          8           0       -0.424018    1.860599    2.942853
     78          1           0        1.955373    4.204990    0.965144
     79          1           0        2.122897    3.005549    3.351769
     80          1           0        1.909213    1.519293    2.383172
     81          7           0       -0.328512    3.719624    1.701681
     82          6           0       -1.746372    4.022348    1.678605
     83          6           0       -2.554634    3.238946    0.662341
     84          8           0       -2.370107    3.478543   -0.533754
     85          6           0       -1.945004    5.530530    1.509391
     86          6           0       -3.316599    6.054691    1.851998
     87          6           0       -4.223897    6.330027    0.819428
     88          6           0       -3.671336    6.176393    3.200053
     89          6           0       -5.531880    6.748992    1.108306
     90          6           0       -4.996206    6.532131    3.484779
     91          6           0       -5.911134    6.842429    2.456614
     92          8           0       -7.196932    7.206730    2.741057
     93          1           0        0.289158    4.440359    1.364303
     94          1           0       -2.153278    3.715254    2.639344
     95          1           0       -1.680268    5.783450    0.482675
     96          1           0       -1.334822    6.041101    2.259521
     97          1           0       -3.990168    6.209851   -0.228201
     98          1           0       -2.934806    6.064592    3.978271
     99          1           0       -6.234611    6.845223    0.285197
    100          1           0       -5.351574    6.552341    4.502229
    101          1           0       -7.274642    7.218982    3.689641
    102          7           0       -3.371310    2.310067    1.149295
    103          6           0       -4.049579    1.180512    0.540315
    104          6           0       -4.768588    1.427879   -0.784085
    105          8           0       -4.309949    2.108102   -1.688268
    106          6           0       -3.137277   -0.038785    0.560802
    107          6           0       -3.208235   -0.555207    1.994110
    108          6           0       -1.714966    0.276632    0.112199
    109          6           0       -2.285728   -1.716697    2.345284
    110          1           0       -3.472395    2.244055    2.156432
    111          1           0       -4.814691    0.959329    1.288434
    112          1           0       -3.528264   -0.844435   -0.055604
    113          1           0       -4.199808   -0.927710    2.234373
    114          1           0       -2.842373    0.226727    2.664426
    115          1           0       -1.216215    1.101131    0.629450
    116          1           0       -1.152171   -0.652823    0.223440
    117          1           0       -1.795948    0.517830   -0.943531
    118          1           0       -2.342588   -2.554565    1.655252
    119          1           0       -1.228187   -1.453043    2.265956
    120          1           0       -2.443042   -2.133845    3.340543
    121          7           0       -5.835899    0.639669   -0.962333
    122          6           0       -6.680750    0.672034   -2.137611
    123          6           0       -8.167207    0.644442   -1.837136
    124          8           0       -8.965843    0.989671   -2.714118
    125          6           0       -6.332411   -0.526060   -3.012444
    126          8           0       -6.764614   -1.759753   -2.482254
    127          1           0       -6.061053   -0.085977   -0.292077
    128          1           0       -6.490609    1.559522   -2.745568
    129          1           0       -5.267582   -0.673064   -3.202254
    130          1           0       -6.850814   -0.481258   -3.970750
    131          1           0       -6.634351   -2.378125   -3.205544
    132          7           0       -8.534386    0.305379   -0.599268
    133          6           0       -9.891649    0.301887   -0.107408
    134          6           0      -10.979753    0.047738   -1.132560
    135          8           0      -11.648076    1.031506   -1.449019
    136          6           0      -10.070701    1.477722    0.851368
    137          1           0       -7.811049    0.204259    0.094028
    138          1           0       -9.947031   -0.592663    0.517583
    139          1           0      -11.094128    1.441864    1.224883
    140          1           0       -9.285307    1.234601    1.576040
    141          1           0       -9.792211    2.384699    0.309855
    142          7           0      -11.161630   -1.105877   -1.780473
    143          6           0      -10.438249   -2.343255   -1.535082
    144          6           0      -11.292078   -3.229129   -0.636581
    145          8           0      -12.481291   -3.462709   -0.865081
    146          6           0      -10.112964   -2.938425   -2.899253
    147          1           0      -11.907978   -1.179144   -2.446203
    148          1           0       -9.476979   -2.090567   -1.103909
    149          1           0      -10.958498   -2.886974   -3.591586
    150          1           0       -9.276074   -2.380438   -3.335906
    151          1           0       -9.735202   -3.958848   -2.817807
    152          7           0      -10.670118   -4.029710    0.234128
    153          6           0       -9.292012   -4.377353    0.476754
    154          6           0       -8.936190   -4.177552    1.936196
    155          8           0       -7.802426   -3.919190    2.325976
    156          6           0       -9.011831   -5.768362   -0.097349
    157          6           0       -7.513858   -5.930353   -0.303349
    158          6           0       -7.104455   -6.946021   -1.362551
    159          8           0       -7.857541   -7.948960   -1.403490
    160          8           0       -6.119152   -6.795638   -2.120813
    161          1           0      -11.298091   -4.651692    0.723301
    162          1           0       -8.663674   -3.714318   -0.133308
    163          1           0       -9.441254   -5.850642   -1.096061
    164          1           0       -9.411910   -6.536935    0.565246
    165          1           0       -7.134954   -6.367474    0.621398
    166          1           0       -6.983152   -4.994911   -0.497765
    167          7           0       -9.896855   -4.294750    2.859660
    168          6           0       -9.685051   -4.186077    4.293511
    169          1           0      -10.545153   -3.698397    4.751422
    170          1           0       -9.562977   -5.182212    4.720011
    171          1           0       -8.789093   -3.596548    4.485167
    172          1           0      -10.800879   -4.662752    2.602917
    173         20           0        3.748140   -1.189076    0.481310
    174          8           0        4.294800   -3.397390   -0.749223
    175          1           0        4.173109   -4.339876   -0.834728
    176          1           0        5.145878   -3.229955   -1.148887
 ---------------------------------------------------------------------

 SCF Done:  E(RB3LYP) =  -5333.31496083     A.U. after   66 cycles

 The electronic state is 1-A.
 Alpha  occ. eigenvalues -- -145.46747 -19.21585 -19.16345 -19.14183 -19.14071
 Alpha  occ. eigenvalues --  -19.12724 -19.12344 -19.12286 -19.12030 -19.10078
 Alpha  occ. eigenvalues --  -19.09681 -19.09326 -19.09310 -19.09236 -19.09159
 Alpha  occ. eigenvalues --  -19.08787 -19.08607 -19.07832 -19.07780 -19.06778
 Alpha  occ. eigenvalues --  -19.06364 -19.04851 -18.97572 -18.97375 -15.52552
 Alpha  occ. eigenvalues --  -14.57343 -14.40659 -14.40564 -14.39297 -14.38961
 Alpha  occ. eigenvalues --  -14.38376 -14.37308 -14.36043 -14.35922 -14.35142
 Alpha  occ. eigenvalues --  -14.35108 -14.34037 -14.33662 -14.32640 -14.31823
 Alpha  occ. eigenvalues --  -12.66174 -12.66115 -12.66089 -10.35969 -10.32736
 Alpha  occ. eigenvalues --  -10.32350 -10.31828 -10.31703 -10.31462 -10.29905
 Alpha  occ. eigenvalues --  -10.29358 -10.29035 -10.28615 -10.28571 -10.28315
 Alpha  occ. eigenvalues --  -10.27999 -10.27924 -10.27841 -10.27461 -10.27413
 Alpha  occ. eigenvalues --  -10.27196 -10.26874 -10.25828 -10.25542 -10.25526
 Alpha  occ. eigenvalues --  -10.25305 -10.25204 -10.25105 -10.24997 -10.24924
 Alpha  occ. eigenvalues --  -10.24563 -10.23698 -10.23281 -10.22702 -10.22382
 Alpha  occ. eigenvalues --  -10.21842 -10.20975 -10.20944 -10.20782 -10.20566
 Alpha  occ. eigenvalues --  -10.20553 -10.20284 -10.20087 -10.19958 -10.19893
 Alpha  occ. eigenvalues --  -10.19680 -10.19529 -10.19061 -10.19052 -10.18828
 Alpha  occ. eigenvalues --  -10.18734 -10.18135 -10.17133 -10.16487 -10.16221
 Alpha  occ. eigenvalues --  -10.14299 -10.10620  -1.89158  -1.16748  -1.16244
 Alpha  occ. eigenvalues --   -1.16098  -1.13411  -1.07741  -1.07266  -1.07148
 Alpha  occ. eigenvalues --   -1.06094  -1.05898  -1.05524  -1.05366  -1.05345
 Alpha  occ. eigenvalues --   -1.03611  -1.03546  -1.02673  -1.02502  -1.01574
 Alpha  occ. eigenvalues --   -1.01371  -1.01337  -1.00598  -1.00523  -0.99675
 Alpha  occ. eigenvalues --   -0.98140  -0.97833  -0.97117  -0.95688  -0.94924
 Alpha  occ. eigenvalues --   -0.94854  -0.94298  -0.93264  -0.93027  -0.92638
 Alpha  occ. eigenvalues --   -0.92428  -0.91592  -0.91353  -0.91223  -0.90498
 Alpha  occ. eigenvalues --   -0.90377  -0.89350  -0.88826  -0.88621  -0.85517
 Alpha  occ. eigenvalues --   -0.85272  -0.83185  -0.82203  -0.81694  -0.81339
 Alpha  occ. eigenvalues --   -0.80489  -0.79663  -0.78852  -0.77818  -0.76982
 Alpha  occ. eigenvalues --   -0.76343  -0.75612  -0.75337  -0.74825  -0.74505
 Alpha  occ. eigenvalues --   -0.74167  -0.73812  -0.73672  -0.73180  -0.72633
 Alpha  occ. eigenvalues --   -0.71611  -0.70571  -0.70108  -0.69602  -0.68824
 Alpha  occ. eigenvalues --   -0.67946  -0.66753  -0.66361  -0.65560  -0.65377
 Alpha  occ. eigenvalues --   -0.64911  -0.64734  -0.64065  -0.63675  -0.63334
 Alpha  occ. eigenvalues --   -0.62883  -0.62654  -0.62558  -0.62368  -0.61382
 Alpha  occ. eigenvalues --   -0.61328  -0.61109  -0.60404  -0.60218  -0.60040
 Alpha  occ. eigenvalues --   -0.59691  -0.59300  -0.58874  -0.58627  -0.57685
 Alpha  occ. eigenvalues --   -0.57462  -0.57149  -0.56837  -0.56586  -0.56383
 Alpha  occ. eigenvalues --   -0.56286  -0.56006  -0.55615  -0.54970  -0.54693
 Alpha  occ. eigenvalues --   -0.54542  -0.54156  -0.54043  -0.53413  -0.53099
 Alpha  occ. eigenvalues --   -0.52746  -0.52684  -0.52124  -0.52001  -0.51498
 Alpha  occ. eigenvalues --   -0.51296  -0.51166  -0.50905  -0.50736  -0.50489
 Alpha  occ. eigenvalues --   -0.50164  -0.49977  -0.49623  -0.49476  -0.49106
 Alpha  occ. eigenvalues --   -0.49066  -0.48864  -0.48717  -0.48659  -0.48539
 Alpha  occ. eigenvalues --   -0.48239  -0.47799  -0.47484  -0.47138  -0.46933
 Alpha  occ. eigenvalues --   -0.46752  -0.46594  -0.46414  -0.46328  -0.45872
 Alpha  occ. eigenvalues --   -0.45641  -0.45454  -0.45343  -0.45325  -0.45110
 Alpha  occ. eigenvalues --   -0.44956  -0.44726  -0.44714  -0.44640  -0.44341
 Alpha  occ. eigenvalues --   -0.44242  -0.44016  -0.43948  -0.43893  -0.43727
 Alpha  occ. eigenvalues --   -0.43564  -0.43341  -0.43228  -0.43176  -0.42963
 Alpha  occ. eigenvalues --   -0.42717  -0.42534  -0.42345  -0.42215  -0.41988
 Alpha  occ. eigenvalues --   -0.41762  -0.41650  -0.41598  -0.41488  -0.41389
 Alpha  occ. eigenvalues --   -0.41321  -0.41092  -0.40851  -0.40769  -0.40732
 Alpha  occ. eigenvalues --   -0.40424  -0.40155  -0.40134  -0.39994  -0.39915
 Alpha  occ. eigenvalues --   -0.39781  -0.39557  -0.39336  -0.39248  -0.39137
 Alpha  occ. eigenvalues --   -0.38999  -0.38884  -0.38666  -0.38533  -0.38442
 Alpha  occ. eigenvalues --   -0.38285  -0.38097  -0.37903  -0.37831  -0.37590
 Alpha  occ. eigenvalues --   -0.37458  -0.37426  -0.37026  -0.37001  -0.36928
 Alpha  occ. eigenvalues --   -0.36897  -0.36729  -0.36690  -0.36240  -0.35926
 Alpha  occ. eigenvalues --   -0.35385  -0.35303  -0.35157  -0.35126  -0.34632
 Alpha  occ. eigenvalues --   -0.34583  -0.34170  -0.34046  -0.33802  -0.33404
 Alpha  occ. eigenvalues --   -0.33249  -0.33167  -0.32760  -0.32398  -0.32066
 Alpha  occ. eigenvalues --   -0.32002  -0.31364  -0.30867  -0.30762  -0.30422
 Alpha  occ. eigenvalues --   -0.30161  -0.30025  -0.29180  -0.29074  -0.28311
 Alpha  occ. eigenvalues --   -0.28125  -0.28084  -0.27947  -0.27904  -0.27537
 Alpha  occ. eigenvalues --   -0.27309  -0.27219  -0.26881  -0.26637  -0.26375
 Alpha  occ. eigenvalues --   -0.26301  -0.26168  -0.26018  -0.25978  -0.25890
 Alpha  occ. eigenvalues --   -0.24803  -0.24641  -0.24274  -0.24179  -0.24093
 Alpha  occ. eigenvalues --   -0.23940  -0.23703  -0.23643  -0.23460  -0.23164
 Alpha  occ. eigenvalues --   -0.22737  -0.22481  -0.21334  -0.20907  -0.20825
 Alpha  occ. eigenvalues --   -0.14531  -0.14060  -0.11776
 Alpha virt. eigenvalues --   -0.11301  -0.09423  -0.05783  -0.05430  -0.04089
 Alpha virt. eigenvalues --   -0.03494  -0.02800  -0.02539  -0.02213  -0.02059
 Alpha virt. eigenvalues --   -0.01556  -0.00676  -0.00419  -0.00120  -0.00087

 Mulliken charges:
               1
     1  C    0.061304
     2  C   -0.021499
     3  O   -0.271398
     4  H    0.064304
     5  H    0.026655
     6  H   -0.017149
     7  N   -0.142796
     8  C    0.135345
     9  C    0.035917
    10  O   -0.259336
    11  C    0.171285
    12  C    0.052890
    13  O   -0.461892
    14  O   -0.371219
    15  H    0.113401
    16  H   -0.017813
    17  H    0.009854
    18  H    0.016793
    19  N   -0.127851
    20  C    0.152103
    21  C    0.055914
    22  O   -0.270995
    23  C   -0.001293
    24  C    0.033955
    25  C   -0.038483
    26  C    0.077944
    27  N    0.148586
    28  H    0.117173
    29  H    0.028762
    30  H    0.030624
    31  H   -0.008276
    32  H    0.006320
    33  H   -0.021652
    34  H    0.016671
    35  H    0.043655
    36  H    0.043083
    37  H    0.068631
    38  H    0.095387
    39  H    0.119454
    40  H    0.113329
    41  N   -0.147073
    42  C    0.138990
    43  C    0.066496
    44  O   -0.266292
    45  C    0.034865
    46  C    0.097269
    47  O   -0.414247
    48  O   -0.424024
    49  H    0.100299
    50  H    0.022007
    51  H    0.006448
    52  H    0.061382
    53  N   -0.136480
    54  C    0.212539
    55  C    0.053743
    56  O   -0.278663
    57  H    0.119026
    58  H    0.032948
    59  H    0.026161
    60  N   -0.120747
    61  C    0.072815
    62  C    0.055313
    63  O   -0.325662
    64  C    0.183624
    65  C   -0.093591
    66  N   -0.062065
    67  O   -0.254959
    68  H    0.149050
    69  H    0.020775
    70  H   -0.015169
    71  H    0.061703
    72  H    0.107548
    73  H    0.146383
    74  N   -0.146284
    75  C    0.275778
    76  C    0.009682
    77  O   -0.293585
    78  H    0.145072
    79  H    0.051807
    80  H    0.020266
    81  N   -0.115911
    82  C    0.144549
    83  C    0.081761
    84  O   -0.269013
    85  C    0.113282
    86  C   -0.051918
    87  C    0.003467
    88  C   -0.007329
    89  C   -0.034011
    90  C   -0.037143
    91  C    0.167762
    92  O   -0.180096
    93  H    0.113636
    94  H   -0.031506
    95  H    0.036523
    96  H   -0.007226
    97  H    0.000303
    98  H   -0.032319
    99  H   -0.007335
   100  H   -0.046435
   101  H    0.163928
   102  N   -0.100412
   103  C    0.101840
   104  C    0.124370
   105  O   -0.222922
   106  C   -0.083130
   107  C   -0.010846
   108  C    0.060650
   109  C    0.026059
   110  H    0.135933
   111  H   -0.023553
   112  H    0.001709
   113  H    0.016368
   114  H    0.003693
   115  H    0.034918
   116  H   -0.020160
   117  H    0.018079
   118  H    0.003813
   119  H   -0.018861
   120  H    0.015533
   121  N   -0.171797
   122  C    0.123285
   123  C    0.084344
   124  O   -0.260735
   125  C    0.208602
   126  O   -0.320285
   127  H    0.130340
   128  H    0.048297
   129  H    0.002748
   130  H    0.007892
   131  H    0.182702
   132  N   -0.143930
   133  C    0.035995
   134  C    0.065042
   135  O   -0.265966
   136  C    0.105801
   137  H    0.096445
   138  H   -0.007916
   139  H    0.031947
   140  H   -0.021506
   141  H    0.032760
   142  N   -0.088380
   143  C    0.003386
   144  C    0.084873
   145  O   -0.280863
   146  C    0.066143
   147  H    0.125954
   148  H    0.017830
   149  H    0.017194
   150  H    0.008745
   151  H    0.025747
   152  N   -0.106454
   153  C    0.025841
   154  C    0.089035
   155  O   -0.278700
   156  C    0.095494
   157  C    0.032288
   158  C    0.045816
   159  O   -0.357680
   160  O   -0.339971
   161  H    0.107112
   162  H    0.021154
   163  H    0.015151
   164  H   -0.015226
   165  H   -0.002630
   166  H   -0.030554
   167  N   -0.164224
   168  C    0.125130
   169  H    0.014223
   170  H    0.024308
   171  H    0.038528
   172  H    0.099620
   173  Ca   1.367378
   174  O   -0.296154
   175  H    0.191670
   176  H    0.185260
 Sum of Mulliken charges =  -0.00000

 Dipole moment (field-independent basis, Debye):
    X=             64.1586    Y=             -4.8809    Z=             19.1052  Tot=             67.1204
 Quadrupole moment (field-independent basis, Debye-Ang):
   XX=           -179.8023   YY=           -694.4818   ZZ=           -582.6175
   XY=           -350.6617   XZ=            -68.5612   YZ=             30.5256

 ESP charges:
               1
     1  C   -0.506478
     2  C    0.723888
     3  O   -0.563991
     4  H    0.167972
     5  H    0.128798
     6  H    0.107128
     7  N   -0.577702
     8  C    0.176593
     9  C    0.550053
    10  O   -0.512346
    11  C   -0.072887
    12  C    0.721291
    13  O   -0.833531
    14  O   -0.719744
    15  H    0.278154
    16  H    0.024326
    17  H    0.028526
    18  H    0.074340
    19  N   -0.618114
    20  C    0.396743
    21  C    0.288826
    22  O   -0.516691
    23  C   -0.172216
    24  C    0.304101
    25  C   -0.211317
    26  C    0.141399
    27  N   -0.230813
    28  H    0.306285
    29  H    0.033051
    30  H    0.036054
    31  H    0.018561
    32  H   -0.118998
    33  H   -0.055141
    34  H    0.050766
    35  H    0.095254
    36  H    0.045071
    37  H    0.052409
    38  H    0.208179
    39  H    0.246696
    40  H    0.216782
    41  N   -0.202105
    42  C   -0.139511
    43  C    0.435697
    44  O   -0.480292
    45  C   -0.247877
    46  C    0.925148
    47  O   -0.812489
    48  O   -0.823507
    49  H    0.158896
    50  H    0.167492
    51  H    0.067544
    52  H    0.112376
    53  N   -0.179776
    54  C   -0.372444
    55  C    0.552426
    56  O   -0.510809
    57  H    0.256986
    58  H    0.167452
    59  H    0.145497
    60  N   -0.224517
    61  C   -0.255202
    62  C    0.609606
    63  O   -0.537188
    64  C   -0.332881
    65  C    0.649251
    66  N   -0.682421
    67  O   -0.540298
    68  H    0.271017
    69  H    0.132024
    70  H    0.092676
    71  H    0.214487
    72  H    0.288637
    73  H    0.346626
    74  N   -0.418256
    75  C   -0.021205
    76  C    0.464761
    77  O   -0.526781
    78  H    0.271662
    79  H    0.102876
    80  H    0.052808
    81  N   -0.296560
    82  C   -0.048039
    83  C    0.486022
    84  O   -0.468115
    85  C   -0.209126
    86  C    0.094828
    87  C   -0.177875
    88  C   -0.131619
    89  C   -0.243690
    90  C   -0.353879
    91  C    0.389861
    92  O   -0.533134
    93  H    0.252697
    94  H    0.068435
    95  H    0.100072
    96  H    0.072715
    97  H    0.171790
    98  H    0.145284
    99  H    0.172504
   100  H    0.147819
   101  H    0.398674
   102  N   -0.314668
   103  C   -0.368089
   104  C    0.773748
   105  O   -0.495633
   106  C    0.432012
   107  C   -0.137072
   108  C   -0.551709
   109  C   -0.108063
   110  H    0.273053
   111  H    0.086867
   112  H   -0.002966
   113  H    0.050258
   114  H    0.048775
   115  H    0.184654
   116  H    0.110136
   117  H    0.130316
   118  H    0.024996
   119  H    0.015709
   120  H    0.051940
   121  N   -0.539862
   122  C   -0.213292
   123  C    0.606402
   124  O   -0.489470
   125  C    0.143890
   126  O   -0.544146
   127  H    0.300880
   128  H    0.156451
   129  H    0.053393
   130  H    0.024410
   131  H    0.396314
   132  N   -0.422243
   133  C    0.402268
   134  C    0.465343
   135  O   -0.517897
   136  C   -0.470525
   137  H    0.250218
   138  H   -0.049277
   139  H    0.136262
   140  H    0.096511
   141  H    0.130245
   142  N   -0.676336
   143  C    0.595408
   144  C    0.421058
   145  O   -0.539478
   146  C   -0.300707
   147  H    0.356141
   148  H   -0.066600
   149  H    0.074274
   150  H    0.076867
   151  H    0.088187
   152  N   -0.608029
   153  C   -0.178179
   154  C    0.628661
   155  O   -0.558799
   156  C    0.197305
   157  C   -0.220668
   158  C    0.718464
   159  O   -0.651825
   160  O   -0.645377
   161  H    0.333903
   162  H    0.102026
   163  H    0.019955
   164  H   -0.017072
   165  H    0.061372
   166  H   -0.013277
   167  N   -0.356824
   168  C   -0.120510
   169  H    0.064134
   170  H    0.076204
   171  H    0.098474
   172  H    0.271301
   173  Ca   1.695681
   174  O   -0.788814
   175  H    0.441656
   176  H    0.372967
 Sum of ESP charges =  -0.00000

 Normal termination of Gaussian 16 at Wed Sep 18 00:02:55 2019.
