 Gaussian 16, Revision A.03,
 Gaussian 16:  ES64L-G16RevA.03 25-Dec-2016

 ----------------------------------------------------------------------
 #b3lyp/svp scf=(tight,noincore) Test #IOP(5/87=12) Density=Current Pop
 =(MK,readradii) iop(6/33=2) iop(6/42=6)
 ----------------------------------------------------------------------

 ---------------
 Ng-31_loop3_5.0
 ---------------
 Symbolic Z-matrix:
 Charge =  0 Multiplicity = 1

                         Standard orientation:
 ---------------------------------------------------------------------
 Center     Atomic      Atomic             Coordinates (Angstroms)
 Number     Number       Type             X           Y           Z
 ---------------------------------------------------------------------
      1          6           0        3.527044   -5.643160    2.186230
      2          6           0        4.091034   -4.292691    1.753623
      3          8           0        3.634482   -3.211353    2.119366
      4          1           0        3.402185   -5.653905    3.269382
      5          1           0        2.561552   -5.804520    1.707528
      6          1           0        4.215413   -6.435504    1.892330
      7          7           0        5.271446   -4.384465    1.124651
      8          6           0        6.301059   -3.370891    0.971144
      9          6           0        6.378608   -3.000557   -0.506266
     10          8           0        6.108674   -3.826920   -1.380542
     11          6           0        7.566949   -3.953392    1.583937
     12          6           0        7.973517   -5.311130    1.032439
     13          8           0        8.701156   -5.368916    0.011752
     14          8           0        7.512700   -6.329513    1.587006
     15          1           0        5.652199   -5.286564    0.883519
     16          1           0        6.037277   -2.445942    1.486495
     17          1           0        7.478503   -3.948795    2.667891
     18          1           0        8.418730   -3.294021    1.405613
     19          7           0        6.919922   -1.816402   -0.780048
     20          6           0        7.263435   -1.355961   -2.116945
     21          6           0        6.169612   -0.760751   -2.979602
     22          8           0        6.229517   -0.771024   -4.205165
     23          6           0        8.512479   -0.490010   -1.965563
     24          6           0        9.678319   -1.132745   -1.206612
     25          6           0       10.065271   -2.544629   -1.602279
     26          6           0       11.187752   -3.162750   -0.767077
     27          7           0       11.226122   -4.622885   -0.921782
     28          1           0        7.033771   -1.149768   -0.037393
     29          1           0        7.597935   -2.204949   -2.720210
     30          1           0        8.350876    0.425343   -1.404747
     31          1           0        8.936839   -0.222511   -2.933222
     32          1           0        9.464575   -0.991700   -0.148775
     33          1           0       10.563977   -0.548084   -1.443850
     34          1           0       10.285134   -2.461339   -2.666103
     35          1           0        9.245787   -3.204506   -1.309689
     36          1           0       11.049292   -2.951497    0.292546
     37          1           0       12.198547   -2.792407   -0.989875
     38          1           0       12.101515   -5.054915   -0.681910
     39          1           0       10.600697   -5.026354   -0.243581
     40          1           0       10.821679   -4.956091   -1.794364
     41          7           0        5.051451   -0.426960   -2.338275
     42          6           0        3.807660   -0.008699   -2.969418
     43          6           0        3.458780    1.418048   -2.579195
     44          8           0        2.535418    1.984148   -3.155853
     45          6           0        2.666052   -0.892386   -2.473002
     46          6           0        2.522906   -0.888348   -0.964893
     47          8           0        1.406515   -1.065345   -0.419967
     48          8           0        3.461974   -0.493560   -0.244898
     49          1           0        5.044020   -0.474639   -1.326459
     50          1           0        3.809692   -0.040319   -4.051821
     51          1           0        2.857099   -1.914848   -2.808073
     52          1           0        1.739772   -0.623971   -2.982764
     53          7           0        4.117616    1.967552   -1.559646
     54          6           0        3.722826    3.204662   -0.906118
     55          6           0        4.514798    3.340777    0.393403
     56          8           0        5.313053    2.505939    0.794195
     57          1           0        4.670142    1.292209   -1.045811
     58          1           0        2.672123    3.139160   -0.626058
     59          1           0        3.863193    4.021977   -1.605541
     60          7           0        4.293023    4.374108    1.204539
     61          6           0        3.293299    5.409802    1.008606
     62          6           0        2.457561    5.615935    2.266164
     63          8           0        2.973834    5.468430    3.379809
     64          6           0        3.920192    6.746084    0.609790
     65          6           0        4.894626    6.704048   -0.570724
     66          7           0        6.172459    6.351742   -0.439871
     67          8           0        4.516425    6.967558   -1.706253
     68          1           0        4.799002    4.386239    2.075882
     69          1           0        2.582101    5.247186    0.201602
     70          1           0        4.577688    7.133858    1.380459
     71          1           0        3.104244    7.451380    0.447966
     72          1           0        6.562559    5.970415    0.402098
     73          1           0        6.796384    6.305452   -1.236034
     74          7           0        1.164957    5.957623    2.223454
     75          6           0        0.385616    6.228082    1.038558
     76          6           0       -0.181424    4.891036    0.568054
     77          8           0        0.460400    3.866263    0.807434
     78          1           0        0.711009    5.951353    3.127993
     79          1           0        1.017162    6.677126    0.270437
     80          1           0       -0.387072    6.959180    1.286445
     81          7           0       -1.390640    4.906079   -0.003759
     82          6           0       -2.302069    3.789116   -0.095900
     83          6           0       -2.998074    3.742439   -1.453655
     84          8           0       -3.338057    4.782329   -2.020700
     85          6           0       -3.337714    3.889912    1.019035
     86          6           0       -2.757938    3.691686    2.401557
     87          6           0       -2.281082    2.420553    2.761738
     88          6           0       -2.484969    4.755750    3.266400
     89          6           0       -1.653864    2.168509    3.980086
     90          6           0       -1.814718    4.502114    4.469078
     91          6           0       -1.351287    3.234731    4.855824
     92          8           0       -0.865065    2.957916    6.104287
     93          1           0       -1.868630    5.779489   -0.135215
     94          1           0       -1.693566    2.906220    0.114144
     95          1           0       -3.889227    2.962340    0.875012
     96          1           0       -4.011279    4.740802    0.946259
     97          1           0       -2.510536    1.557107    2.142778
     98          1           0       -2.789504    5.762693    3.004245
     99          1           0       -1.465678    1.155409    4.293478
    100          1           0       -1.717263    5.336037    5.149720
    101          1           0       -0.838881    3.680108    6.734568
    102          7           0       -3.296458    2.524233   -1.906802
    103          6           0       -4.210181    2.271265   -2.999146
    104          6           0       -5.665553    2.277685   -2.542255
    105          8           0       -6.419564    2.953293   -3.252059
    106          6           0       -3.862227    0.904074   -3.563874
    107          6           0       -4.648423    0.573170   -4.840510
    108          6           0       -2.391946    0.901515   -3.961076
    109          6           0       -5.862415   -0.315027   -4.587075
    110          1           0       -3.005491    1.675160   -1.455455
    111          1           0       -3.963642    2.984231   -3.792052
    112          1           0       -3.897259    0.076118   -2.854889
    113          1           0       -3.989622    0.016015   -5.501765
    114          1           0       -4.907693    1.458273   -5.412675
    115          1           0       -2.348724    1.545531   -4.839470
    116          1           0       -1.677992    1.283947   -3.232643
    117          1           0       -2.075348   -0.113977   -4.207332
    118          1           0       -6.616486    0.244500   -4.034530
    119          1           0       -6.300871   -0.566767   -5.548576
    120          1           0       -5.495862   -1.201541   -4.058367
    121          7           0       -6.057799    1.668424   -1.419782
    122          6           0       -7.339904    1.614484   -0.742584
    123          6           0       -8.186454    0.398429   -1.074040
    124          8           0       -9.396168    0.443193   -0.833438
    125          6           0       -7.138830    1.646693    0.769875
    126          8           0       -6.475700    0.479083    1.190759
    127          1           0       -5.268570    1.321394   -0.889133
    128          1           0       -7.932827    2.508424   -0.923728
    129          1           0       -8.161551    1.729858    1.137199
    130          1           0       -6.551890    2.488090    1.128418
    131          1           0       -5.584330    0.499112    0.847890
    132          7           0       -7.677755   -0.717840   -1.592951
    133          6           0       -8.347814   -1.982979   -1.779349
    134          6           0       -7.503297   -3.197052   -1.410813
    135          8           0       -6.426667   -3.258253   -2.002439
    136          6           0       -8.899646   -2.131461   -3.196682
    137          1           0       -6.708504   -0.695815   -1.881686
    138          1           0       -9.233947   -2.032976   -1.151042
    139          1           0       -8.021279   -2.212519   -3.833001
    140          1           0       -9.589025   -2.959316   -3.352931
    141          1           0       -9.478471   -1.234087   -3.435180
    142          7           0       -8.049771   -4.022360   -0.524003
    143          6           0       -7.593944   -5.342929   -0.133593
    144          6           0       -6.164276   -5.226649    0.372991
    145          8           0       -5.410391   -6.190227    0.314047
    146          6           0       -7.791787   -6.383258   -1.234853
    147          1           0       -8.903955   -3.682752   -0.096411
    148          1           0       -8.188603   -5.713607    0.702337
    149          1           0       -8.787580   -6.201079   -1.639585
    150          1           0       -7.027474   -6.220879   -1.985758
    151          1           0       -7.730871   -7.353765   -0.758403
    152          7           0       -5.750913   -4.101278    0.972634
    153          6           0       -4.485753   -3.872216    1.628607
    154          6           0       -4.573572   -4.239845    3.096680
    155          8           0       -3.730639   -4.990794    3.579732
    156          6           0       -4.050011   -2.410088    1.540797
    157          6           0       -3.839840   -1.962140    0.100633
    158          6           0       -3.339178   -0.524045    0.180774
    159          8           0       -2.190942   -0.390139    0.659338
    160          8           0       -4.081791    0.452387   -0.068839
    161          1           0       -6.473331   -3.402019    1.081025
    162          1           0       -3.743599   -4.545915    1.195321
    163          1           0       -3.107018   -2.301133    2.077261
    164          1           0       -4.810783   -1.806373    2.038546
    165          1           0       -4.779517   -1.994269   -0.460057
    166          1           0       -3.156763   -2.615513   -0.433136
    167          7           0       -5.708102   -3.864298    3.682433
    168          6           0       -5.979323   -4.175617    5.068694
    169          1           0       -5.077224   -4.572385    5.534664
    170          1           0       -6.289450   -3.270084    5.590845
    171          1           0       -6.774393   -4.918931    5.126037
    172          1           0       -6.338741   -3.281140    3.142135
    173         20           0        2.361836   -0.982920    2.101242
    174          8           0       -0.181013   -0.549876    2.400061
    175          1           0       -0.784549   -0.944388    3.035359
    176          1           0       -0.739956   -0.169982    1.732705
 ---------------------------------------------------------------------

 SCF Done:  E(RB3LYP) =  -5333.49452973     A.U. after   20 cycles

 The electronic state is 1-A.
 Alpha  occ. eigenvalues -- -145.50673 -19.17848 -19.16982 -19.16241 -19.11593
 Alpha  occ. eigenvalues --  -19.11301 -19.10790 -19.10628 -19.10370 -19.09695
 Alpha  occ. eigenvalues --  -19.09376 -19.08767 -19.08617 -19.08601 -19.08082
 Alpha  occ. eigenvalues --  -19.07793 -19.07209 -19.07150 -19.06941 -19.06870
 Alpha  occ. eigenvalues --  -19.05920 -19.05584 -19.05160 -19.04553 -15.56522
 Alpha  occ. eigenvalues --  -14.51514 -14.38486 -14.38076 -14.37282 -14.36932
 Alpha  occ. eigenvalues --  -14.36838 -14.36329 -14.35385 -14.35043 -14.34351
 Alpha  occ. eigenvalues --  -14.34245 -14.33563 -14.32742 -14.31964 -14.30604
 Alpha  occ. eigenvalues --  -12.70134 -12.70088 -12.70058 -10.33625 -10.31696
 Alpha  occ. eigenvalues --  -10.30584 -10.30101 -10.29846 -10.29440 -10.29103
 Alpha  occ. eigenvalues --  -10.28397 -10.28081 -10.27870 -10.27049 -10.26446
 Alpha  occ. eigenvalues --  -10.26330 -10.25999 -10.25926 -10.25810 -10.25807
 Alpha  occ. eigenvalues --  -10.25700 -10.25444 -10.25216 -10.25174 -10.25076
 Alpha  occ. eigenvalues --  -10.24811 -10.24021 -10.23837 -10.23299 -10.23258
 Alpha  occ. eigenvalues --  -10.22313 -10.22210 -10.21875 -10.21796 -10.21728
 Alpha  occ. eigenvalues --  -10.21683 -10.21477 -10.21192 -10.20677 -10.20322
 Alpha  occ. eigenvalues --  -10.20072 -10.19439 -10.19260 -10.19219 -10.18945
 Alpha  occ. eigenvalues --  -10.18869 -10.18424 -10.18295 -10.18166 -10.17990
 Alpha  occ. eigenvalues --  -10.17802 -10.16315 -10.15813 -10.15477 -10.14528
 Alpha  occ. eigenvalues --  -10.14063 -10.14045  -1.93001  -1.20438  -1.20080
 Alpha  occ. eigenvalues --   -1.19926  -1.07943  -1.07755  -1.05504  -1.05206
 Alpha  occ. eigenvalues --   -1.05133  -1.04449  -1.04053  -1.03697  -1.03041
 Alpha  occ. eigenvalues --   -1.02791  -1.02729  -1.02002  -1.01576  -1.00967
 Alpha  occ. eigenvalues --   -1.00671  -1.00568  -1.00458  -0.99908  -0.99508
 Alpha  occ. eigenvalues --   -0.97759  -0.97115  -0.95560  -0.94967  -0.94060
 Alpha  occ. eigenvalues --   -0.93932  -0.93856  -0.93102  -0.92406  -0.92099
 Alpha  occ. eigenvalues --   -0.91604  -0.91179  -0.90646  -0.90492  -0.90180
 Alpha  occ. eigenvalues --   -0.89854  -0.89681  -0.89126  -0.87473  -0.86337
 Alpha  occ. eigenvalues --   -0.84941  -0.82141  -0.80349  -0.80298  -0.79216
 Alpha  occ. eigenvalues --   -0.79026  -0.78098  -0.77986  -0.77521  -0.75378
 Alpha  occ. eigenvalues --   -0.75012  -0.74870  -0.74613  -0.74250  -0.73981
 Alpha  occ. eigenvalues --   -0.73008  -0.72327  -0.72102  -0.70738  -0.70356
 Alpha  occ. eigenvalues --   -0.70120  -0.68516  -0.68426  -0.67246  -0.67204
 Alpha  occ. eigenvalues --   -0.66005  -0.65852  -0.65066  -0.64894  -0.63776
 Alpha  occ. eigenvalues --   -0.63562  -0.62473  -0.62088  -0.61901  -0.61680
 Alpha  occ. eigenvalues --   -0.61138  -0.61086  -0.60489  -0.60357  -0.59856
 Alpha  occ. eigenvalues --   -0.59709  -0.59394  -0.59249  -0.58464  -0.57978
 Alpha  occ. eigenvalues --   -0.57724  -0.57305  -0.57165  -0.56982  -0.56843
 Alpha  occ. eigenvalues --   -0.56439  -0.56217  -0.55769  -0.55409  -0.55382
 Alpha  occ. eigenvalues --   -0.55172  -0.54890  -0.54219  -0.54008  -0.53788
 Alpha  occ. eigenvalues --   -0.53253  -0.53116  -0.52947  -0.52670  -0.52540
 Alpha  occ. eigenvalues --   -0.51864  -0.51499  -0.51314  -0.51105  -0.50702
 Alpha  occ. eigenvalues --   -0.50133  -0.49892  -0.49696  -0.49438  -0.48888
 Alpha  occ. eigenvalues --   -0.48736  -0.48280  -0.48168  -0.47921  -0.47799
 Alpha  occ. eigenvalues --   -0.47683  -0.47521  -0.47377  -0.47292  -0.47002
 Alpha  occ. eigenvalues --   -0.46871  -0.46767  -0.46430  -0.46295  -0.45891
 Alpha  occ. eigenvalues --   -0.45584  -0.45561  -0.45397  -0.45355  -0.45248
 Alpha  occ. eigenvalues --   -0.45091  -0.45042  -0.44659  -0.44362  -0.44269
 Alpha  occ. eigenvalues --   -0.43919  -0.43827  -0.43799  -0.43590  -0.43385
 Alpha  occ. eigenvalues --   -0.43122  -0.42751  -0.42718  -0.42463  -0.42259
 Alpha  occ. eigenvalues --   -0.42125  -0.41863  -0.41803  -0.41779  -0.41619
 Alpha  occ. eigenvalues --   -0.41501  -0.41446  -0.41401  -0.41277  -0.41138
 Alpha  occ. eigenvalues --   -0.41056  -0.41015  -0.40978  -0.40728  -0.40504
 Alpha  occ. eigenvalues --   -0.40488  -0.40400  -0.40324  -0.40050  -0.39862
 Alpha  occ. eigenvalues --   -0.39763  -0.39712  -0.39559  -0.39499  -0.39362
 Alpha  occ. eigenvalues --   -0.39082  -0.38938  -0.38860  -0.38676  -0.38562
 Alpha  occ. eigenvalues --   -0.38373  -0.38319  -0.38225  -0.38145  -0.37875
 Alpha  occ. eigenvalues --   -0.37746  -0.37734  -0.37518  -0.37353  -0.37108
 Alpha  occ. eigenvalues --   -0.36988  -0.36758  -0.36475  -0.36373  -0.36250
 Alpha  occ. eigenvalues --   -0.36083  -0.35866  -0.35700  -0.35625  -0.35480
 Alpha  occ. eigenvalues --   -0.35340  -0.35266  -0.34784  -0.34641  -0.34475
 Alpha  occ. eigenvalues --   -0.34111  -0.33950  -0.33646  -0.33399  -0.33098
 Alpha  occ. eigenvalues --   -0.33067  -0.32530  -0.32414  -0.32196  -0.32043
 Alpha  occ. eigenvalues --   -0.30383  -0.30376  -0.29690  -0.29556  -0.29295
 Alpha  occ. eigenvalues --   -0.28996  -0.28971  -0.28767  -0.28093  -0.27842
 Alpha  occ. eigenvalues --   -0.27626  -0.27428  -0.27286  -0.26908  -0.26780
 Alpha  occ. eigenvalues --   -0.26722  -0.26660  -0.26400  -0.26064  -0.25418
 Alpha  occ. eigenvalues --   -0.25311  -0.25141  -0.24983  -0.24941  -0.24857
 Alpha  occ. eigenvalues --   -0.24731  -0.24387  -0.24131  -0.24022  -0.23955
 Alpha  occ. eigenvalues --   -0.23720  -0.23571  -0.23447  -0.23312  -0.23154
 Alpha  occ. eigenvalues --   -0.22520  -0.22195  -0.22117  -0.21949  -0.21400
 Alpha  occ. eigenvalues --   -0.20958  -0.20539  -0.19333
 Alpha virt. eigenvalues --   -0.11853  -0.04740  -0.02524  -0.01571  -0.01478
 Alpha virt. eigenvalues --   -0.01245  -0.00844  -0.00797  -0.00541   0.00444
 Alpha virt. eigenvalues --    0.00585   0.00830   0.00945   0.01064   0.01378

 Mulliken charges:
               1
     1  C    0.038097
     2  C    0.113662
     3  O   -0.453067
     4  H    0.045687
     5  H    0.054550
     6  H    0.047541
     7  N   -0.095078
     8  C    0.043637
     9  C    0.115254
    10  O   -0.253667
    11  C    0.144663
    12  C    0.051644
    13  O   -0.407998
    14  O   -0.351065
    15  H    0.150515
    16  H   -0.030514
    17  H   -0.000970
    18  H   -0.055173
    19  N   -0.147707
    20  C    0.108741
    21  C    0.088705
    22  O   -0.270524
    23  C    0.035073
    24  C    0.004638
    25  C   -0.062667
    26  C    0.065741
    27  N    0.095942
    28  H    0.120667
    29  H    0.027761
    30  H    0.005740
    31  H    0.019176
    32  H   -0.011165
    33  H   -0.000200
    34  H    0.034641
    35  H    0.059428
    36  H    0.048147
    37  H    0.038533
    38  H    0.165490
    39  H    0.142106
    40  H    0.191978
    41  N   -0.155589
    42  C    0.114282
    43  C    0.035684
    44  O   -0.272837
    45  C    0.103507
    46  C    0.115243
    47  O   -0.391949
    48  O   -0.481556
    49  H    0.131464
    50  H    0.030301
    51  H    0.035177
    52  H    0.047551
    53  N   -0.134117
    54  C    0.174567
    55  C   -0.000106
    56  O   -0.299031
    57  H    0.100758
    58  H    0.060501
    59  H    0.059971
    60  N   -0.099084
    61  C    0.031338
    62  C    0.093420
    63  O   -0.295705
    64  C    0.123325
    65  C   -0.004464
    66  N   -0.041161
    67  O   -0.256071
    68  H    0.119456
    69  H    0.040428
    70  H   -0.009938
    71  H    0.012781
    72  H    0.101350
    73  H    0.131464
    74  N   -0.111488
    75  C    0.160697
    76  C    0.062379
    77  O   -0.293597
    78  H    0.129756
    79  H    0.050012
    80  H    0.018235
    81  N   -0.093818
    82  C    0.065740
    83  C    0.119532
    84  O   -0.287403
    85  C    0.134243
    86  C   -0.014888
    87  C    0.008205
    88  C   -0.021850
    89  C   -0.032156
    90  C   -0.074388
    91  C    0.200686
    92  O   -0.217011
    93  H    0.110965
    94  H    0.022960
    95  H    0.014811
    96  H   -0.001811
    97  H   -0.014817
    98  H   -0.039588
    99  H   -0.071385
   100  H   -0.048818
   101  H    0.177584
   102  N   -0.145806
   103  C    0.197100
   104  C    0.068798
   105  O   -0.285799
   106  C   -0.185629
   107  C    0.061210
   108  C    0.061519
   109  C   -0.015038
   110  H    0.155780
   111  H    0.002620
   112  H   -0.002561
   113  H   -0.022411
   114  H   -0.000747
   115  H   -0.005887
   116  H    0.009726
   117  H    0.006291
   118  H    0.028343
   119  H   -0.003933
   120  H    0.028651
   121  N   -0.139801
   122  C    0.118262
   123  C    0.069404
   124  O   -0.304352
   125  C    0.229803
   126  O   -0.363448
   127  H    0.133672
   128  H    0.010889
   129  H    0.006902
   130  H   -0.002448
   131  H    0.164368
   132  N   -0.119958
   133  C    0.094929
   134  C    0.080896
   135  O   -0.273517
   136  C    0.053599
   137  H    0.137176
   138  H   -0.032023
   139  H    0.033090
   140  H   -0.004514
   141  H    0.032698
   142  N   -0.144615
   143  C    0.038211
   144  C    0.055072
   145  O   -0.261011
   146  C    0.096142
   147  H    0.134953
   148  H    0.024173
   149  H    0.000802
   150  H    0.042744
   151  H    0.028543
   152  N   -0.125234
   153  C    0.129055
   154  C    0.052676
   155  O   -0.265458
   156  C   -0.009424
   157  C    0.131588
   158  C    0.174021
   159  O   -0.409987
   160  O   -0.432132
   161  H    0.103844
   162  H    0.015278
   163  H   -0.015115
   164  H   -0.014488
   165  H   -0.010177
   166  H    0.007111
   167  N   -0.160086
   168  C    0.128899
   169  H    0.042890
   170  H    0.017288
   171  H    0.020513
   172  H    0.107820
   173  Ca   1.478473
   174  O   -0.360979
   175  H    0.197030
   176  H    0.212014
 Sum of Mulliken charges =  -0.00000

 Dipole moment (field-independent basis, Debye):
    X=             30.2623    Y=             -2.5969    Z=             17.3383  Tot=             34.9738
 Quadrupole moment (field-independent basis, Debye-Ang):
   XX=           -304.5087   YY=           -605.2709   ZZ=           -570.6960
   XY=             -6.5856   XZ=            -33.5675   YZ=             54.1895

 ESP charges:
               1
     1  C   -0.531308
     2  C    0.789832
     3  O   -0.784502
     4  H    0.167375
     5  H    0.147737
     6  H    0.172133
     7  N   -0.598979
     8  C    0.614951
     9  C    0.121209
    10  O   -0.414223
    11  C   -0.431915
    12  C    0.786674
    13  O   -0.715214
    14  O   -0.669653
    15  H    0.328548
    16  H   -0.098638
    17  H    0.097060
    18  H    0.047653
    19  N   -0.222144
    20  C    0.156644
    21  C    0.404742
    22  O   -0.517271
    23  C   -0.414388
    24  C    0.206204
    25  C   -0.243331
    26  C    0.005343
    27  N   -0.247253
    28  H    0.265631
    29  H    0.069268
    30  H    0.117468
    31  H    0.128369
    32  H   -0.052760
    33  H    0.001251
    34  H    0.116514
    35  H    0.114345
    36  H    0.084772
    37  H    0.061268
    38  H    0.300018
    39  H    0.260340
    40  H    0.299938
    41  N   -0.315715
    42  C    0.116617
    43  C    0.584188
    44  O   -0.579582
    45  C    0.117401
    46  C    0.709887
    47  O   -0.774142
    48  O   -0.811661
    49  H    0.189745
    50  H    0.051117
    51  H   -0.012581
    52  H    0.010559
    53  N   -0.550685
    54  C    0.124234
    55  C    0.558180
    56  O   -0.558158
    57  H    0.218794
    58  H    0.114783
    59  H    0.085543
    60  N   -0.635258
    61  C    0.436922
    62  C    0.401030
    63  O   -0.546960
    64  C   -0.364481
    65  C    0.740231
    66  N   -0.851711
    67  O   -0.562025
    68  H    0.337152
    69  H   -0.077134
    70  H    0.087357
    71  H    0.103421
    72  H    0.365281
    73  H    0.389670
    74  N   -0.347418
    75  C   -0.187322
    76  C    0.735787
    77  O   -0.580899
    78  H    0.283835
    79  H    0.113775
    80  H    0.108480
    81  N   -0.659887
    82  C    0.251762
    83  C    0.478208
    84  O   -0.520762
    85  C   -0.159908
    86  C   -0.006525
    87  C   -0.075220
    88  C   -0.110240
    89  C   -0.217077
    90  C   -0.284569
    91  C    0.349495
    92  O   -0.570444
    93  H    0.309384
    94  H    0.030343
    95  H    0.140977
    96  H    0.075580
    97  H    0.051569
    98  H    0.120873
    99  H    0.123929
   100  H    0.114804
   101  H    0.423093
   102  N   -0.380685
   103  C    0.020888
   104  C    0.410196
   105  O   -0.572049
   106  C    0.360535
   107  C    0.013322
   108  C   -0.303019
   109  C   -0.066575
   110  H    0.206214
   111  H    0.079224
   112  H   -0.055185
   113  H   -0.023163
   114  H   -0.006910
   115  H    0.031712
   116  H    0.090738
   117  H    0.060542
   118  H    0.007915
   119  H    0.025592
   120  H    0.010392
   121  N    0.268722
   122  C   -0.440582
   123  C    0.739668
   124  O   -0.580558
   125  C    0.374111
   126  O   -0.619346
   127  H   -0.355764
   128  H    0.137558
   129  H    0.021827
   130  H   -0.044232
   131  H    0.344982
   132  N   -0.493988
   133  C    0.106460
   134  C    0.727269
   135  O   -0.507613
   136  C   -0.235467
   137  H    0.208827
   138  H    0.023291
   139  H    0.034049
   140  H    0.062532
   141  H    0.104609
   142  N   -0.720728
   143  C    0.385029
   144  C    0.310083
   145  O   -0.468318
   146  C   -0.361175
   147  H    0.336306
   148  H    0.028516
   149  H    0.097687
   150  H    0.120521
   151  H    0.098033
   152  N   -0.320201
   153  C    0.088106
   154  C    0.528850
   155  O   -0.546491
   156  C    0.175917
   157  C   -0.123171
   158  C    0.592796
   159  O   -0.664192
   160  O   -0.334693
   161  H    0.156708
   162  H    0.063860
   163  H   -0.104438
   164  H   -0.062410
   165  H    0.016996
   166  H    0.054116
   167  N   -0.394470
   168  C   -0.044749
   169  H    0.085744
   170  H    0.044979
   171  H    0.055753
   172  H    0.293013
   173  Ca   1.792851
   174  O   -1.090550
   175  H    0.506232
   176  H    0.600103
 Sum of ESP charges =  -0.00000

 Normal termination of Gaussian 16 at Wed Sep 18 20:03:46 2019.
