 Gaussian 16, Revision A.03,
 Gaussian 16:  ES64L-G16RevA.03 25-Dec-2016

 ----------------------------------------------------------------------
 #b3lyp/svp scf=(tight,noincore) Test #IOP(5/87=12) Density=Current Pop
 =(MK,readradii) iop(6/33=2) iop(6/42=6)
 ----------------------------------------------------------------------

 ----------------
 Ng-31_loop3_30.0
 ----------------
 Symbolic Z-matrix:
 Charge =  0 Multiplicity = 1

                         Standard orientation:
 ---------------------------------------------------------------------
 Center     Atomic      Atomic             Coordinates (Angstroms)
 Number     Number       Type             X           Y           Z
 ---------------------------------------------------------------------
      1          6           0        4.836064    0.175514    5.538942
      2          6           0        4.369165    0.480942    4.121614
      3          8           0        3.167387    0.573699    3.879073
      4          1           0        4.258228   -0.657287    5.938928
      5          1           0        5.893363   -0.089813    5.524223
      6          1           0        4.689812    1.054363    6.167420
      7          7           0        5.309215    0.523850    3.177228
      8          6           0        5.011419    0.725620    1.772520
      9          6           0        5.141084   -0.498883    0.888506
     10          8           0        4.413345   -0.658098   -0.089424
     11          6           0        5.695542    1.992325    1.274590
     12          6           0        7.135014    2.145426    1.746162
     13          8           0        7.823303    1.174699    2.133265
     14          8           0        7.633952    3.291336    1.739063
     15          1           0        6.246562    0.255863    3.471446
     16          1           0        3.946592    0.982085    1.744791
     17          1           0        5.042204    2.846027    1.470654
     18          1           0        5.770741    1.978764    0.187225
     19          7           0        6.255600   -1.229613    0.990422
     20          6           0        6.542603   -2.307549    0.057799
     21          6           0        6.598558   -1.801031   -1.373148
     22          8           0        7.540155   -1.096156   -1.750437
     23          6           0        7.794502   -3.125111    0.363150
     24          6           0        7.756010   -3.778717    1.746558
     25          6           0        9.000942   -4.633745    1.980162
     26          6           0        8.794710   -5.294014    3.345707
     27          7           0        9.849798   -6.266792    3.642509
     28          1           0        6.938060   -0.873281    1.642630
     29          1           0        5.696773   -2.979527    0.206513
     30          1           0        8.679096   -2.490786    0.368318
     31          1           0        8.040227   -3.856898   -0.406140
     32          1           0        6.843005   -4.279844    2.059276
     33          1           0        7.894595   -3.002240    2.495610
     34          1           0        9.836929   -3.933834    2.042215
     35          1           0        9.173977   -5.390150    1.214061
     36          1           0        7.812422   -5.743489    3.450021
     37          1           0        8.813986   -4.491389    4.085721
     38          1           0        9.768369   -7.089308    3.056901
     39          1           0       10.748859   -5.848177    3.441134
     40          1           0        9.826951   -6.448438    4.635778
     41          7           0        5.612818   -2.244226   -2.145673
     42          6           0        5.501689   -1.899479   -3.553970
     43          6           0        4.701417   -0.623557   -3.792695
     44          8           0        4.738262   -0.161021   -4.932609
     45          6           0        4.854623   -3.048105   -4.310187
     46          6           0        3.471034   -3.457955   -3.828000
     47          8           0        2.464280   -2.843057   -4.249243
     48          8           0        3.338957   -4.242514   -2.860516
     49          1           0        5.217841   -3.143932   -1.913462
     50          1           0        6.506075   -1.777290   -3.956437
     51          1           0        5.526347   -3.914741   -4.343787
     52          1           0        4.804833   -2.692699   -5.335569
     53          7           0        4.089940   -0.052338   -2.753511
     54          6           0        3.247180    1.132670   -2.749689
     55          6           0        4.092363    2.398130   -2.721826
     56          8           0        5.117136    2.503177   -3.387714
     57          1           0        4.193807   -0.468657   -1.843737
     58          1           0        2.617870    1.167991   -1.863788
     59          1           0        2.545333    1.144203   -3.575387
     60          7           0        3.721739    3.451200   -1.974377
     61          6           0        2.435954    3.688598   -1.353250
     62          6           0        2.803161    4.282434   -0.001393
     63          8           0        3.611767    5.215660    0.046016
     64          6           0        1.728013    4.740960   -2.185268
     65          6           0        1.416348    4.369613   -3.626645
     66          7           0        0.901282    5.360770   -4.360412
     67          8           0        1.510230    3.239257   -4.097795
     68          1           0        4.362471    4.233131   -2.029575
     69          1           0        1.741713    2.863189   -1.160043
     70          1           0        2.237444    5.700799   -2.260686
     71          1           0        0.758304    4.915112   -1.715125
     72          1           0        0.678463    6.202264   -3.852732
     73          1           0        0.336687    5.143872   -5.169355
     74          7           0        2.209905    3.807213    1.089071
     75          6           0        1.387608    2.636300    1.309275
     76          6           0       -0.028345    2.680827    0.767063
     77          8           0       -0.444119    1.633168    0.292466
     78          1           0        2.400836    4.383936    1.896930
     79          1           0        1.263581    2.620013    2.401635
     80          1           0        1.902628    1.726178    1.005577
     81          7           0       -0.699397    3.838310    0.803428
     82          6           0       -2.135431    3.943180    0.645605
     83          6           0       -2.545581    3.767158   -0.811548
     84          8           0       -1.934287    4.427756   -1.659092
     85          6           0       -2.595269    5.265005    1.246045
     86          6           0       -2.294284    5.479414    2.706297
     87          6           0       -2.274597    4.443028    3.652561
     88          6           0       -1.990002    6.784654    3.129690
     89          6           0       -2.121541    4.731962    5.012999
     90          6           0       -1.532607    7.008443    4.433265
     91          6           0       -1.715547    6.013511    5.408223
     92          8           0       -1.445475    6.247914    6.725841
     93          1           0       -0.241332    4.626294    1.240871
     94          1           0       -2.544710    3.153207    1.273486
     95          1           0       -3.658819    5.461864    1.194960
     96          1           0       -2.163498    6.155521    0.778118
     97          1           0       -2.373290    3.412532    3.357032
     98          1           0       -1.992638    7.666303    2.506482
     99          1           0       -2.143342    3.955387    5.764901
    100          1           0       -1.196486    7.997050    4.737367
    101          1           0       -1.161975    7.142464    6.954548
    102          7           0       -3.475782    2.836246   -1.072754
    103          6           0       -3.885590    2.455851   -2.406492
    104          6           0       -5.353581    2.037675   -2.438607
    105          8           0       -5.866334    1.932891   -3.552252
    106          6           0       -3.010474    1.360131   -3.021772
    107          6           0       -1.572992    1.799884   -3.299017
    108          6           0       -3.026341    0.085563   -2.184619
    109          6           0       -0.802441    0.809929   -4.164257
    110          1           0       -3.905962    2.367701   -0.290124
    111          1           0       -3.822108    3.320171   -3.067491
    112          1           0       -3.440449    1.090793   -3.989232
    113          1           0       -1.016166    1.980695   -2.381274
    114          1           0       -1.620970    2.672693   -3.957806
    115          1           0       -4.022436   -0.298762   -1.986152
    116          1           0       -2.533050   -0.680422   -2.780297
    117          1           0       -2.438596    0.250928   -1.277145
    118          1           0        0.242343    1.076437   -4.350531
    119          1           0       -0.791071   -0.142991   -3.641271
    120          1           0       -1.356973    0.659017   -5.081111
    121          7           0       -6.038575    1.699813   -1.344061
    122          6           0       -7.399695    1.214868   -1.431133
    123          6           0       -7.640642    0.070493   -0.454736
    124          8           0       -7.053041    0.083646    0.622832
    125          6           0       -8.500313    2.266590   -1.341031
    126          8           0       -8.504432    3.126057   -2.451482
    127          1           0       -5.680891    1.943085   -0.438202
    128          1           0       -7.453488    0.712552   -2.395698
    129          1           0       -8.508754    2.804277   -0.393075
    130          1           0       -9.450399    1.746611   -1.423243
    131          1           0       -7.736286    3.710520   -2.381093
    132          7           0       -8.669157   -0.768039   -0.644528
    133          6           0       -9.012118   -1.928893    0.137134
    134          6           0       -7.999722   -3.074375    0.165886
    135          8           0       -7.136159   -3.124842   -0.702798
    136          6           0      -10.381300   -2.484031   -0.267913
    137          1           0       -9.162062   -0.603870   -1.518652
    138          1           0       -9.109400   -1.577434    1.165877
    139          1           0      -10.663330   -3.365495    0.296429
    140          1           0      -11.143942   -1.741121   -0.000591
    141          1           0      -10.257861   -2.810822   -1.293959
    142          7           0       -8.189715   -4.056058    1.050985
    143          6           0       -7.439937   -5.291677    1.077046
    144          6           0       -5.921326   -5.207547    1.189480
    145          8           0       -5.135832   -6.040644    0.746818
    146          6           0       -8.017963   -6.329200    0.118124
    147          1           0       -8.773628   -3.810486    1.835230
    148          1           0       -7.629210   -5.787168    2.031543
    149          1           0       -7.846821   -5.974435   -0.893535
    150          1           0       -7.436934   -7.222612    0.319167
    151          1           0       -9.099700   -6.474477    0.147115
    152          7           0       -5.420822   -4.091685    1.738704
    153          6           0       -4.029550   -3.869898    2.049469
    154          6           0       -3.666556   -3.787809    3.525408
    155          8           0       -2.656095   -4.287783    4.008931
    156          6           0       -3.454628   -2.751055    1.182199
    157          6           0       -3.255083   -2.969378   -0.313467
    158          6           0       -2.081940   -3.890506   -0.595884
    159          8           0       -0.901710   -3.500665   -0.442977
    160          8           0       -2.303959   -5.056013   -0.981763
    161          1           0       -5.982594   -3.275427    1.945430
    162          1           0       -3.552817   -4.800593    1.749082
    163          1           0       -2.548224   -2.314614    1.599394
    164          1           0       -4.114227   -1.891548    1.311727
    165          1           0       -3.112523   -1.946161   -0.673470
    166          1           0       -4.169025   -3.340409   -0.773843
    167          7           0       -4.508170   -3.080388    4.290026
    168          6           0       -4.457706   -2.711121    5.688166
    169          1           0       -4.673277   -3.585783    6.302155
    170          1           0       -3.463436   -2.334372    5.928968
    171          1           0       -5.198225   -1.936771    5.887164
    172          1           0       -5.300834   -2.798856    3.729381
    173         20           0        0.917831   -3.443563   -2.334566
    174          8           0        2.669848   -2.975757   -0.431150
    175          1           0        2.792579   -2.048887   -0.199525
    176          1           0        3.235661   -3.455217    0.172649
 ---------------------------------------------------------------------

 SCF Done:  E(RB3LYP) =  -5333.36122545     A.U. after   36 cycles

 The electronic state is 1-A.
 Alpha  occ. eigenvalues -- -145.44137 -19.16815 -19.16008 -19.13640 -19.10972
 Alpha  occ. eigenvalues --  -19.10563 -19.10546 -19.10397 -19.10295 -19.09303
 Alpha  occ. eigenvalues --  -19.08026 -19.07983 -19.07640 -19.07633 -19.07549
 Alpha  occ. eigenvalues --  -19.07535 -19.06717 -19.06493 -19.03488 -19.03322
 Alpha  occ. eigenvalues --  -19.03313 -19.00581 -18.99028 -18.97081 -15.50053
 Alpha  occ. eigenvalues --  -14.59075 -14.37488 -14.37454 -14.37065 -14.37037
 Alpha  occ. eigenvalues --  -14.36664 -14.35320 -14.34923 -14.33846 -14.33742
 Alpha  occ. eigenvalues --  -14.33087 -14.32877 -14.32394 -14.30732 -14.29801
 Alpha  occ. eigenvalues --  -12.63691 -12.63644 -12.63526 -10.35611 -10.29778
 Alpha  occ. eigenvalues --  -10.29319 -10.29267 -10.28877 -10.28721 -10.28531
 Alpha  occ. eigenvalues --  -10.28022 -10.27247 -10.26861 -10.26598 -10.26467
 Alpha  occ. eigenvalues --  -10.26415 -10.25968 -10.25714 -10.25675 -10.25652
 Alpha  occ. eigenvalues --  -10.25041 -10.25023 -10.24902 -10.24207 -10.24149
 Alpha  occ. eigenvalues --  -10.24147 -10.23119 -10.23066 -10.22830 -10.22748
 Alpha  occ. eigenvalues --  -10.22456 -10.22039 -10.21997 -10.21608 -10.21220
 Alpha  occ. eigenvalues --  -10.21012 -10.20514 -10.20344 -10.20289 -10.20141
 Alpha  occ. eigenvalues --  -10.20078 -10.19903 -10.19603 -10.19570 -10.18239
 Alpha  occ. eigenvalues --  -10.17939 -10.17853 -10.17828 -10.17776 -10.17506
 Alpha  occ. eigenvalues --  -10.16580 -10.15814 -10.15729 -10.15324 -10.14821
 Alpha  occ. eigenvalues --  -10.13617 -10.13202  -1.86662  -1.14540  -1.14452
 Alpha  occ. eigenvalues --   -1.14091  -1.13352  -1.05097  -1.04790  -1.03947
 Alpha  occ. eigenvalues --   -1.03773  -1.03732  -1.03149  -1.02636  -1.02466
 Alpha  occ. eigenvalues --   -1.01846  -1.01738  -1.01227  -1.00963  -1.00359
 Alpha  occ. eigenvalues --   -1.00275  -0.99744  -0.99549  -0.97189  -0.96843
 Alpha  occ. eigenvalues --   -0.95974  -0.94092  -0.93990  -0.93848  -0.93704
 Alpha  occ. eigenvalues --   -0.93003  -0.92494  -0.92027  -0.91729  -0.91614
 Alpha  occ. eigenvalues --   -0.90837  -0.90436  -0.89969  -0.89237  -0.89082
 Alpha  occ. eigenvalues --   -0.88348  -0.87918  -0.86239  -0.86185  -0.86061
 Alpha  occ. eigenvalues --   -0.82441  -0.82211  -0.81247  -0.80780  -0.79623
 Alpha  occ. eigenvalues --   -0.78082  -0.77822  -0.76618  -0.75857  -0.75616
 Alpha  occ. eigenvalues --   -0.75573  -0.75510  -0.75215  -0.74983  -0.74037
 Alpha  occ. eigenvalues --   -0.73134  -0.72927  -0.71792  -0.71742  -0.70200
 Alpha  occ. eigenvalues --   -0.69361  -0.69197  -0.68517  -0.68163  -0.67796
 Alpha  occ. eigenvalues --   -0.67514  -0.67009  -0.66234  -0.65719  -0.64961
 Alpha  occ. eigenvalues --   -0.63812  -0.62898  -0.62560  -0.62364  -0.61844
 Alpha  occ. eigenvalues --   -0.61167  -0.60902  -0.60604  -0.60304  -0.60020
 Alpha  occ. eigenvalues --   -0.59036  -0.58948  -0.58736  -0.58681  -0.57794
 Alpha  occ. eigenvalues --   -0.57624  -0.57151  -0.56909  -0.56662  -0.56389
 Alpha  occ. eigenvalues --   -0.56122  -0.55914  -0.55553  -0.55477  -0.55391
 Alpha  occ. eigenvalues --   -0.54472  -0.53938  -0.53654  -0.53553  -0.53417
 Alpha  occ. eigenvalues --   -0.52894  -0.52669  -0.52545  -0.52173  -0.51582
 Alpha  occ. eigenvalues --   -0.51374  -0.50858  -0.50785  -0.50654  -0.50207
 Alpha  occ. eigenvalues --   -0.49837  -0.49021  -0.48942  -0.48887  -0.48357
 Alpha  occ. eigenvalues --   -0.47946  -0.47860  -0.47667  -0.47601  -0.47327
 Alpha  occ. eigenvalues --   -0.46590  -0.46542  -0.46365  -0.46136  -0.45657
 Alpha  occ. eigenvalues --   -0.45537  -0.45345  -0.45312  -0.45224  -0.44957
 Alpha  occ. eigenvalues --   -0.44885  -0.44843  -0.44595  -0.44413  -0.44274
 Alpha  occ. eigenvalues --   -0.44151  -0.43977  -0.43687  -0.43602  -0.43532
 Alpha  occ. eigenvalues --   -0.43449  -0.43389  -0.43178  -0.43019  -0.42783
 Alpha  occ. eigenvalues --   -0.42644  -0.42499  -0.42179  -0.42049  -0.41993
 Alpha  occ. eigenvalues --   -0.41743  -0.41684  -0.41537  -0.41529  -0.41341
 Alpha  occ. eigenvalues --   -0.41298  -0.41130  -0.40962  -0.40755  -0.40601
 Alpha  occ. eigenvalues --   -0.40593  -0.40493  -0.40341  -0.40175  -0.40127
 Alpha  occ. eigenvalues --   -0.39908  -0.39712  -0.39558  -0.39549  -0.39277
 Alpha  occ. eigenvalues --   -0.39149  -0.39000  -0.38807  -0.38572  -0.38287
 Alpha  occ. eigenvalues --   -0.38210  -0.37935  -0.37649  -0.37478  -0.37405
 Alpha  occ. eigenvalues --   -0.37305  -0.37026  -0.36845  -0.36671  -0.36601
 Alpha  occ. eigenvalues --   -0.36457  -0.36308  -0.36239  -0.36033  -0.35835
 Alpha  occ. eigenvalues --   -0.35577  -0.35509  -0.35117  -0.34987  -0.34920
 Alpha  occ. eigenvalues --   -0.34812  -0.34754  -0.34348  -0.34337  -0.34160
 Alpha  occ. eigenvalues --   -0.33978  -0.33930  -0.33836  -0.33721  -0.33620
 Alpha  occ. eigenvalues --   -0.33484  -0.33325  -0.33173  -0.32967  -0.31500
 Alpha  occ. eigenvalues --   -0.31480  -0.31253  -0.31131  -0.31114  -0.30621
 Alpha  occ. eigenvalues --   -0.29851  -0.29746  -0.29467  -0.28701  -0.28172
 Alpha  occ. eigenvalues --   -0.28008  -0.27924  -0.27813  -0.27537  -0.27297
 Alpha  occ. eigenvalues --   -0.27113  -0.26726  -0.26666  -0.26331  -0.25917
 Alpha  occ. eigenvalues --   -0.25856  -0.25521  -0.25502  -0.25343  -0.25018
 Alpha  occ. eigenvalues --   -0.24613  -0.24479  -0.24296  -0.24033  -0.23835
 Alpha  occ. eigenvalues --   -0.23394  -0.23266  -0.23258  -0.23063  -0.23050
 Alpha  occ. eigenvalues --   -0.22781  -0.22391  -0.21707  -0.21533  -0.20594
 Alpha  occ. eigenvalues --   -0.20229  -0.19742  -0.19405  -0.18192  -0.16388
 Alpha  occ. eigenvalues --   -0.16232  -0.15294  -0.12646
 Alpha virt. eigenvalues --   -0.11532  -0.05372  -0.05092  -0.04635  -0.02887
 Alpha virt. eigenvalues --   -0.02360  -0.00848  -0.00060   0.00082   0.00398
 Alpha virt. eigenvalues --    0.00427   0.00694   0.00757   0.01363   0.01485

 Mulliken charges:
               1
     1  C    0.071359
     2  C   -0.005775
     3  O   -0.310268
     4  H    0.024654
     5  H   -0.017872
     6  H    0.041526
     7  N   -0.130949
     8  C    0.124818
     9  C    0.096683
    10  O   -0.341224
    11  C    0.062883
    12  C    0.051476
    13  O   -0.400603
    14  O   -0.335658
    15  H    0.114107
    16  H   -0.005873
    17  H    0.003913
    18  H    0.031450
    19  N   -0.127847
    20  C    0.157095
    21  C    0.086040
    22  O   -0.252631
    23  C    0.068153
    24  C   -0.025011
    25  C   -0.025653
    26  C   -0.007450
    27  N    0.123892
    28  H    0.104515
    29  H   -0.054713
    30  H    0.032446
    31  H    0.006191
    32  H    0.005712
    33  H    0.012547
    34  H    0.045103
    35  H    0.023170
    36  H    0.070532
    37  H    0.069282
    38  H    0.175446
    39  H    0.168310
    40  H    0.169141
    41  N   -0.135192
    42  C    0.075980
    43  C    0.086067
    44  O   -0.267712
    45  C    0.114648
    46  C    0.106482
    47  O   -0.443902
    48  O   -0.440383
    49  H    0.116143
    50  H    0.026561
    51  H   -0.009266
    52  H    0.026988
    53  N   -0.145402
    54  C    0.202780
    55  C    0.028269
    56  O   -0.246275
    57  H    0.125406
    58  H   -0.038212
    59  H    0.060435
    60  N   -0.121979
    61  C    0.046342
    62  C    0.084550
    63  O   -0.267989
    64  C    0.039181
    65  C    0.047677
    66  N   -0.033636
    67  O   -0.266252
    68  H    0.136639
    69  H    0.041258
    70  H    0.019019
    71  H    0.024322
    72  H    0.108127
    73  H    0.127498
    74  N   -0.136793
    75  C    0.173856
    76  C    0.020496
    77  O   -0.258147
    78  H    0.130046
    79  H    0.049395
    80  H    0.063971
    81  N   -0.095817
    82  C    0.085229
    83  C    0.131180
    84  O   -0.283028
    85  C    0.150266
    86  C   -0.075752
    87  C   -0.006482
    88  C   -0.018289
    89  C   -0.006152
    90  C   -0.042018
    91  C    0.158241
    92  O   -0.209420
    93  H    0.120856
    94  H   -0.009663
    95  H    0.012933
    96  H    0.006888
    97  H   -0.020120
    98  H   -0.022407
    99  H   -0.015986
   100  H   -0.034304
   101  H    0.181771
   102  N   -0.143510
   103  C    0.207618
   104  C    0.021228
   105  O   -0.272981
   106  C   -0.065299
   107  C    0.038343
   108  C   -0.033335
   109  C    0.034429
   110  H    0.126304
   111  H    0.014054
   112  H   -0.003426
   113  H    0.027901
   114  H   -0.007878
   115  H    0.026150
   116  H   -0.001497
   117  H    0.042457
   118  H    0.058647
   119  H   -0.061150
   120  H   -0.007109
   121  N   -0.129313
   122  C    0.095005
   123  C    0.069195
   124  O   -0.298418
   125  C    0.281013
   126  O   -0.295042
   127  H    0.098015
   128  H    0.026949
   129  H   -0.009106
   130  H   -0.024063
   131  H    0.168436
   132  N   -0.109808
   133  C    0.081211
   134  C    0.067205
   135  O   -0.246993
   136  C    0.046188
   137  H    0.125272
   138  H   -0.007120
   139  H    0.008297
   140  H    0.035576
   141  H    0.029816
   142  N   -0.134196
   143  C    0.046850
   144  C    0.088629
   145  O   -0.228343
   146  C    0.073156
   147  H    0.118569
   148  H    0.016146
   149  H    0.027499
   150  H    0.036431
   151  H   -0.004045
   152  N   -0.165434
   153  C    0.108927
   154  C    0.037131
   155  O   -0.263397
   156  C    0.015178
   157  C    0.135520
   158  C    0.048060
   159  O   -0.477632
   160  O   -0.334610
   161  H    0.107533
   162  H    0.041823
   163  H    0.003688
   164  H   -0.046579
   165  H   -0.035448
   166  H    0.008471
   167  N   -0.153626
   168  C    0.142448
   169  H    0.023323
   170  H    0.036839
   171  H    0.010990
   172  H    0.079326
   173  Ca   1.390136
   174  O   -0.316667
   175  H    0.189579
   176  H    0.182624
 Sum of Mulliken charges =  -0.00000

 Dipole moment (field-independent basis, Debye):
    X=              2.2703    Y=            -20.9579    Z=             23.6153  Tot=             31.6555
 Quadrupole moment (field-independent basis, Debye-Ang):
   XX=           -308.5148   YY=           -425.7575   ZZ=           -551.7079
   XY=           -331.5434   XZ=            122.0229   YZ=            -67.8143

 ESP charges:
               1
     1  C   -0.501056
     2  C    0.773254
     3  O   -0.617928
     4  H    0.125992
     5  H    0.102084
     6  H    0.151843
     7  N   -0.655567
     8  C    0.287120
     9  C    0.438560
    10  O   -0.566111
    11  C   -0.192024
    12  C    0.709371
    13  O   -0.696383
    14  O   -0.641698
    15  H    0.294177
    16  H    0.015041
    17  H    0.046976
    18  H    0.088795
    19  N   -0.520960
    20  C    0.110335
    21  C    0.670065
    22  O   -0.534225
    23  C   -0.380771
    24  C    0.164750
    25  C   -0.159949
    26  C    0.139636
    27  N   -0.390612
    28  H    0.314629
    29  H    0.057914
    30  H    0.150737
    31  H    0.100739
    32  H   -0.011060
    33  H    0.020046
    34  H    0.082008
    35  H    0.055290
    36  H    0.059005
    37  H    0.057574
    38  H    0.323313
    39  H    0.301958
    40  H    0.313718
    41  N   -0.467616
    42  C   -0.022526
    43  C    0.566924
    44  O   -0.524596
    45  C   -0.108644
    46  C    0.666596
    47  O   -0.727751
    48  O   -0.729657
    49  H    0.227903
    50  H    0.098978
    51  H    0.042283
    52  H    0.063004
    53  N   -0.423650
    54  C   -0.226443
    55  C    0.681366
    56  O   -0.524435
    57  H    0.374227
    58  H    0.052282
    59  H    0.178580
    60  N   -0.674194
    61  C    0.470151
    62  C    0.291932
    63  O   -0.497250
    64  C   -0.361583
    65  C    0.744240
    66  N   -0.830992
    67  O   -0.549077
    68  H    0.343192
    69  H    0.016880
    70  H    0.116250
    71  H    0.042192
    72  H    0.357507
    73  H    0.387446
    74  N   -0.298960
    75  C    0.040500
    76  C    0.441343
    77  O   -0.503263
    78  H    0.263293
    79  H    0.085003
    80  H    0.036853
    81  N   -0.292914
    82  C   -0.053677
    83  C    0.659095
    84  O   -0.551511
    85  C   -0.165381
    86  C    0.219650
    87  C   -0.321334
    88  C   -0.220254
    89  C   -0.172928
    90  C   -0.267013
    91  C    0.350326
    92  O   -0.562963
    93  H    0.211956
    94  H    0.071064
    95  H    0.065612
    96  H    0.071553
    97  H    0.177846
    98  H    0.152403
    99  H    0.154230
   100  H    0.138355
   101  H    0.421519
   102  N   -0.503439
   103  C   -0.269352
   104  C    0.695051
   105  O   -0.574007
   106  C    0.044913
   107  C    0.218852
   108  C   -0.106875
   109  C   -0.278628
   110  H    0.290810
   111  H    0.153883
   112  H    0.042357
   113  H   -0.022219
   114  H   -0.014355
   115  H    0.066304
   116  H    0.015144
   117  H    0.062989
   118  H    0.077786
   119  H    0.036346
   120  H    0.060004
   121  N   -0.509780
   122  C    0.192888
   123  C    0.509453
   124  O   -0.515627
   125  C    0.164627
   126  O   -0.577677
   127  H    0.254722
   128  H    0.066448
   129  H    0.005935
   130  H    0.056722
   131  H    0.383757
   132  N   -0.744354
   133  C    0.529944
   134  C    0.514836
   135  O   -0.485935
   136  C   -0.430074
   137  H    0.329832
   138  H   -0.031346
   139  H    0.108174
   140  H    0.112044
   141  H    0.118879
   142  N   -0.562298
   143  C    0.280106
   144  C    0.509874
   145  O   -0.474584
   146  C   -0.260204
   147  H    0.258312
   148  H    0.027031
   149  H    0.087349
   150  H    0.058939
   151  H    0.073169
   152  N   -0.433022
   153  C   -0.507487
   154  C    0.659223
   155  O   -0.543528
   156  C    0.529886
   157  C   -0.024312
   158  C    0.615596
   159  O   -0.806615
   160  O   -0.642542
   161  H    0.208711
   162  H    0.240636
   163  H   -0.076606
   164  H   -0.107774
   165  H   -0.105769
   166  H    0.021201
   167  N   -0.348206
   168  C   -0.223087
   169  H    0.104959
   170  H    0.118678
   171  H    0.103580
   172  H    0.267420
   173  Ca   1.602389
   174  O   -0.815411
   175  H    0.389137
   176  H    0.435711
 Sum of ESP charges =   0.00000

 Normal termination of Gaussian 16 at Wed Sep 18 15:03:52 2019.
