 Gaussian 16, Revision A.03,
 Gaussian 16:  ES64L-G16RevA.03 25-Dec-2016

 ----------------------------------------------------------------------
 #b3lyp/svp scf=(tight,noincore) Test #IOP(5/87=12) Density=Current Pop
 =(MK,readradii) iop(6/33=2) iop(6/42=6)
 ----------------------------------------------------------------------

 ----------------
 Ng-31_loop3_31.0
 ----------------
 Symbolic Z-matrix:
 Charge =  0 Multiplicity = 1

                         Standard orientation:
 ---------------------------------------------------------------------
 Center     Atomic      Atomic             Coordinates (Angstroms)
 Number     Number       Type             X           Y           Z
 ---------------------------------------------------------------------
      1          6           0        4.741915    0.522303    5.497253
      2          6           0        4.482255    0.786783    4.020897
      3          8           0        3.383359    0.994094    3.505485
      4          1           0        4.077233   -0.268238    5.846525
      5          1           0        5.777511    0.212386    5.634287
      6          1           0        4.555328    1.431952    6.068526
      7          7           0        5.543627    0.815369    3.212396
      8          6           0        5.584619    1.007540    1.777025
      9          6           0        5.838687   -0.276102    1.003453
     10          8           0        4.847274   -0.925240    0.660207
     11          6           0        6.493569    2.190999    1.435362
     12          6           0        7.823344    2.240913    2.174893
     13          8           0        8.593540    1.254116    2.142803
     14          8           0        8.022625    3.219256    2.924649
     15          1           0        6.387624    0.466461    3.659422
     16          1           0        4.607218    1.341249    1.437575
     17          1           0        5.875795    3.069498    1.600265
     18          1           0        6.661966    2.131892    0.364171
     19          7           0        7.062868   -0.653400    0.653701
     20          6           0        7.339816   -1.780722   -0.214427
     21          6           0        6.822945   -1.346967   -1.576815
     22          8           0        7.391971   -0.504040   -2.272864
     23          6           0        8.786165   -2.247412   -0.236229
     24          6           0        9.142487   -3.229681    0.877450
     25          6           0       10.574549   -3.734147    0.652254
     26          6           0       10.646593   -5.024283    1.468438
     27          7           0       11.949982   -5.705222    1.387812
     28          1           0        7.854270   -0.086932    0.932444
     29          1           0        6.790673   -2.655488    0.142962
     30          1           0        9.504841   -1.422586   -0.249141
     31          1           0        8.923414   -2.882928   -1.107712
     32          1           0        8.439418   -4.059667    0.825325
     33          1           0        8.932049   -2.672839    1.788352
     34          1           0       11.282333   -2.949391    0.912062
     35          1           0       10.754029   -3.995484   -0.391005
     36          1           0        9.861150   -5.735090    1.184126
     37          1           0       10.393689   -4.716301    2.481150
     38          1           0       12.189791   -5.918315    0.433620
     39          1           0       12.643467   -5.136033    1.850417
     40          1           0       11.861761   -6.560555    1.914236
     41          7           0        5.795045   -1.978801   -2.156216
     42          6           0        5.360776   -1.612067   -3.488851
     43          6           0        4.510365   -0.347840   -3.442670
     44          8           0        4.250475    0.329589   -4.435216
     45          6           0        4.647369   -2.786428   -4.143471
     46          6           0        3.418561   -3.189229   -3.350072
     47          8           0        2.516587   -2.391150   -3.020963
     48          8           0        3.150442   -4.400746   -3.193742
     49          1           0        5.184151   -2.621526   -1.665998
     50          1           0        6.285461   -1.429748   -4.028683
     51          1           0        5.297176   -3.645651   -4.306830
     52          1           0        4.472499   -2.607884   -5.205188
     53          7           0        4.015573    0.016238   -2.257205
     54          6           0        3.328362    1.271794   -1.991273
     55          6           0        4.069134    2.572723   -2.253459
     56          8           0        5.207292    2.613180   -2.730806
     57          1           0        4.261383   -0.647120   -1.536696
     58          1           0        2.949808    1.243022   -0.968156
     59          1           0        2.391918    1.264300   -2.547525
     60          7           0        3.576391    3.748792   -1.856135
     61          6           0        2.256329    3.942632   -1.307261
     62          6           0        2.214466    4.656661    0.037547
     63          8           0        2.865852    5.667726    0.261252
     64          6           0        1.391526    4.653691   -2.346160
     65          6           0        1.157815    3.916976   -3.649207
     66          7           0       -0.048338    4.212518   -4.142005
     67          8           0        1.872637    3.066656   -4.171305
     68          1           0        4.109720    4.576872   -2.079844
     69          1           0        1.808183    2.960722   -1.189288
     70          1           0        1.818065    5.613198   -2.642827
     71          1           0        0.452443    4.903344   -1.848672
     72          1           0       -0.738952    4.588553   -3.511887
     73          1           0       -0.315099    3.662714   -4.955795
     74          7           0        1.452283    4.253959    1.058237
     75          6           0        0.733736    3.014619    1.256291
     76          6           0       -0.708230    2.868527    0.806523
     77          8           0       -1.231480    1.757087    0.861397
     78          1           0        1.669860    4.725503    1.926400
     79          1           0        0.682399    2.826828    2.333648
     80          1           0        1.308378    2.263841    0.715719
     81          7           0       -1.414542    3.903777    0.333469
     82          6           0       -2.847159    3.904887    0.118742
     83          6           0       -3.333897    3.780829   -1.316701
     84          8           0       -2.897662    4.531385   -2.184896
     85          6           0       -3.434806    5.155793    0.773345
     86          6           0       -3.051402    5.409923    2.210571
     87          6           0       -2.962664    4.368284    3.140202
     88          6           0       -2.575010    6.652574    2.655285
     89          6           0       -2.620397    4.563330    4.484602
     90          6           0       -2.262263    6.918073    3.991623
     91          6           0       -2.360511    5.875414    4.927203
     92          8           0       -1.975364    6.012824    6.231113
     93          1           0       -0.984905    4.814094    0.327441
     94          1           0       -3.244266    3.051154    0.686232
     95          1           0       -4.513111    5.126586    0.646050
     96          1           0       -3.167867    6.002247    0.147518
     97          1           0       -3.093653    3.339753    2.830580
     98          1           0       -2.487087    7.461011    1.943387
     99          1           0       -2.663969    3.821585    5.257205
    100          1           0       -2.053797    7.937476    4.297498
    101          1           0       -1.706741    6.912894    6.390220
    102          7           0       -4.161494    2.752016   -1.484415
    103          6           0       -4.702908    2.327044   -2.756881
    104          6           0       -6.080875    1.692019   -2.640479
    105          8           0       -6.648735    1.581831   -3.732080
    106          6           0       -3.769000    1.320480   -3.412356
    107          6           0       -2.436957    2.001834   -3.737192
    108          6           0       -3.650804    0.036174   -2.590172
    109          6           0       -1.662329    1.045782   -4.633247
    110          1           0       -4.494096    2.328473   -0.631135
    111          1           0       -4.920729    3.204872   -3.367759
    112          1           0       -4.250438    1.012273   -4.342961
    113          1           0       -1.828498    2.133174   -2.845101
    114          1           0       -2.596307    2.932909   -4.282909
    115          1           0       -4.633352   -0.392918   -2.432119
    116          1           0       -3.113819   -0.658376   -3.245723
    117          1           0       -3.030838    0.301689   -1.733642
    118          1           0       -0.854585    1.703073   -4.985126
    119          1           0       -1.223873    0.192210   -4.109729
    120          1           0       -2.164894    0.697246   -5.528820
    121          7           0       -6.565333    1.237542   -1.489066
    122          6           0       -7.819229    0.525748   -1.369087
    123          6           0       -7.739345   -0.797061   -0.631459
    124          8           0       -7.170599   -0.833815    0.462788
    125          6           0       -8.921564    1.426033   -0.814791
    126          8           0       -9.236640    2.462749   -1.715317
    127          1           0       -6.093655    1.411209   -0.619320
    128          1           0       -8.094152    0.255242   -2.391508
    129          1           0       -8.552326    1.815542    0.133179
    130          1           0       -9.840390    0.871616   -0.608438
    131          1           0       -9.169331    2.105547   -2.602603
    132          7           0       -8.390041   -1.829124   -1.190065
    133          6           0       -8.678603   -2.992128   -0.373637
    134          6           0       -7.458165   -3.831360    0.004281
    135          8           0       -6.363257   -3.719980   -0.525975
    136          6           0       -9.744637   -3.843642   -1.046240
    137          1           0       -8.761359   -1.739245   -2.121217
    138          1           0       -9.145115   -2.654315    0.553157
    139          1           0       -9.853580   -4.868321   -0.695863
    140          1           0      -10.687160   -3.298487   -0.992786
    141          1           0       -9.611541   -3.869136   -2.128569
    142          7           0       -7.609043   -4.718212    0.993285
    143          6           0       -6.655714   -5.751095    1.363983
    144          6           0       -5.214849   -5.332428    1.607349
    145          8           0       -4.348252   -6.153066    1.322280
    146          6           0       -6.969325   -6.983551    0.523924
    147          1           0       -8.552558   -4.725499    1.357876
    148          1           0       -7.012784   -6.101893    2.334777
    149          1           0       -6.458086   -6.741414   -0.410477
    150          1           0       -6.515319   -7.898142    0.903793
    151          1           0       -8.019895   -7.138392    0.288709
    152          7           0       -5.020462   -4.127678    2.158067
    153          6           0       -3.740061   -3.503534    2.452715
    154          6           0       -3.511346   -3.123441    3.907404
    155          8           0       -2.475181   -3.473363    4.460592
    156          6           0       -3.420097   -2.299316    1.571362
    157          6           0       -3.015841   -2.675107    0.143686
    158          6           0       -1.597769   -3.170452   -0.099429
    159          8           0       -0.689002   -2.332361   -0.270738
    160          8           0       -1.350914   -4.388439   -0.247992
    161          1           0       -5.866335   -3.602804    2.337806
    162          1           0       -2.977006   -4.245946    2.238073
    163          1           0       -2.546874   -1.773919    1.960642
    164          1           0       -4.263511   -1.624217    1.702869
    165          1           0       -3.150796   -1.756593   -0.427470
    166          1           0       -3.780243   -3.224278   -0.392878
    167          7           0       -4.520988   -2.634659    4.631915
    168          6           0       -4.578444   -2.441702    6.069679
    169          1           0       -4.883542   -3.372279    6.549105
    170          1           0       -3.595063   -2.150004    6.437052
    171          1           0       -5.300989   -1.659225    6.303779
    172          1           0       -5.294361   -2.236309    4.110272
    173         20           0        1.276812   -4.004407   -1.266951
    174          8           0        1.411797   -4.121149    1.274830
    175          1           0        0.652349   -4.088128    1.851068
    176          1           0        2.133362   -3.807551    1.819806
 ---------------------------------------------------------------------

 SCF Done:  E(RB3LYP) =  -5333.34360268     A.U. after   36 cycles

 The electronic state is 1-A.
 Alpha  occ. eigenvalues -- -145.43712 -19.18390 -19.15972 -19.13756 -19.12345
 Alpha  occ. eigenvalues --  -19.10244 -19.10070 -19.09929 -19.07983 -19.07948
 Alpha  occ. eigenvalues --  -19.07499 -19.06853 -19.06742 -19.06587 -19.06568
 Alpha  occ. eigenvalues --  -19.06437 -19.06090 -19.04338 -19.04324 -19.03836
 Alpha  occ. eigenvalues --  -19.02483 -19.01876 -18.98368 -18.96781 -15.49629
 Alpha  occ. eigenvalues --  -14.58702 -14.38717 -14.37646 -14.36776 -14.36484
 Alpha  occ. eigenvalues --  -14.34967 -14.34747 -14.34450 -14.33693 -14.33153
 Alpha  occ. eigenvalues --  -14.31954 -14.31554 -14.30697 -14.30182 -14.28496
 Alpha  occ. eigenvalues --  -12.63254 -12.63228 -12.63110 -10.35340 -10.30741
 Alpha  occ. eigenvalues --  -10.29066 -10.29048 -10.28544 -10.27921 -10.27553
 Alpha  occ. eigenvalues --  -10.27120 -10.26376 -10.26369 -10.26138 -10.25779
 Alpha  occ. eigenvalues --  -10.25466 -10.25380 -10.25205 -10.25102 -10.24954
 Alpha  occ. eigenvalues --  -10.24702 -10.24073 -10.23944 -10.23884 -10.23189
 Alpha  occ. eigenvalues --  -10.23152 -10.22989 -10.22633 -10.22436 -10.22137
 Alpha  occ. eigenvalues --  -10.22081 -10.21781 -10.21433 -10.21312 -10.21204
 Alpha  occ. eigenvalues --  -10.20679 -10.19560 -10.19472 -10.19188 -10.19122
 Alpha  occ. eigenvalues --  -10.18907 -10.18858 -10.18268 -10.18088 -10.18047
 Alpha  occ. eigenvalues --  -10.18032 -10.17636 -10.17161 -10.17038 -10.16829
 Alpha  occ. eigenvalues --  -10.16813 -10.16572 -10.15824 -10.15790 -10.14671
 Alpha  occ. eigenvalues --  -10.13969 -10.10731  -1.86217  -1.14167  -1.13949
 Alpha  occ. eigenvalues --   -1.13644  -1.12894  -1.05264  -1.04774  -1.04332
 Alpha  occ. eigenvalues --   -1.03833  -1.03418  -1.02863  -1.02051  -1.01993
 Alpha  occ. eigenvalues --   -1.01447  -1.01151  -1.00861  -1.00840  -1.00481
 Alpha  occ. eigenvalues --   -0.99506  -0.99156  -0.99019  -0.97645  -0.96374
 Alpha  occ. eigenvalues --   -0.95150  -0.94966  -0.94291  -0.93325  -0.93169
 Alpha  occ. eigenvalues --   -0.92139  -0.91473  -0.91274  -0.90211  -0.90132
 Alpha  occ. eigenvalues --   -0.89977  -0.89817  -0.89315  -0.88965  -0.88192
 Alpha  occ. eigenvalues --   -0.87261  -0.87049  -0.86903  -0.84729  -0.84392
 Alpha  occ. eigenvalues --   -0.82139  -0.81701  -0.81647  -0.80728  -0.78430
 Alpha  occ. eigenvalues --   -0.78255  -0.77225  -0.76446  -0.76120  -0.75167
 Alpha  occ. eigenvalues --   -0.74898  -0.74206  -0.73998  -0.73919  -0.73696
 Alpha  occ. eigenvalues --   -0.72439  -0.72363  -0.71635  -0.70746  -0.69120
 Alpha  occ. eigenvalues --   -0.69096  -0.68894  -0.68774  -0.68322  -0.67771
 Alpha  occ. eigenvalues --   -0.66697  -0.66392  -0.65295  -0.64780  -0.64757
 Alpha  occ. eigenvalues --   -0.63221  -0.63183  -0.62008  -0.61565  -0.61329
 Alpha  occ. eigenvalues --   -0.61058  -0.60773  -0.59861  -0.59549  -0.59008
 Alpha  occ. eigenvalues --   -0.58846  -0.58672  -0.58219  -0.57838  -0.57468
 Alpha  occ. eigenvalues --   -0.57354  -0.57186  -0.56929  -0.56898  -0.56231
 Alpha  occ. eigenvalues --   -0.56068  -0.55691  -0.55121  -0.54931  -0.54432
 Alpha  occ. eigenvalues --   -0.53947  -0.53529  -0.53175  -0.52433  -0.52110
 Alpha  occ. eigenvalues --   -0.51901  -0.51605  -0.51584  -0.51518  -0.51046
 Alpha  occ. eigenvalues --   -0.50574  -0.50277  -0.50167  -0.50024  -0.49657
 Alpha  occ. eigenvalues --   -0.48920  -0.48864  -0.48825  -0.48342  -0.48286
 Alpha  occ. eigenvalues --   -0.47884  -0.47709  -0.47218  -0.47010  -0.46914
 Alpha  occ. eigenvalues --   -0.46785  -0.46613  -0.46461  -0.45853  -0.45750
 Alpha  occ. eigenvalues --   -0.45283  -0.45129  -0.45085  -0.44722  -0.44524
 Alpha  occ. eigenvalues --   -0.44363  -0.44239  -0.44014  -0.43925  -0.43851
 Alpha  occ. eigenvalues --   -0.43651  -0.43489  -0.43318  -0.43266  -0.43002
 Alpha  occ. eigenvalues --   -0.42871  -0.42736  -0.42508  -0.42420  -0.42333
 Alpha  occ. eigenvalues --   -0.42195  -0.42023  -0.41794  -0.41748  -0.41458
 Alpha  occ. eigenvalues --   -0.41179  -0.41134  -0.41005  -0.40830  -0.40685
 Alpha  occ. eigenvalues --   -0.40606  -0.40516  -0.40455  -0.40060  -0.39934
 Alpha  occ. eigenvalues --   -0.39790  -0.39650  -0.39612  -0.39535  -0.39248
 Alpha  occ. eigenvalues --   -0.39198  -0.39085  -0.39059  -0.38945  -0.38682
 Alpha  occ. eigenvalues --   -0.38422  -0.38372  -0.38246  -0.38229  -0.37868
 Alpha  occ. eigenvalues --   -0.37755  -0.37422  -0.37357  -0.37265  -0.37144
 Alpha  occ. eigenvalues --   -0.36836  -0.36762  -0.36540  -0.36483  -0.36368
 Alpha  occ. eigenvalues --   -0.36208  -0.36084  -0.35796  -0.35732  -0.35667
 Alpha  occ. eigenvalues --   -0.35578  -0.35173  -0.34938  -0.34766  -0.34550
 Alpha  occ. eigenvalues --   -0.34536  -0.34375  -0.33966  -0.33874  -0.33799
 Alpha  occ. eigenvalues --   -0.33735  -0.33589  -0.33540  -0.33408  -0.33175
 Alpha  occ. eigenvalues --   -0.32969  -0.32494  -0.32378  -0.32073  -0.31416
 Alpha  occ. eigenvalues --   -0.31352  -0.31264  -0.31212  -0.30197  -0.29942
 Alpha  occ. eigenvalues --   -0.29827  -0.29507  -0.29091  -0.28866  -0.28487
 Alpha  occ. eigenvalues --   -0.27320  -0.27220  -0.26911  -0.26807  -0.26457
 Alpha  occ. eigenvalues --   -0.26090  -0.25793  -0.25713  -0.25641  -0.25421
 Alpha  occ. eigenvalues --   -0.25095  -0.25075  -0.24677  -0.24297  -0.24212
 Alpha  occ. eigenvalues --   -0.24116  -0.23989  -0.23804  -0.23570  -0.23381
 Alpha  occ. eigenvalues --   -0.22959  -0.22543  -0.22193  -0.22159  -0.22075
 Alpha  occ. eigenvalues --   -0.21774  -0.21483  -0.21238  -0.20760  -0.19893
 Alpha  occ. eigenvalues --   -0.19790  -0.19458  -0.19088  -0.17854  -0.17275
 Alpha  occ. eigenvalues --   -0.15384  -0.15084  -0.12388
 Alpha virt. eigenvalues --   -0.11272  -0.04998  -0.04662  -0.04507  -0.01496
 Alpha virt. eigenvalues --   -0.01289  -0.01194  -0.00030   0.00167   0.01130
 Alpha virt. eigenvalues --    0.01515   0.01543   0.01644   0.01822   0.01945

 Mulliken charges:
               1
     1  C    0.071248
     2  C   -0.005771
     3  O   -0.306317
     4  H    0.022156
     5  H   -0.006727
     6  H    0.046796
     7  N   -0.119519
     8  C    0.132393
     9  C    0.054490
    10  O   -0.339096
    11  C    0.092340
    12  C    0.057087
    13  O   -0.414057
    14  O   -0.344815
    15  H    0.116638
    16  H    0.002154
    17  H   -0.017952
    18  H    0.012252
    19  N   -0.107750
    20  C    0.161884
    21  C    0.077544
    22  O   -0.262296
    23  C    0.043541
    24  C   -0.035747
    25  C    0.011552
    26  C   -0.033910
    27  N    0.130432
    28  H    0.112451
    29  H   -0.049759
    30  H    0.046884
    31  H   -0.007624
    32  H   -0.004762
    33  H    0.048524
    34  H    0.053516
    35  H    0.015891
    36  H    0.068593
    37  H    0.081136
    38  H    0.171618
    39  H    0.173986
    40  H    0.160374
    41  N   -0.164581
    42  C    0.089524
    43  C    0.099320
    44  O   -0.264330
    45  C    0.152454
    46  C    0.021232
    47  O   -0.385297
    48  O   -0.430438
    49  H    0.105688
    50  H    0.019136
    51  H   -0.026319
    52  H    0.035567
    53  N   -0.125639
    54  C    0.167383
    55  C    0.074523
    56  O   -0.258875
    57  H    0.099292
    58  H    0.011057
    59  H    0.037806
    60  N   -0.093663
    61  C    0.049429
    62  C    0.076652
    63  O   -0.260534
    64  C    0.044806
    65  C    0.037352
    66  N   -0.075564
    67  O   -0.231641
    68  H    0.122898
    69  H   -0.004618
    70  H    0.035144
    71  H   -0.017630
    72  H    0.135578
    73  H    0.131052
    74  N   -0.132729
    75  C    0.182925
    76  C    0.017312
    77  O   -0.281982
    78  H    0.133437
    79  H    0.061917
    80  H    0.059945
    81  N   -0.098050
    82  C    0.052078
    83  C    0.120068
    84  O   -0.287940
    85  C    0.131831
    86  C    0.018206
    87  C   -0.027146
    88  C   -0.032290
    89  C   -0.011225
    90  C   -0.039785
    91  C    0.144804
    92  O   -0.190682
    93  H    0.124264
    94  H   -0.001518
    95  H   -0.001231
    96  H   -0.003214
    97  H   -0.012298
    98  H   -0.028679
    99  H   -0.021520
   100  H   -0.032518
   101  H    0.168391
   102  N   -0.139069
   103  C    0.177424
   104  C    0.041435
   105  O   -0.294468
   106  C   -0.108551
   107  C    0.039770
   108  C    0.006318
   109  C    0.028126
   110  H    0.123521
   111  H    0.027486
   112  H   -0.003989
   113  H    0.021734
   114  H   -0.008197
   115  H    0.015302
   116  H    0.015983
   117  H    0.053913
   118  H   -0.010099
   119  H    0.035390
   120  H   -0.003905
   121  N   -0.099719
   122  C    0.031253
   123  C    0.108837
   124  O   -0.289425
   125  C    0.296468
   126  O   -0.298373
   127  H    0.110655
   128  H   -0.011281
   129  H    0.000564
   130  H   -0.018880
   131  H    0.168187
   132  N   -0.115865
   133  C    0.066063
   134  C    0.067672
   135  O   -0.237762
   136  C    0.035133
   137  H    0.132155
   138  H    0.011006
   139  H    0.031853
   140  H    0.020043
   141  H    0.016623
   142  N   -0.147916
   143  C    0.055008
   144  C    0.098617
   145  O   -0.247362
   146  C    0.060577
   147  H    0.104015
   148  H    0.008532
   149  H    0.031440
   150  H    0.025419
   151  H   -0.008836
   152  N   -0.117914
   153  C    0.116530
   154  C    0.060248
   155  O   -0.279577
   156  C    0.017307
   157  C    0.144122
   158  C    0.066404
   159  O   -0.413774
   160  O   -0.420853
   161  H    0.102860
   162  H    0.015796
   163  H    0.022128
   164  H   -0.027947
   165  H   -0.018697
   166  H    0.007124
   167  N   -0.165382
   168  C    0.130995
   169  H    0.024183
   170  H    0.042743
   171  H    0.012837
   172  H    0.105828
   173  Ca   1.345258
   174  O   -0.327644
   175  H    0.215217
   176  H    0.190861
 Sum of Mulliken charges =  -0.00000

 Dipole moment (field-independent basis, Debye):
    X=              5.7263    Y=            -32.6442    Z=             12.0921  Tot=             35.2797
 Quadrupole moment (field-independent basis, Debye-Ang):
   XX=           -129.6062   YY=           -438.3122   ZZ=           -599.0100
   XY=           -329.2449   XZ=             43.9645   YZ=            -21.7896

 ESP charges:
               1
     1  C   -0.528283
     2  C    0.766139
     3  O   -0.652497
     4  H    0.130307
     5  H    0.116055
     6  H    0.163405
     7  N   -0.496869
     8  C    0.230165
     9  C    0.285454
    10  O   -0.534673
    11  C   -0.407208
    12  C    0.758892
    13  O   -0.720953
    14  O   -0.653093
    15  H    0.266859
    16  H    0.110226
    17  H    0.115014
    18  H    0.080920
    19  N   -0.207786
    20  C   -0.119882
    21  C    0.668964
    22  O   -0.543297
    23  C   -0.188996
    24  C    0.262088
    25  C   -0.182758
    26  C    0.205318
    27  N   -0.437667
    28  H    0.260133
    29  H    0.096020
    30  H    0.101921
    31  H    0.044257
    32  H   -0.060732
    33  H   -0.019663
    34  H    0.080590
    35  H    0.048252
    36  H    0.048950
    37  H    0.015836
    38  H    0.329486
    39  H    0.330095
    40  H    0.309849
    41  N   -0.446967
    42  C   -0.245361
    43  C    0.558382
    44  O   -0.536174
    45  C   -0.158946
    46  C    0.863399
    47  O   -0.743715
    48  O   -0.819948
    49  H    0.204584
    50  H    0.200883
    51  H    0.059538
    52  H    0.108249
    53  N   -0.263919
    54  C    0.003463
    55  C    0.659950
    56  O   -0.514661
    57  H    0.187314
    58  H    0.030132
    59  H    0.074687
    60  N   -0.723917
    61  C    0.325354
    62  C    0.536499
    63  O   -0.556664
    64  C   -0.351014
    65  C    0.733109
    66  N   -0.876122
    67  O   -0.511363
    68  H    0.362291
    69  H    0.021258
    70  H    0.132651
    71  H    0.031663
    72  H    0.392843
    73  H    0.395999
    74  N   -0.487004
    75  C   -0.014423
    76  C    0.515704
    77  O   -0.552263
    78  H    0.320106
    79  H    0.128363
    80  H    0.071118
    81  N   -0.434238
    82  C    0.074438
    83  C    0.596886
    84  O   -0.560493
    85  C   -0.079972
    86  C    0.072494
    87  C   -0.242892
    88  C   -0.175045
    89  C   -0.138714
    90  C   -0.260029
    91  C    0.298023
    92  O   -0.530440
    93  H    0.262774
    94  H    0.062824
    95  H    0.034918
    96  H    0.052693
    97  H    0.147632
    98  H    0.134429
    99  H    0.141522
   100  H    0.139345
   101  H    0.407227
   102  N   -0.349143
   103  C   -0.482087
   104  C    0.727578
   105  O   -0.571372
   106  C    0.198643
   107  C   -0.034143
   108  C   -0.304589
   109  C   -0.171193
   110  H    0.216686
   111  H    0.205993
   112  H    0.032516
   113  H    0.066743
   114  H    0.059521
   115  H    0.118978
   116  H    0.062121
   117  H    0.138152
   118  H   -0.008395
   119  H    0.079974
   120  H    0.046489
   121  N   -0.426930
   122  C   -0.130985
   123  C    0.550904
   124  O   -0.520107
   125  C    0.261246
   126  O   -0.585091
   127  H    0.314089
   128  H    0.091263
   129  H    0.046021
   130  H    0.000062
   131  H    0.381902
   132  N   -0.585444
   133  C    0.275228
   134  C    0.542926
   135  O   -0.468226
   136  C   -0.376619
   137  H    0.348622
   138  H    0.024947
   139  H    0.111058
   140  H    0.099010
   141  H    0.109197
   142  N   -0.649046
   143  C    0.466490
   144  C    0.421868
   145  O   -0.493553
   146  C   -0.297116
   147  H    0.292210
   148  H   -0.025624
   149  H    0.072304
   150  H    0.070526
   151  H    0.082649
   152  N   -0.536088
   153  C    0.191733
   154  C    0.526665
   155  O   -0.536558
   156  C   -0.232814
   157  C    0.603465
   158  C    0.491543
   159  O   -0.728720
   160  O   -0.732656
   161  H    0.222991
   162  H    0.058295
   163  H    0.030667
   164  H    0.036175
   165  H   -0.182540
   166  H   -0.111723
   167  N   -0.385139
   168  C   -0.129132
   169  H    0.085004
   170  H    0.102050
   171  H    0.074487
   172  H    0.283534
   173  Ca   1.613216
   174  O   -0.838055
   175  H    0.435536
   176  H    0.432523
 Sum of ESP charges =  -0.00000

 Normal termination of Gaussian 16 at Wed Sep 18 16:54:36 2019.
