 Gaussian 16, Revision A.03,
 Gaussian 16:  ES64L-G16RevA.03 25-Dec-2016

 ----------------------------------------------------------------------
 #b3lyp/svp scf=(tight,noincore) Test #IOP(5/87=12) Density=Current Pop
 =(MK,readradii) iop(6/33=2) iop(6/42=6)
 ----------------------------------------------------------------------

 ---------------
 Ng-31_loop3_2.0
 ---------------
 Symbolic Z-matrix:
 Charge =  0 Multiplicity = 1

                         Standard orientation:
 ---------------------------------------------------------------------
 Center     Atomic      Atomic             Coordinates (Angstroms)
 Number     Number       Type             X           Y           Z
 ---------------------------------------------------------------------
      1          6           0        3.903918   -5.619804    0.256778
      2          6           0        4.494722   -4.363296    0.874467
      3          8           0        3.914167   -3.652443    1.698023
      4          1           0        3.471867   -6.241535    1.041327
      5          1           0        3.126638   -5.343871   -0.456593
      6          1           0        4.688366   -6.176476   -0.256767
      7          7           0        5.734322   -4.140681    0.420228
      8          6           0        6.750984   -3.159852    0.744071
      9          6           0        7.056720   -2.372977   -0.529134
     10          8           0        6.872713   -2.861517   -1.644961
     11          6           0        8.050273   -3.823849    1.166278
     12          6           0        8.583073   -4.849500    0.164898
     13          8           0        7.870964   -5.783132   -0.259048
     14          8           0        9.798570   -4.772651   -0.100738
     15          1           0        6.084983   -4.874321   -0.163475
     16          1           0        6.347679   -2.491572    1.505416
     17          1           0        7.871206   -4.400156    2.076006
     18          1           0        8.779201   -3.043189    1.400444
     19          7           0        7.734409   -1.233080   -0.418351
     20          6           0        8.223684   -0.527083   -1.585860
     21          6           0        7.130807    0.158875   -2.402671
     22          8           0        7.377167    0.929436   -3.330755
     23          6           0        9.428932    0.337649   -1.254473
     24          6           0       10.576543   -0.276205   -0.470908
     25          6           0       11.212985   -1.588321   -0.942387
     26          6           0       12.091869   -2.104279    0.191610
     27          7           0       12.375731   -3.526202   -0.048720
     28          1           0        7.798450   -0.725889    0.444178
     29          1           0        8.433199   -1.291758   -2.339899
     30          1           0        9.097127    1.188623   -0.661980
     31          1           0        9.773724    0.795490   -2.178378
     32          1           0       10.218248   -0.345164    0.558300
     33          1           0       11.333800    0.513143   -0.493106
     34          1           0       11.849584   -1.394605   -1.799309
     35          1           0       10.399090   -2.267346   -1.213313
     36          1           0       11.564480   -1.953876    1.135453
     37          1           0       13.059774   -1.622548    0.137797
     38          1           0       12.829268   -3.586627   -0.943064
     39          1           0       12.980678   -3.897277    0.671795
     40          1           0       11.531386   -4.082615   -0.070770
     41          7           0        5.914474   -0.007310   -1.886998
     42          6           0        4.637122    0.079413   -2.568578
     43          6           0        3.842549    1.345263   -2.289333
     44          8           0        3.171080    1.920997   -3.141718
     45          6           0        3.752616   -1.136506   -2.324472
     46          6           0        3.367286   -1.441051   -0.891198
     47          8           0        2.306694   -2.075657   -0.713942
     48          8           0        3.993882   -1.013048    0.106094
     49          1           0        5.865876   -0.585156   -1.054572
     50          1           0        4.754005    0.116671   -3.657913
     51          1           0        4.212370   -2.064527   -2.674905
     52          1           0        2.785655   -0.910897   -2.795415
     53          7           0        3.836738    1.760488   -1.016362
     54          6           0        3.331817    3.031555   -0.540713
     55          6           0        4.252620    4.210292   -0.832778
     56          8           0        5.299744    4.090828   -1.461474
     57          1           0        4.227167    1.113335   -0.348411
     58          1           0        3.264003    3.063411    0.544684
     59          1           0        2.371976    3.314457   -0.983964
     60          7           0        3.881114    5.410630   -0.393152
     61          6           0        2.706205    5.741856    0.379167
     62          6           0        3.008871    5.339526    1.812598
     63          8           0        4.172101    5.430126    2.203605
     64          6           0        2.420665    7.244585    0.340809
     65          6           0        2.140612    7.842932   -1.027311
     66          7           0        1.181576    7.275064   -1.765332
     67          8           0        2.723750    8.868074   -1.366184
     68          1           0        4.474353    6.212587   -0.561770
     69          1           0        1.904468    5.164408   -0.090591
     70          1           0        3.247370    7.778869    0.821224
     71          1           0        1.607389    7.462192    1.034948
     72          1           0        0.734333    6.399009   -1.535114
     73          1           0        0.909913    7.722594   -2.628591
     74          7           0        2.008606    4.949369    2.613316
     75          6           0        0.584620    5.017527    2.368947
     76          6           0        0.000524    3.804002    1.675052
     77          8           0        0.348432    3.355951    0.584268
     78          1           0        2.214781    4.719264    3.581637
     79          1           0        0.330057    5.912056    1.793435
     80          1           0        0.077175    5.067956    3.330330
     81          7           0       -1.051733    3.321893    2.347157
     82          6           0       -2.095685    2.558606    1.692208
     83          6           0       -2.827794    3.319875    0.597956
     84          8           0       -2.797399    4.538975    0.584896
     85          6           0       -3.069933    2.052286    2.759064
     86          6           0       -2.524648    0.997944    3.695187
     87          6           0       -2.665957   -0.352688    3.369723
     88          6           0       -2.103619    1.413817    4.965417
     89          6           0       -2.364619   -1.355231    4.308340
     90          6           0       -1.896258    0.445543    5.943959
     91          6           0       -2.067558   -0.918736    5.614720
     92          8           0       -1.757846   -1.839847    6.563263
     93          1           0       -1.273352    3.721427    3.245854
     94          1           0       -1.585390    1.701725    1.239380
     95          1           0       -3.974062    1.645223    2.327843
     96          1           0       -3.364410    2.952085    3.302336
     97          1           0       -2.921731   -0.704754    2.383605
     98          1           0       -2.002311    2.459385    5.228143
     99          1           0       -2.322249   -2.413512    4.089145
    100          1           0       -1.704231    0.697892    6.975825
    101          1           0       -1.526407   -1.418934    7.387925
    102          7           0       -3.585649    2.620016   -0.254542
    103          6           0       -4.491193    3.199226   -1.220051
    104          6           0       -5.967197    3.087486   -0.851369
    105          8           0       -6.749728    4.023145   -1.036806
    106          6           0       -4.263663    2.755517   -2.668033
    107          6           0       -3.090841    3.455944   -3.338920
    108          6           0       -4.176538    1.233149   -2.704144
    109          6           0       -2.877379    3.099346   -4.804619
    110          1           0       -3.651960    1.623941   -0.126723
    111          1           0       -4.330100    4.275416   -1.198546
    112          1           0       -5.116319    3.066216   -3.268569
    113          1           0       -2.213872    3.241669   -2.723849
    114          1           0       -3.357416    4.509130   -3.412652
    115          1           0       -4.952976    0.768976   -2.089500
    116          1           0       -4.246271    0.927990   -3.748470
    117          1           0       -3.268498    0.894719   -2.204918
    118          1           0       -2.478243    2.084856   -4.837800
    119          1           0       -3.826480    3.178485   -5.338233
    120          1           0       -2.103718    3.761163   -5.184680
    121          7           0       -6.335770    2.007879   -0.166092
    122          6           0       -7.540404    2.006290    0.641594
    123          6           0       -8.581597    1.024395    0.145712
    124          8           0       -9.715956    1.083067    0.601219
    125          6           0       -7.039120    1.687251    2.050256
    126          8           0       -6.492488    0.395666    2.191323
    127          1           0       -5.782713    1.164211   -0.158923
    128          1           0       -7.954011    3.014077    0.681531
    129          1           0       -7.894097    1.699388    2.732434
    130          1           0       -6.367042    2.487354    2.374366
    131          1           0       -5.903653    0.247356    1.440405
    132          7           0       -8.215580    0.162983   -0.813142
    133          6           0       -8.933943   -0.910139   -1.477719
    134          6           0       -8.010605   -1.964939   -2.085868
    135          8           0       -6.896661   -1.668123   -2.498818
    136          6           0       -9.689515   -0.275216   -2.643988
    137          1           0       -7.240877    0.246339   -1.070059
    138          1           0       -9.648487   -1.462464   -0.877166
    139          1           0      -10.355511   -1.064282   -3.003328
    140          1           0      -10.308030    0.541101   -2.270805
    141          1           0       -8.994004    0.037583   -3.419371
    142          7           0       -8.575226   -3.169405   -2.225743
    143          6           0       -8.019340   -4.401038   -2.745523
    144          6           0       -6.597629   -4.698600   -2.289569
    145          8           0       -5.900029   -5.490696   -2.928193
    146          6           0       -8.150983   -4.385795   -4.270692
    147          1           0       -9.560413   -3.248910   -2.031875
    148          1           0       -8.599595   -5.185793   -2.265561
    149          1           0       -7.796229   -3.485969   -4.779084
    150          1           0       -7.617200   -5.208360   -4.742775
    151          1           0       -9.213106   -4.572628   -4.481375
    152          7           0       -6.229471   -4.173226   -1.127571
    153          6           0       -4.952501   -4.445791   -0.512791
    154          6           0       -5.048422   -5.522887    0.566636
    155          8           0       -4.014051   -6.127382    0.865238
    156          6           0       -4.607955   -3.155604    0.217692
    157          6           0       -4.013664   -2.139942   -0.758037
    158          6           0       -3.774209   -0.803828   -0.073886
    159          8           0       -2.595498   -0.382005   -0.076010
    160          8           0       -4.642727   -0.151773    0.548126
    161          1           0       -6.819445   -3.437315   -0.743427
    162          1           0       -4.162085   -4.665767   -1.228651
    163          1           0       -3.855798   -3.359089    0.990579
    164          1           0       -5.498246   -2.649983    0.588542
    165          1           0       -4.785316   -1.999971   -1.517287
    166          1           0       -3.120449   -2.549483   -1.234528
    167          7           0       -6.217551   -5.761811    1.155663
    168          6           0       -6.510447   -6.718476    2.199072
    169          1           0       -5.590326   -7.218174    2.501980
    170          1           0       -6.941793   -6.201928    3.056209
    171          1           0       -7.218800   -7.458286    1.825993
    172          1           0       -7.007973   -5.209114    0.854567
    173         20           0        2.047049   -1.384174    1.833352
    174          8           0        0.474542   -0.745710    3.805555
    175          1           0       -0.385091   -0.338800    3.892474
    176          1           0        0.815553   -0.780955    4.693569
 ---------------------------------------------------------------------

 SCF Done:  E(RB3LYP) =  -5333.46034643     A.U. after   15 cycles

 The electronic state is 1-A.
 Alpha  occ. eigenvalues -- -145.53408 -19.25408 -19.19668 -19.12286 -19.12257
 Alpha  occ. eigenvalues --  -19.12083 -19.11453 -19.11025 -19.10966 -19.10635
 Alpha  occ. eigenvalues --  -19.08877 -19.08828 -19.08370 -19.07763 -19.07745
 Alpha  occ. eigenvalues --  -19.07463 -19.07289 -19.06973 -19.06557 -19.06488
 Alpha  occ. eigenvalues --  -19.06141 -19.05706 -19.04329 -19.04225 -15.59231
 Alpha  occ. eigenvalues --  -14.51473 -14.38410 -14.37962 -14.37503 -14.37448
 Alpha  occ. eigenvalues --  -14.35228 -14.35000 -14.34995 -14.34822 -14.33881
 Alpha  occ. eigenvalues --  -14.33792 -14.33663 -14.33342 -14.32328 -14.31678
 Alpha  occ. eigenvalues --  -12.72852 -12.72849 -12.72726 -10.31557 -10.30478
 Alpha  occ. eigenvalues --  -10.30099 -10.29866 -10.29803 -10.29792 -10.29564
 Alpha  occ. eigenvalues --  -10.28728 -10.28485 -10.27813 -10.27362 -10.26687
 Alpha  occ. eigenvalues --  -10.26510 -10.26370 -10.26315 -10.26044 -10.25619
 Alpha  occ. eigenvalues --  -10.24962 -10.24846 -10.24815 -10.24659 -10.24626
 Alpha  occ. eigenvalues --  -10.24540 -10.24406 -10.24003 -10.23530 -10.23174
 Alpha  occ. eigenvalues --  -10.23163 -10.23118 -10.22864 -10.22313 -10.22212
 Alpha  occ. eigenvalues --  -10.22192 -10.22162 -10.22076 -10.21959 -10.21877
 Alpha  occ. eigenvalues --  -10.21190 -10.20916 -10.20052 -10.19877 -10.19680
 Alpha  occ. eigenvalues --  -10.19308 -10.19244 -10.19200 -10.19097 -10.18097
 Alpha  occ. eigenvalues --  -10.18014 -10.17801 -10.15896 -10.15369 -10.15017
 Alpha  occ. eigenvalues --  -10.14952 -10.14273  -1.95617  -1.23105  -1.23049
 Alpha  occ. eigenvalues --   -1.22242  -1.11399  -1.08897  -1.07827  -1.06535
 Alpha  occ. eigenvalues --   -1.05078  -1.04915  -1.04653  -1.04066  -1.03592
 Alpha  occ. eigenvalues --   -1.01913  -1.01569  -1.01216  -1.01151  -1.00795
 Alpha  occ. eigenvalues --   -1.00650  -1.00417  -1.00041  -0.99736  -0.99661
 Alpha  occ. eigenvalues --   -0.98926  -0.96562  -0.95630  -0.94854  -0.94677
 Alpha  occ. eigenvalues --   -0.94594  -0.94148  -0.92844  -0.92451  -0.91528
 Alpha  occ. eigenvalues --   -0.91271  -0.90712  -0.90605  -0.89934  -0.89754
 Alpha  occ. eigenvalues --   -0.89622  -0.89619  -0.89537  -0.88587  -0.88229
 Alpha  occ. eigenvalues --   -0.86105  -0.81262  -0.81036  -0.79919  -0.79237
 Alpha  occ. eigenvalues --   -0.78733  -0.78619  -0.78310  -0.78181  -0.78132
 Alpha  occ. eigenvalues --   -0.76938  -0.75589  -0.74383  -0.73850  -0.72868
 Alpha  occ. eigenvalues --   -0.72757  -0.72665  -0.72405  -0.70727  -0.70137
 Alpha  occ. eigenvalues --   -0.69120  -0.68935  -0.67878  -0.67495  -0.67108
 Alpha  occ. eigenvalues --   -0.66552  -0.66548  -0.66440  -0.65286  -0.65235
 Alpha  occ. eigenvalues --   -0.64629  -0.64570  -0.62921  -0.62787  -0.62490
 Alpha  occ. eigenvalues --   -0.62413  -0.61603  -0.61424  -0.61244  -0.60421
 Alpha  occ. eigenvalues --   -0.60001  -0.59771  -0.59558  -0.58901  -0.58327
 Alpha  occ. eigenvalues --   -0.58150  -0.57949  -0.57826  -0.57654  -0.57265
 Alpha  occ. eigenvalues --   -0.56813  -0.56205  -0.56169  -0.55551  -0.55220
 Alpha  occ. eigenvalues --   -0.54939  -0.54896  -0.54753  -0.53622  -0.53420
 Alpha  occ. eigenvalues --   -0.53308  -0.53077  -0.52885  -0.52697  -0.52247
 Alpha  occ. eigenvalues --   -0.51893  -0.51479  -0.51415  -0.51385  -0.51193
 Alpha  occ. eigenvalues --   -0.51112  -0.50204  -0.50029  -0.49523  -0.49398
 Alpha  occ. eigenvalues --   -0.49150  -0.49042  -0.48804  -0.48245  -0.48035
 Alpha  occ. eigenvalues --   -0.47912  -0.47749  -0.47603  -0.47419  -0.47156
 Alpha  occ. eigenvalues --   -0.47055  -0.46656  -0.46363  -0.46254  -0.45903
 Alpha  occ. eigenvalues --   -0.45667  -0.45634  -0.45537  -0.45392  -0.45315
 Alpha  occ. eigenvalues --   -0.45158  -0.45144  -0.44973  -0.44921  -0.44490
 Alpha  occ. eigenvalues --   -0.44327  -0.44261  -0.44059  -0.43886  -0.43648
 Alpha  occ. eigenvalues --   -0.43400  -0.43337  -0.43271  -0.43208  -0.43142
 Alpha  occ. eigenvalues --   -0.42755  -0.42717  -0.42503  -0.42263  -0.42209
 Alpha  occ. eigenvalues --   -0.42080  -0.41969  -0.41845  -0.41694  -0.41438
 Alpha  occ. eigenvalues --   -0.41179  -0.41114  -0.40894  -0.40795  -0.40638
 Alpha  occ. eigenvalues --   -0.40459  -0.40204  -0.40186  -0.40025  -0.39909
 Alpha  occ. eigenvalues --   -0.39713  -0.39510  -0.39410  -0.39342  -0.39116
 Alpha  occ. eigenvalues --   -0.39038  -0.39022  -0.38767  -0.38710  -0.38398
 Alpha  occ. eigenvalues --   -0.38374  -0.38095  -0.38041  -0.37981  -0.37925
 Alpha  occ. eigenvalues --   -0.37873  -0.37755  -0.37743  -0.37427  -0.37377
 Alpha  occ. eigenvalues --   -0.37171  -0.37106  -0.37002  -0.36917  -0.36798
 Alpha  occ. eigenvalues --   -0.36657  -0.36428  -0.36389  -0.36331  -0.36228
 Alpha  occ. eigenvalues --   -0.36006  -0.35916  -0.35423  -0.35084  -0.35046
 Alpha  occ. eigenvalues --   -0.34773  -0.34617  -0.34278  -0.34103  -0.34047
 Alpha  occ. eigenvalues --   -0.33789  -0.33547  -0.32594  -0.31841  -0.31484
 Alpha  occ. eigenvalues --   -0.29970  -0.29904  -0.29848  -0.29595  -0.29235
 Alpha  occ. eigenvalues --   -0.29131  -0.28996  -0.28775  -0.28598  -0.28303
 Alpha  occ. eigenvalues --   -0.27835  -0.27697  -0.27357  -0.27099  -0.26826
 Alpha  occ. eigenvalues --   -0.26803  -0.26732  -0.26437  -0.26422  -0.25787
 Alpha  occ. eigenvalues --   -0.25685  -0.25412  -0.24849  -0.24728  -0.24702
 Alpha  occ. eigenvalues --   -0.24626  -0.24578  -0.24246  -0.23990  -0.23625
 Alpha  occ. eigenvalues --   -0.23599  -0.23570  -0.23490  -0.22964  -0.22583
 Alpha  occ. eigenvalues --   -0.22477  -0.22466  -0.22461  -0.22296  -0.20991
 Alpha  occ. eigenvalues --   -0.20902  -0.20549  -0.19891
 Alpha virt. eigenvalues --   -0.12684  -0.05462  -0.05362  -0.03980  -0.03423
 Alpha virt. eigenvalues --   -0.03183  -0.01957  -0.01605  -0.00795  -0.00364
 Alpha virt. eigenvalues --   -0.00321  -0.00052   0.00015   0.00331   0.00632

 Mulliken charges:
               1
     1  C    0.032315
     2  C    0.076610
     3  O   -0.405594
     4  H    0.027831
     5  H    0.056739
     6  H    0.038711
     7  N   -0.105939
     8  C    0.120332
     9  C    0.071192
    10  O   -0.262211
    11  C    0.090128
    12  C    0.104400
    13  O   -0.347482
    14  O   -0.418105
    15  H    0.135941
    16  H   -0.033185
    17  H    0.015871
    18  H   -0.057143
    19  N   -0.170800
    20  C    0.092156
    21  C    0.053236
    22  O   -0.252160
    23  C    0.074316
    24  C   -0.003349
    25  C   -0.030951
    26  C    0.049653
    27  N    0.099003
    28  H    0.114312
    29  H    0.038871
    30  H    0.006176
    31  H    0.025034
    32  H   -0.015103
    33  H    0.010385
    34  H    0.017256
    35  H    0.069362
    36  H    0.061504
    37  H    0.042968
    38  H    0.173357
    39  H    0.170643
    40  H    0.144547
    41  N   -0.106973
    42  C    0.106679
    43  C    0.067083
    44  O   -0.258392
    45  C    0.085422
    46  C    0.109006
    47  O   -0.414286
    48  O   -0.467864
    49  H    0.120346
    50  H    0.023394
    51  H    0.058727
    52  H    0.052316
    53  N   -0.129196
    54  C    0.190524
    55  C   -0.003934
    56  O   -0.247604
    57  H    0.093461
    58  H   -0.023240
    59  H    0.064810
    60  N   -0.086631
    61  C   -0.025892
    62  C    0.054473
    63  O   -0.254744
    64  C    0.092379
    65  C    0.030965
    66  N   -0.055329
    67  O   -0.238474
    68  H    0.129489
    69  H    0.022738
    70  H    0.014118
    71  H    0.016812
    72  H    0.129340
    73  H    0.135749
    74  N   -0.130092
    75  C    0.182095
    76  C    0.048943
    77  O   -0.262906
    78  H    0.116012
    79  H    0.057389
    80  H   -0.012111
    81  N   -0.129618
    82  C    0.097817
    83  C    0.078537
    84  O   -0.288737
    85  C    0.114154
    86  C   -0.018218
    87  C    0.033306
    88  C   -0.014135
    89  C   -0.074816
    90  C   -0.077497
    91  C    0.128173
    92  O   -0.186756
    93  H    0.110456
    94  H    0.011038
    95  H    0.036707
    96  H   -0.013511
    97  H    0.003889
    98  H   -0.028223
    99  H   -0.004208
   100  H   -0.032897
   101  H    0.168465
   102  N   -0.138054
   103  C    0.130274
   104  C    0.084890
   105  O   -0.279269
   106  C   -0.074987
   107  C    0.018538
   108  C    0.033714
   109  C    0.035968
   110  H    0.141181
   111  H    0.000313
   112  H   -0.019814
   113  H    0.005611
   114  H   -0.011589
   115  H   -0.014169
   116  H    0.008670
   117  H    0.029617
   118  H    0.013297
   119  H    0.005681
   120  H    0.004937
   121  N   -0.200703
   122  C    0.056825
   123  C    0.088046
   124  O   -0.282990
   125  C    0.271380
   126  O   -0.346103
   127  H    0.134706
   128  H    0.032276
   129  H   -0.011068
   130  H   -0.028641
   131  H    0.160864
   132  N   -0.126483
   133  C    0.090566
   134  C    0.036526
   135  O   -0.251279
   136  C    0.090901
   137  H    0.122080
   138  H   -0.011747
   139  H   -0.023915
   140  H    0.048186
   141  H    0.024646
   142  N   -0.149876
   143  C    0.069501
   144  C    0.056898
   145  O   -0.265050
   146  C    0.075193
   147  H    0.124456
   148  H    0.021264
   149  H    0.037121
   150  H    0.033825
   151  H   -0.008815
   152  N   -0.136937
   153  C    0.145666
   154  C    0.072722
   155  O   -0.290417
   156  C   -0.052681
   157  C    0.115773
   158  C    0.149156
   159  O   -0.400557
   160  O   -0.434669
   161  H    0.129760
   162  H    0.027484
   163  H    0.001728
   164  H    0.004877
   165  H    0.013022
   166  H   -0.004314
   167  N   -0.140799
   168  C    0.125650
   169  H    0.043813
   170  H    0.020414
   171  H    0.021336
   172  H    0.095357
   173  Ca   1.476313
   174  O   -0.342025
   175  H    0.207277
   176  H    0.199300
 Sum of Mulliken charges =  -0.00000

 Dipole moment (field-independent basis, Debye):
    X=             22.8078    Y=             -9.1980    Z=             23.0981  Tot=             33.7390
 Quadrupole moment (field-independent basis, Debye-Ang):
   XX=           -309.0714   YY=           -687.0669   ZZ=           -514.3746
   XY=            -12.7634   XZ=             80.1311   YZ=              9.9444

 ESP charges:
               1
     1  C   -0.695181
     2  C    0.799899
     3  O   -0.730894
     4  H    0.174945
     5  H    0.201786
     6  H    0.210254
     7  N   -0.343829
     8  C    0.088419
     9  C    0.390201
    10  O   -0.473542
    11  C   -0.335967
    12  C    0.832009
    13  O   -0.653539
    14  O   -0.756585
    15  H    0.211802
    16  H    0.035204
    17  H    0.094168
    18  H    0.029697
    19  N    0.125016
    20  C   -0.353255
    21  C    0.638409
    22  O   -0.532347
    23  C    0.093858
    24  C   -0.153278
    25  C    0.084347
    26  C   -0.094501
    27  N   -0.159250
    28  H    0.145335
    29  H    0.135788
    30  H    0.032984
    31  H    0.037077
    32  H    0.023117
    33  H    0.044453
    34  H    0.038944
    35  H   -0.004323
    36  H    0.093959
    37  H    0.078874
    38  H    0.267439
    39  H    0.274429
    40  H    0.258937
    41  N   -0.428908
    42  C    0.212544
    43  C    0.614319
    44  O   -0.539897
    45  C   -0.303604
    46  C    0.828726
    47  O   -0.753427
    48  O   -0.831112
    49  H    0.070456
    50  H    0.042337
    51  H    0.125243
    52  H    0.107059
    53  N   -0.747526
    54  C    0.122941
    55  C    0.705985
    56  O   -0.528820
    57  H    0.381408
    58  H    0.007989
    59  H    0.123009
    60  N   -0.890017
    61  C    0.685842
    62  C    0.524414
    63  O   -0.541050
    64  C   -0.466540
    65  C    0.746185
    66  N   -0.857090
    67  O   -0.554502
    68  H    0.382252
    69  H   -0.079861
    70  H    0.108591
    71  H    0.133813
    72  H    0.374324
    73  H    0.395303
    74  N   -0.661758
    75  C    0.111439
    76  C    0.593747
    77  O   -0.558670
    78  H    0.343702
    79  H    0.015446
    80  H    0.059604
    81  N   -0.747573
    82  C    0.312003
    83  C    0.460955
    84  O   -0.540005
    85  C    0.011950
    86  C    0.042741
    87  C   -0.035114
    88  C   -0.119408
    89  C   -0.322939
    90  C   -0.383344
    91  C    0.460359
    92  O   -0.567801
    93  H    0.311023
    94  H    0.060838
    95  H   -0.000090
    96  H    0.024496
    97  H    0.182165
    98  H    0.134223
    99  H    0.173093
   100  H    0.153812
   101  H    0.404268
   102  N    0.001705
   103  C   -0.512418
   104  C    0.687820
   105  O   -0.580126
   106  C    0.301393
   107  C    0.154311
   108  C   -0.390994
   109  C   -0.256100
   110  H   -0.079262
   111  H    0.141915
   112  H   -0.009244
   113  H   -0.018428
   114  H   -0.029489
   115  H    0.034312
   116  H    0.090825
   117  H    0.157093
   118  H    0.050923
   119  H    0.059924
   120  H    0.061384
   121  N   -0.143272
   122  C   -0.450547
   123  C    0.749066
   124  O   -0.571418
   125  C    0.387209
   126  O   -0.590455
   127  H    0.248196
   128  H    0.179824
   129  H    0.003683
   130  H   -0.051565
   131  H    0.241514
   132  N   -0.598854
   133  C    0.404359
   134  C    0.544535
   135  O   -0.418905
   136  C   -0.322970
   137  H    0.180804
   138  H   -0.041906
   139  H    0.039258
   140  H    0.121899
   141  H    0.096780
   142  N   -0.757651
   143  C    0.264865
   144  C    0.454283
   145  O   -0.500289
   146  C   -0.197613
   147  H    0.391719
   148  H    0.035459
   149  H    0.100504
   150  H    0.058322
   151  H    0.038649
   152  N   -0.444643
   153  C    0.012828
   154  C    0.446469
   155  O   -0.533550
   156  C   -0.298162
   157  C    0.352453
   158  C    0.241115
   159  O   -0.623001
   160  O   -0.359997
   161  H    0.267152
   162  H    0.142974
   163  H    0.090638
   164  H    0.063537
   165  H   -0.042484
   166  H   -0.031960
   167  N   -0.246432
   168  C   -0.051545
   169  H    0.084068
   170  H    0.046711
   171  H    0.048610
   172  H    0.221224
   173  Ca   1.692322
   174  O   -0.743435
   175  H    0.247780
   176  H    0.411894
 Sum of ESP charges =   0.00000

 Normal termination of Gaussian 16 at Wed Sep 18 14:22:45 2019.
