 Gaussian 16, Revision A.03,
 Gaussian 16:  ES64L-G16RevA.03 25-Dec-2016

 ----------------------------------------------------------------------
 #b3lyp/svp scf=(tight,noincore,xqc) Test #IOP(5/87=12) Density=Current
  Pop=(MK,readradii) iop(6/33=2) iop(6/42=6)
 ----------------------------------------------------------------------

 ----------------
 Ng-31_loop3_13.0
 ----------------
 Symbolic Z-matrix:
 Charge =  0 Multiplicity = 1

                         Standard orientation:
 ---------------------------------------------------------------------
 Center     Atomic      Atomic             Coordinates (Angstroms)
 Number     Number       Type             X           Y           Z
 ---------------------------------------------------------------------
      1          6           0        8.754566    0.527647    4.090593
      2          6           0        7.672296    0.504327    3.008952
      3          8           0        6.524474    0.805601    3.318693
      4          1           0        9.522010   -0.209023    3.851870
      5          1           0        9.204884    1.519871    4.133579
      6          1           0        8.309249    0.287333    5.056290
      7          7           0        7.961461    0.332375    1.722439
      8          6           0        6.961270    0.398230    0.672590
      9          6           0        5.993475   -0.775357    0.659725
     10          8           0        4.867482   -0.551664    0.240559
     11          6           0        7.565773    0.703873   -0.697978
     12          6           0        8.787074   -0.088068   -1.145363
     13          8           0        9.142480   -1.080223   -0.475278
     14          8           0        9.550038    0.258754   -2.071754
     15          1           0        8.926337    0.116463    1.504047
     16          1           0        6.355229    1.287185    0.863569
     17          1           0        7.758473    1.773375   -0.779424
     18          1           0        6.811981    0.511487   -1.452024
     19          7           0        6.319531   -1.972652    1.147447
     20          6           0        5.399231   -3.093719    1.072244
     21          6           0        5.112368   -3.624959   -0.320593
     22          8           0        6.035954   -3.854519   -1.108115
     23          6           0        5.874660   -4.203457    2.017045
     24          6           0        6.645143   -3.744826    3.251960
     25          6           0        6.906284   -4.927457    4.183834
     26          6           0        7.394804   -4.405442    5.534852
     27          7           0        8.075713   -5.462159    6.294268
     28          1           0        7.290792   -2.156026    1.359171
     29          1           0        4.433446   -2.749620    1.449279
     30          1           0        6.326092   -5.011483    1.457222
     31          1           0        4.961454   -4.702027    2.328944
     32          1           0        6.009837   -3.039599    3.772768
     33          1           0        7.610884   -3.270312    3.048048
     34          1           0        7.734398   -5.469403    3.738950
     35          1           0        6.080290   -5.640013    4.210244
     36          1           0        6.472394   -4.113833    6.022626
     37          1           0        8.066087   -3.543548    5.482701
     38          1           0        8.600010   -5.963665    5.582999
     39          1           0        8.685431   -5.198762    7.048102
     40          1           0        7.452968   -6.205182    6.573385
     41          7           0        3.845050   -3.817372   -0.676655
     42          6           0        3.318700   -4.047112   -2.004351
     43          6           0        3.045559   -2.801204   -2.831096
     44          8           0        2.727043   -2.862319   -4.013979
     45          6           0        2.200427   -5.088162   -2.057094
     46          6           0        0.972902   -4.651441   -1.267248
     47          8           0        0.985064   -4.834315   -0.027648
     48          8           0       -0.031397   -4.117764   -1.784907
     49          1           0        3.183113   -3.661180    0.078357
     50          1           0        4.069256   -4.603109   -2.561874
     51          1           0        2.474702   -6.075397   -1.678888
     52          1           0        1.928922   -5.304100   -3.084351
     53          7           0        3.342866   -1.670812   -2.189596
     54          6           0        3.170178   -0.317312   -2.696760
     55          6           0        4.496232    0.308824   -3.114413
     56          8           0        5.369858   -0.390201   -3.613653
     57          1           0        3.611687   -1.677353   -1.217078
     58          1           0        2.778625    0.336807   -1.929026
     59          1           0        2.417748   -0.287318   -3.474159
     60          7           0        4.685617    1.632442   -3.088556
     61          6           0        3.763998    2.751240   -2.953991
     62          6           0        4.332146    3.896560   -2.128854
     63          8           0        4.665603    4.946084   -2.674937
     64          6           0        3.495214    3.191637   -4.385495
     65          6           0        2.789374    2.154113   -5.245572
     66          7           0        3.524148    1.618345   -6.227997
     67          8           0        1.587810    1.942874   -5.177580
     68          1           0        5.615565    1.948393   -3.305748
     69          1           0        2.771612    2.403083   -2.696004
     70          1           0        4.417798    3.528422   -4.884310
     71          1           0        2.801443    4.031618   -4.374808
     72          1           0        4.517888    1.819133   -6.296299
     73          1           0        2.928714    1.125133   -6.874217
     74          7           0        4.312820    3.820466   -0.799217
     75          6           0        3.984580    2.696523    0.049083
     76          6           0        2.546298    2.616014    0.534537
     77          8           0        2.275455    1.600856    1.171716
     78          1           0        4.657374    4.719077   -0.469399
     79          1           0        4.633233    2.650634    0.934545
     80          1           0        4.100358    1.819823   -0.593329
     81          7           0        1.624068    3.495351    0.118777
     82          6           0        0.301451    3.485027    0.696945
     83          6           0       -0.602279    2.553177   -0.093326
     84          8           0       -0.252089    2.225257   -1.225729
     85          6           0       -0.268789    4.902295    0.688165
     86          6           0        0.287835    5.948486    1.613505
     87          6           0        0.377327    5.811711    3.005404
     88          6           0        0.631825    7.199668    1.078514
     89          6           0        0.838466    6.806248    3.878642
     90          6           0        1.126765    8.192325    1.935816
     91          6           0        1.244595    8.046871    3.332368
     92          8           0        1.625884    9.031476    4.200569
     93          1           0        1.945526    4.193492   -0.536788
     94          1           0        0.347320    3.116441    1.728759
     95          1           0       -1.314856    4.787583    0.999268
     96          1           0       -0.379182    5.309057   -0.309311
     97          1           0        0.032602    4.902449    3.473387
     98          1           0        0.486248    7.484243    0.045933
     99          1           0        0.775135    6.637250    4.937665
    100          1           0        1.389028    9.151318    1.525510
    101          1           0        1.417302    9.880162    3.808619
    102          7           0       -1.706092    2.113789    0.522656
    103          6           0       -2.525231    1.072528   -0.062740
    104          6           0       -3.803366    1.582519   -0.719155
    105          8           0       -4.482449    0.711487   -1.259757
    106          6           0       -2.836896   -0.078018    0.892878
    107          6           0       -1.549467   -0.775452    1.315031
    108          6           0       -3.629914    0.393792    2.110711
    109          6           0       -0.634153   -1.270651    0.189918
    110          1           0       -2.087379    2.572001    1.335282
    111          1           0       -1.954080    0.734634   -0.926114
    112          1           0       -3.361453   -0.844060    0.316233
    113          1           0       -1.859379   -1.680105    1.837483
    114          1           0       -0.975833   -0.136306    1.979363
    115          1           0       -3.268187    1.351332    2.488825
    116          1           0       -4.670181    0.555171    1.805422
    117          1           0       -3.579201   -0.369876    2.891954
    118          1           0       -1.257730   -1.639763   -0.612210
    119          1           0        0.015761   -0.435935   -0.105142
    120          1           0        0.059433   -2.067879    0.474987
    121          7           0       -4.229025    2.826233   -0.513750
    122          6           0       -5.500426    3.377324   -0.941112
    123          6           0       -6.608957    2.747392   -0.093029
    124          8           0       -6.580561    2.691771    1.134611
    125          6           0       -5.590783    4.892724   -0.809596
    126          8           0       -4.604752    5.272450   -1.743647
    127          1           0       -3.656187    3.476000    0.003319
    128          1           0       -5.634497    3.233105   -2.005360
    129          1           0       -5.400223    5.273914    0.202175
    130          1           0       -6.596712    5.221117   -1.055492
    131          1           0       -4.924517    6.111124   -2.100407
    132          7           0       -7.683964    2.356987   -0.764553
    133          6           0       -8.882178    1.739917   -0.227423
    134          6           0       -8.891591    0.223867   -0.225351
    135          8           0       -8.022303   -0.385703   -0.832197
    136          6           0      -10.113284    2.208348   -1.011356
    137          1           0       -7.611596    2.306481   -1.772229
    138          1           0       -9.035347    2.105301    0.785066
    139          1           0       -9.988805    3.294390   -1.076300
    140          1           0      -10.148761    1.795400   -2.016749
    141          1           0      -10.993970    1.925833   -0.430083
    142          7           0       -9.927017   -0.388077    0.361519
    143          6           0      -10.112590   -1.811869    0.512440
    144          6           0       -9.030949   -2.763263    1.004986
    145          8           0       -9.150379   -3.970793    0.812607
    146          6           0      -10.996939   -2.295661   -0.634718
    147          1           0      -10.624080    0.188803    0.804140
    148          1           0      -10.770870   -1.856322    1.386735
    149          1           0      -10.296460   -2.780407   -1.313135
    150          1           0      -11.681894   -3.102938   -0.354466
    151          1           0      -11.560043   -1.484924   -1.108975
    152          7           0       -7.923712   -2.244479    1.547747
    153          6           0       -6.880177   -3.044676    2.167522
    154          6           0       -6.473334   -2.641724    3.578978
    155          8           0       -5.385746   -2.964317    4.047580
    156          6           0       -5.669570   -3.093605    1.258382
    157          6           0       -5.740779   -3.955807   -0.001951
    158          6           0       -4.562848   -3.699273   -0.916045
    159          8           0       -3.380665   -3.728762   -0.519845
    160          8           0       -4.722699   -3.441368   -2.126348
    161          1           0       -7.760257   -1.245443    1.512986
    162          1           0       -7.164676   -4.095038    2.177506
    163          1           0       -4.801879   -3.438185    1.821654
    164          1           0       -5.252895   -2.119386    1.010634
    165          1           0       -6.660664   -3.741029   -0.553931
    166          1           0       -5.830496   -5.003037    0.289014
    167          7           0       -7.341134   -1.980741    4.358609
    168          6           0       -7.171341   -1.338112    5.640599
    169          1           0       -8.129351   -1.305933    6.160037
    170          1           0       -6.453452   -1.900627    6.236904
    171          1           0       -6.805358   -0.322380    5.493156
    172          1           0       -8.232422   -1.954156    3.883215
    173         20           0       -2.254592   -4.157809   -2.912517
    174          8           0       -3.493171   -4.002057   -5.244118
    175          1           0       -4.433395   -4.072945   -5.109017
    176          1           0       -3.400170   -3.268806   -5.861283
 ---------------------------------------------------------------------

 SCF Done:  E(RB3LYP) =  -5333.28386821     A.U. after   33 cycles
 SCF Done:  E(RB3LYP) =  -5333.32845326     a.u. after    6 cycles

 The electronic state is 1-A.
 Alpha  occ. eigenvalues -- -145.45550 -19.22392 -19.16303 -19.15036 -19.10254
 Alpha  occ. eigenvalues --  -19.09683 -19.09524 -19.08126 -19.08100 -19.07508
 Alpha  occ. eigenvalues --  -19.07002 -19.06543 -19.06373 -19.06342 -19.05255
 Alpha  occ. eigenvalues --  -19.05063 -19.05034 -19.04962 -19.04623 -19.04295
 Alpha  occ. eigenvalues --  -19.04284 -19.01467 -18.96487 -18.95613 -15.51469
 Alpha  occ. eigenvalues --  -14.56095 -14.37360 -14.36113 -14.35478 -14.34829
 Alpha  occ. eigenvalues --  -14.34462 -14.34350 -14.34237 -14.33592 -14.32266
 Alpha  occ. eigenvalues --  -14.32193 -14.32019 -14.31736 -14.30977 -14.29997
 Alpha  occ. eigenvalues --  -12.65119 -12.65018 -12.64968 -10.33396 -10.29041
 Alpha  occ. eigenvalues --  -10.28931 -10.28351 -10.26924 -10.26840 -10.26597
 Alpha  occ. eigenvalues --  -10.26315 -10.25896 -10.25522 -10.25418 -10.25191
 Alpha  occ. eigenvalues --  -10.24970 -10.24729 -10.24699 -10.24511 -10.24423
 Alpha  occ. eigenvalues --  -10.24195 -10.24123 -10.23886 -10.23624 -10.23238
 Alpha  occ. eigenvalues --  -10.22709 -10.22429 -10.22363 -10.22290 -10.21976
 Alpha  occ. eigenvalues --  -10.21664 -10.21392 -10.21333 -10.20843 -10.19782
 Alpha  occ. eigenvalues --  -10.19742 -10.19740 -10.19399 -10.19268 -10.19227
 Alpha  occ. eigenvalues --  -10.18935 -10.18807 -10.18674 -10.18572 -10.18503
 Alpha  occ. eigenvalues --  -10.18182 -10.17906 -10.16503 -10.16013 -10.15313
 Alpha  occ. eigenvalues --  -10.15300 -10.15071 -10.15002 -10.14808 -10.12773
 Alpha  occ. eigenvalues --  -10.12004 -10.11489  -1.88079  -1.15923  -1.15149
 Alpha  occ. eigenvalues --   -1.14867  -1.11928  -1.08160  -1.04876  -1.04189
 Alpha  occ. eigenvalues --   -1.03777  -1.02720  -1.02396  -1.01676  -1.01320
 Alpha  occ. eigenvalues --   -1.00900  -1.00669  -1.00209  -1.00034  -0.99566
 Alpha  occ. eigenvalues --   -0.99436  -0.98717  -0.98320  -0.98069  -0.97761
 Alpha  occ. eigenvalues --   -0.96757  -0.94191  -0.92688  -0.92036  -0.91617
 Alpha  occ. eigenvalues --   -0.91277  -0.90939  -0.90568  -0.90187  -0.89890
 Alpha  occ. eigenvalues --   -0.89386  -0.88951  -0.88888  -0.88599  -0.87587
 Alpha  occ. eigenvalues --   -0.87170  -0.86991  -0.86866  -0.85979  -0.84749
 Alpha  occ. eigenvalues --   -0.80935  -0.80051  -0.79933  -0.78981  -0.78085
 Alpha  occ. eigenvalues --   -0.77352  -0.76693  -0.75832  -0.75583  -0.75236
 Alpha  occ. eigenvalues --   -0.74121  -0.73799  -0.73315  -0.73210  -0.72494
 Alpha  occ. eigenvalues --   -0.71811  -0.70762  -0.69715  -0.69390  -0.69343
 Alpha  occ. eigenvalues --   -0.69215  -0.69078  -0.67696  -0.67552  -0.66898
 Alpha  occ. eigenvalues --   -0.66209  -0.66178  -0.65089  -0.63994  -0.63051
 Alpha  occ. eigenvalues --   -0.62438  -0.62263  -0.61425  -0.61181  -0.60560
 Alpha  occ. eigenvalues --   -0.60416  -0.59625  -0.59191  -0.59132  -0.58944
 Alpha  occ. eigenvalues --   -0.58868  -0.58639  -0.57752  -0.57673  -0.57181
 Alpha  occ. eigenvalues --   -0.56894  -0.56652  -0.56301  -0.55959  -0.55449
 Alpha  occ. eigenvalues --   -0.54983  -0.54763  -0.54738  -0.54537  -0.54491
 Alpha  occ. eigenvalues --   -0.54432  -0.53669  -0.53444  -0.52734  -0.52352
 Alpha  occ. eigenvalues --   -0.51751  -0.51485  -0.51459  -0.50405  -0.50040
 Alpha  occ. eigenvalues --   -0.49896  -0.49584  -0.49273  -0.49071  -0.49010
 Alpha  occ. eigenvalues --   -0.48968  -0.48760  -0.48643  -0.48228  -0.47864
 Alpha  occ. eigenvalues --   -0.47800  -0.47503  -0.47339  -0.47032  -0.46952
 Alpha  occ. eigenvalues --   -0.46413  -0.46201  -0.45715  -0.45430  -0.44950
 Alpha  occ. eigenvalues --   -0.44614  -0.44453  -0.44433  -0.44082  -0.43990
 Alpha  occ. eigenvalues --   -0.43860  -0.43734  -0.43642  -0.43413  -0.43232
 Alpha  occ. eigenvalues --   -0.43177  -0.43043  -0.42891  -0.42618  -0.42612
 Alpha  occ. eigenvalues --   -0.42509  -0.42016  -0.41884  -0.41781  -0.41739
 Alpha  occ. eigenvalues --   -0.41687  -0.41399  -0.41327  -0.41232  -0.41188
 Alpha  occ. eigenvalues --   -0.40964  -0.40817  -0.40689  -0.40269  -0.40144
 Alpha  occ. eigenvalues --   -0.40007  -0.39970  -0.39699  -0.39676  -0.39525
 Alpha  occ. eigenvalues --   -0.39476  -0.39374  -0.39138  -0.39103  -0.39004
 Alpha  occ. eigenvalues --   -0.38901  -0.38553  -0.38447  -0.38184  -0.38109
 Alpha  occ. eigenvalues --   -0.38094  -0.38016  -0.37849  -0.37822  -0.37659
 Alpha  occ. eigenvalues --   -0.37227  -0.37088  -0.37034  -0.36943  -0.36789
 Alpha  occ. eigenvalues --   -0.36729  -0.36636  -0.36547  -0.36366  -0.36159
 Alpha  occ. eigenvalues --   -0.36142  -0.36069  -0.35742  -0.35401  -0.35298
 Alpha  occ. eigenvalues --   -0.35118  -0.34813  -0.34765  -0.34524  -0.34470
 Alpha  occ. eigenvalues --   -0.34310  -0.34130  -0.33937  -0.33725  -0.33662
 Alpha  occ. eigenvalues --   -0.33405  -0.33075  -0.32685  -0.32586  -0.32446
 Alpha  occ. eigenvalues --   -0.32356  -0.32255  -0.32200  -0.32142  -0.31595
 Alpha  occ. eigenvalues --   -0.30931  -0.30572  -0.30134  -0.29851  -0.29231
 Alpha  occ. eigenvalues --   -0.28218  -0.27676  -0.27451  -0.27222  -0.27119
 Alpha  occ. eigenvalues --   -0.26740  -0.26254  -0.26143  -0.26069  -0.25964
 Alpha  occ. eigenvalues --   -0.25566  -0.25523  -0.25425  -0.24767  -0.24624
 Alpha  occ. eigenvalues --   -0.24388  -0.24371  -0.24220  -0.24180  -0.24101
 Alpha  occ. eigenvalues --   -0.23952  -0.23614  -0.23292  -0.22754  -0.22565
 Alpha  occ. eigenvalues --   -0.22459  -0.22323  -0.22184  -0.21770  -0.21565
 Alpha  occ. eigenvalues --   -0.21230  -0.21179  -0.20946  -0.20801  -0.20703
 Alpha  occ. eigenvalues --   -0.20304  -0.19750  -0.19707  -0.19424  -0.17220
 Alpha  occ. eigenvalues --   -0.14409  -0.13235  -0.10262
 Alpha virt. eigenvalues --   -0.09139  -0.07274  -0.03265  -0.03149  -0.01388
 Alpha virt. eigenvalues --   -0.00425  -0.00371  -0.00066   0.00166   0.01028
 Alpha virt. eigenvalues --    0.01610   0.01653   0.02323   0.02389   0.02898

 Mulliken charges:
               1
     1  C    0.069003
     2  C   -0.028783
     3  O   -0.304823
     4  H   -0.007158
     5  H    0.045893
     6  H    0.003107
     7  N   -0.121311
     8  C    0.186945
     9  C    0.100602
    10  O   -0.302348
    11  C    0.020579
    12  C    0.036245
    13  O   -0.381108
    14  O   -0.336432
    15  H    0.112361
    16  H   -0.014256
    17  H   -0.016964
    18  H    0.027818
    19  N   -0.105817
    20  C    0.150126
    21  C    0.034356
    22  O   -0.259565
    23  C    0.032441
    24  C    0.018683
    25  C   -0.069337
    26  C    0.053078
    27  N    0.135551
    28  H    0.116627
    29  H   -0.007916
    30  H    0.004106
    31  H   -0.002961
    32  H    0.032932
    33  H    0.025623
    34  H    0.014626
    35  H    0.037195
    36  H    0.075248
    37  H    0.076323
    38  H    0.136572
    39  H    0.139334
    40  H    0.132369
    41  N   -0.135270
    42  C    0.101291
    43  C    0.093328
    44  O   -0.285381
    45  C    0.114732
    46  C    0.099206
    47  O   -0.358519
    48  O   -0.487704
    49  H    0.123669
    50  H    0.034472
    51  H   -0.009468
    52  H   -0.034606
    53  N   -0.131281
    54  C    0.204206
    55  C    0.010717
    56  O   -0.241147
    57  H    0.130760
    58  H    0.010810
    59  H    0.040581
    60  N   -0.132502
    61  C   -0.021814
    62  C    0.084941
    63  O   -0.263108
    64  C    0.133246
    65  C   -0.023728
    66  N   -0.038721
    67  O   -0.266632
    68  H    0.124209
    69  H    0.051228
    70  H   -0.008217
    71  H    0.011564
    72  H    0.131219
    73  H    0.123201
    74  N   -0.154070
    75  C    0.201800
    76  C    0.001473
    77  O   -0.275947
    78  H    0.123406
    79  H    0.082459
    80  H    0.063509
    81  N   -0.096109
    82  C    0.110784
    83  C    0.101222
    84  O   -0.257119
    85  C    0.126061
    86  C    0.038362
    87  C   -0.009834
    88  C   -0.021690
    89  C   -0.019410
    90  C   -0.051743
    91  C    0.173613
    92  O   -0.203680
    93  H    0.117322
    94  H    0.016202
    95  H   -0.019646
    96  H   -0.007813
    97  H   -0.032695
    98  H   -0.027949
    99  H   -0.026760
   100  H   -0.048123
   101  H    0.175509
   102  N   -0.166783
   103  C    0.116979
   104  C    0.073451
   105  O   -0.281100
   106  C   -0.092580
   107  C    0.016766
   108  C    0.060193
   109  C    0.019870
   110  H    0.116357
   111  H    0.029257
   112  H    0.035675
   113  H    0.012340
   114  H   -0.020978
   115  H   -0.038465
   116  H    0.020906
   117  H    0.023697
   118  H   -0.016259
   119  H    0.019973
   120  H    0.023566
   121  N   -0.087854
   122  C    0.072351
   123  C    0.087662
   124  O   -0.291911
   125  C    0.226658
   126  O   -0.291359
   127  H    0.104803
   128  H   -0.003728
   129  H    0.004259
   130  H   -0.003138
   131  H    0.164052
   132  N   -0.098458
   133  C    0.070951
   134  C    0.055025
   135  O   -0.232840
   136  C    0.036812
   137  H    0.120898
   138  H    0.010538
   139  H    0.024223
   140  H    0.024345
   141  H    0.007038
   142  N   -0.132172
   143  C    0.056487
   144  C    0.075715
   145  O   -0.266850
   146  C    0.069522
   147  H    0.116097
   148  H    0.008424
   149  H    0.036304
   150  H    0.017654
   151  H    0.001480
   152  N   -0.138184
   153  C    0.149607
   154  C    0.026004
   155  O   -0.265250
   156  C   -0.042922
   157  C    0.138888
   158  C    0.055006
   159  O   -0.406053
   160  O   -0.435168
   161  H    0.133414
   162  H    0.030033
   163  H    0.037368
   164  H   -0.001904
   165  H    0.002515
   166  H   -0.002736
   167  N   -0.140496
   168  C    0.138396
   169  H    0.013617
   170  H    0.042516
   171  H    0.030204
   172  H    0.092351
   173  Ca   1.392638
   174  O   -0.322138
   175  H    0.206350
   176  H    0.206716
 Sum of Mulliken charges =  -0.00000

 Dipole moment (field-independent basis, Debye):
    X=            -14.8966    Y=             -6.8594    Z=             19.7238  Tot=             25.6513
 Quadrupole moment (field-independent basis, Debye-Ang):
   XX=           -487.3131   YY=           -398.6052   ZZ=           -389.8990
   XY=           -164.8044   XZ=            260.9521   YZ=            -86.9852

 ESP charges:
               1
     1  C   -0.401256
     2  C    0.659131
     3  O   -0.601785
     4  H    0.071468
     5  H    0.138759
     6  H    0.092866
     7  N   -0.590391
     8  C    0.445801
     9  C    0.511037
    10  O   -0.551495
    11  C   -0.411216
    12  C    0.777971
    13  O   -0.689511
    14  O   -0.661577
    15  H    0.294650
    16  H    0.001953
    17  H    0.060065
    18  H    0.106341
    19  N   -0.556209
    20  C    0.171935
    21  C    0.645404
    22  O   -0.544966
    23  C    0.070849
    24  C   -0.110144
    25  C    0.110518
    26  C   -0.001443
    27  N   -0.227261
    28  H    0.258533
    29  H    0.053205
    30  H   -0.009600
    31  H   -0.007521
    32  H    0.032435
    33  H    0.066253
    34  H   -0.010525
    35  H    0.009264
    36  H    0.078844
    37  H    0.086413
    38  H    0.236299
    39  H    0.270789
    40  H    0.239495
    41  N   -0.689336
    42  C    0.288433
    43  C    0.457817
    44  O   -0.550060
    45  C   -0.294188
    46  C    0.768018
    47  O   -0.636916
    48  O   -0.866208
    49  H    0.280706
    50  H    0.079594
    51  H    0.088459
    52  H    0.032999
    53  N   -0.317445
    54  C   -0.141320
    55  C    0.732504
    56  O   -0.529632
    57  H    0.258919
    58  H    0.138114
    59  H    0.113892
    60  N   -0.843522
    61  C    0.706806
    62  C    0.370308
    63  O   -0.542074
    64  C   -0.414658
    65  C    0.708242
    66  N   -0.805036
    67  O   -0.568166
    68  H    0.357753
    69  H   -0.117539
    70  H    0.082038
    71  H    0.092089
    72  H    0.388229
    73  H    0.369457
    74  N   -0.338335
    75  C   -0.155444
    76  C    0.509954
    77  O   -0.513468
    78  H    0.275067
    79  H    0.157059
    80  H    0.064737
    81  N   -0.490074
    82  C    0.496924
    83  C    0.414763
    84  O   -0.483181
    85  C   -0.438545
    86  C    0.175358
    87  C   -0.250881
    88  C   -0.161746
    89  C   -0.181525
    90  C   -0.321853
    91  C    0.358372
    92  O   -0.517013
    93  H    0.250776
    94  H   -0.023802
    95  H    0.090206
    96  H    0.125418
    97  H    0.150616
    98  H    0.147318
    99  H    0.142314
   100  H    0.146313
   101  H    0.382648
   102  N   -0.358853
   103  C   -0.263601
   104  C    0.690310
   105  O   -0.577790
   106  C    0.172700
   107  C   -0.208143
   108  C   -0.486858
   109  C    0.011605
   110  H    0.247439
   111  H    0.127137
   112  H    0.128132
   113  H    0.060380
   114  H    0.053715
   115  H    0.106616
   116  H    0.144069
   117  H    0.140817
   118  H   -0.007929
   119  H   -0.003216
   120  H    0.074367
   121  N   -0.457082
   122  C   -0.059672
   123  C    0.599079
   124  O   -0.564074
   125  C    0.182682
   126  O   -0.578309
   127  H    0.305507
   128  H    0.123064
   129  H    0.031713
   130  H    0.017769
   131  H    0.388211
   132  N   -0.630272
   133  C    0.597630
   134  C    0.445015
   135  O   -0.463868
   136  C   -0.355950
   137  H    0.276238
   138  H   -0.056777
   139  H    0.072080
   140  H    0.103038
   141  H    0.070089
   142  N   -0.764237
   143  C    0.523515
   144  C    0.379296
   145  O   -0.507823
   146  C   -0.298912
   147  H    0.340928
   148  H   -0.022035
   149  H    0.083678
   150  H    0.054911
   151  H    0.090862
   152  N   -0.410835
   153  C   -0.136297
   154  C    0.399298
   155  O   -0.498611
   156  C    0.376865
   157  C   -0.362658
   158  C    0.726157
   159  O   -0.724811
   160  O   -0.792158
   161  H    0.227178
   162  H    0.133595
   163  H   -0.042849
   164  H    0.003362
   165  H    0.127083
   166  H    0.072765
   167  N   -0.188087
   168  C   -0.195593
   169  H    0.089609
   170  H    0.113632
   171  H    0.092401
   172  H    0.193710
   173  Ca   1.641317
   174  O   -0.800814
   175  H    0.424656
   176  H    0.428266
 Sum of ESP charges =  -0.00000

 Normal termination of Gaussian 16 at Thu Sep 19 17:20:30 2019.
