 Gaussian 16, Revision A.03,
 Gaussian 16:  ES64L-G16RevA.03 25-Dec-2016

 ----------------------------------------------------------------------
 #b3lyp/svp scf=(tight,noincore) Test #IOP(5/87=12) Density=Current Pop
 =(MK,readradii) iop(6/33=2) iop(6/42=6)
 ----------------------------------------------------------------------

 ----------------
 Ng-31_loop3_19.0
 ----------------
 Symbolic Z-matrix:
 Charge =  0 Multiplicity = 1

                         Standard orientation:
 ---------------------------------------------------------------------
 Center     Atomic      Atomic             Coordinates (Angstroms)
 Number     Number       Type             X           Y           Z
 ---------------------------------------------------------------------
      1          6           0       -1.956436    5.295586    5.176022
      2          6           0       -1.887565    4.320293    4.005611
      3          8           0       -0.990079    3.490808    3.864636
      4          1           0       -1.887826    6.317340    4.802098
      5          1           0       -2.901944    5.165261    5.702587
      6          1           0       -1.129187    5.103443    5.859431
      7          7           0       -2.876972    4.410875    3.121661
      8          6           0       -3.176280    3.478921    2.048546
      9          6           0       -2.209908    3.626583    0.886082
     10          8           0       -1.326307    2.799396    0.654543
     11          6           0       -4.650764    3.692952    1.734560
     12          6           0       -5.090341    5.128507    1.502710
     13          8           0       -4.299881    6.090944    1.589245
     14          8           0       -6.320457    5.309827    1.316058
     15          1           0       -3.673784    5.013650    3.278991
     16          1           0       -3.018374    2.483966    2.484929
     17          1           0       -5.266764    3.151639    2.455688
     18          1           0       -4.864455    3.136797    0.819067
     19          7           0       -2.213209    4.762731    0.171201
     20          6           0       -1.157110    5.224355   -0.701129
     21          6           0       -1.301553    4.562791   -2.067171
     22          8           0       -2.266462    4.791552   -2.794576
     23          6           0       -1.183367    6.743845   -0.846254
     24          6           0       -0.728052    7.421282    0.452656
     25          6           0       -0.646078    8.934142    0.270894
     26          6           0       -0.196416    9.748533    1.479187
     27          7           0       -0.667222    9.138403    2.737234
     28          1           0       -2.782441    5.492785    0.557459
     29          1           0       -0.211666    4.916467   -0.259836
     30          1           0       -2.168703    7.095068   -1.156664
     31          1           0       -0.555932    7.073512   -1.667257
     32          1           0        0.236199    6.944310    0.641646
     33          1           0       -1.403930    7.177749    1.267813
     34          1           0       -1.632445    9.278756   -0.008608
     35          1           0        0.072117    9.162473   -0.520219
     36          1           0       -0.423474   10.811732    1.423934
     37          1           0        0.885706    9.679441    1.552247
     38          1           0       -0.327114    8.190799    2.720671
     39          1           0       -0.066104    9.618789    3.397072
     40          1           0       -1.634932    9.245187    2.989887
     41          7           0       -0.387674    3.629032   -2.323724
     42          6           0       -0.334467    2.783173   -3.492865
     43          6           0       -1.137098    1.497045   -3.338411
     44          8           0       -1.481135    0.815163   -4.307780
     45          6           0        1.136979    2.485168   -3.792263
     46          6           0        2.084053    3.661492   -3.887730
     47          8           0        1.895739    4.696085   -4.565783
     48          8           0        3.157687    3.503279   -3.261329
     49          1           0        0.367119    3.619545   -1.653501
     50          1           0       -0.781137    3.379762   -4.292594
     51          1           0        1.127420    1.765818   -4.612899
     52          1           0        1.482899    1.993550   -2.886089
     53          7           0       -1.502406    1.122549   -2.117058
     54          6           0       -2.702481    0.321902   -1.933520
     55          6           0       -3.996925    1.029139   -2.339884
     56          8           0       -4.010988    2.121451   -2.893017
     57          1           0       -1.343511    1.806000   -1.386479
     58          1           0       -2.870190   -0.012025   -0.913684
     59          1           0       -2.616676   -0.483443   -2.656124
     60          7           0       -5.099820    0.284849   -2.370776
     61          6           0       -5.367106   -1.140955   -2.244522
     62          6           0       -6.661070   -1.537612   -1.557122
     63          8           0       -7.687317   -1.823416   -2.173347
     64          6           0       -5.107552   -1.723257   -3.635154
     65          6           0       -5.370225   -3.215508   -3.687963
     66          7           0       -6.472859   -3.665214   -4.290012
     67          8           0       -4.700572   -3.952006   -2.965720
     68          1           0       -5.836987    0.807250   -2.814264
     69          1           0       -4.545678   -1.626889   -1.722483
     70          1           0       -4.065698   -1.686813   -3.948539
     71          1           0       -5.710524   -1.270834   -4.425621
     72          1           0       -6.990386   -2.921566   -4.730641
     73          1           0       -6.559483   -4.628431   -4.592680
     74          7           0       -6.801854   -1.535168   -0.234747
     75          6           0       -5.958402   -0.749436    0.640817
     76          6           0       -4.783885   -1.537652    1.207055
     77          8           0       -3.986306   -1.074413    2.021843
     78          1           0       -7.631351   -1.940270    0.191313
     79          1           0       -6.499107   -0.234838    1.447866
     80          1           0       -5.473666    0.055439    0.101088
     81          7           0       -4.622602   -2.799007    0.803606
     82          6           0       -3.494997   -3.669149    1.030451
     83          6           0       -2.313208   -3.037663    0.302165
     84          8           0       -2.539201   -2.465065   -0.763884
     85          6           0       -3.850170   -5.085349    0.589621
     86          6           0       -4.927966   -5.723891    1.429871
     87          6           0       -4.518979   -6.355897    2.618735
     88          6           0       -6.263311   -5.730797    1.018280
     89          6           0       -5.489854   -6.977971    3.414301
     90          6           0       -7.241224   -6.314556    1.837982
     91          6           0       -6.846990   -6.954571    3.031112
     92          8           0       -7.713092   -7.788076    3.674957
     93          1           0       -5.274781   -3.147062    0.121828
     94          1           0       -3.275380   -3.619774    2.093386
     95          1           0       -2.912004   -5.647695    0.575066
     96          1           0       -4.258050   -5.082348   -0.416622
     97          1           0       -3.481662   -6.296656    2.918341
     98          1           0       -6.623984   -5.247186    0.116373
     99          1           0       -5.250200   -7.412577    4.364714
    100          1           0       -8.196631   -6.413784    1.348133
    101          1           0       -8.601916   -7.542249    3.406703
    102          7           0       -1.100922   -2.983814    0.868523
    103          6           0        0.022360   -2.214238    0.384590
    104          6           0        1.047751   -3.209131   -0.140156
    105          8           0        1.195131   -4.299941    0.408036
    106          6           0        0.551379   -1.360168    1.519889
    107          6           0       -0.498626   -0.307385    1.904125
    108          6           0        0.949023   -2.157812    2.757081
    109          6           0       -0.046033    0.700589    2.946836
    110          1           0       -0.928740   -3.614877    1.638791
    111          1           0       -0.280961   -1.597470   -0.467521
    112          1           0        1.433690   -0.803782    1.208824
    113          1           0       -1.340798   -0.866181    2.326019
    114          1           0       -0.914805    0.119458    0.984995
    115          1           0        1.712216   -2.884825    2.484708
    116          1           0        1.212940   -1.474808    3.568716
    117          1           0        0.052539   -2.600405    3.185833
    118          1           0       -0.069718    0.301418    3.967229
    119          1           0        0.982886    1.046107    2.864114
    120          1           0       -0.635747    1.603239    2.812814
    121          7           0        1.888494   -2.775959   -1.083985
    122          6           0        2.960703   -3.486374   -1.756650
    123          6           0        4.174142   -3.869160   -0.927711
    124          8           0        4.108788   -3.927802    0.306465
    125          6           0        2.396690   -4.640438   -2.591651
    126          8           0        2.158369   -5.723138   -1.721327
    127          1           0        1.724363   -1.842966   -1.423819
    128          1           0        3.382830   -2.733419   -2.422809
    129          1           0        3.085252   -5.082350   -3.313520
    130          1           0        1.472221   -4.432638   -3.124826
    131          1           0        1.687124   -5.542510   -0.902485
    132          7           0        5.301348   -4.100963   -1.590036
    133          6           0        6.608276   -4.410117   -1.049607
    134          6           0        7.436208   -3.174357   -0.718960
    135          8           0        7.299449   -2.194917   -1.439442
    136          6           0        7.407573   -5.300754   -1.996386
    137          1           0        5.303611   -4.078476   -2.594620
    138          1           0        6.384876   -4.978328   -0.146431
    139          1           0        6.914562   -6.267268   -2.093292
    140          1           0        7.335046   -4.814738   -2.975532
    141          1           0        8.395690   -5.531813   -1.614894
    142          7           0        8.135334   -3.232242    0.417909
    143          6           0        8.751493   -2.093317    1.076695
    144          6           0        7.871921   -0.862413    1.236153
    145          8           0        8.198784    0.284163    0.932468
    146          6           0       10.108395   -1.903983    0.405302
    147          1           0        8.113724   -4.121890    0.899945
    148          1           0        8.974849   -2.460814    2.073268
    149          1           0       10.667886   -1.065427    0.820024
    150          1           0       10.601573   -2.882451    0.461657
    151          1           0        9.961517   -1.749867   -0.656995
    152          7           0        6.668098   -1.164399    1.733258
    153          6           0        5.826528   -0.070861    2.188159
    154          6           0        5.656325   -0.039810    3.696856
    155          8           0        5.623228    1.031101    4.303283
    156          6           0        4.487899   -0.197994    1.469265
    157          6           0        3.798243    1.126584    1.195645
    158          6           0        4.511662    2.012354    0.192278
    159          8           0        4.444091    1.673659   -1.005103
    160          8           0        5.098602    3.023768    0.651346
    161          1           0        6.465046   -2.151543    1.803379
    162          1           0        6.235525    0.895439    1.900433
    163          1           0        3.881747   -0.898148    2.043516
    164          1           0        4.582206   -0.651215    0.476040
    165          1           0        3.774173    1.633425    2.157379
    166          1           0        2.746965    0.947903    0.928273
    167          7           0        5.682447   -1.199656    4.352428
    168          6           0        6.294027   -1.409564    5.651238
    169          1           0        7.336470   -1.094633    5.616459
    170          1           0        5.763339   -0.824902    6.401774
    171          1           0        6.243643   -2.467010    5.911044
    172          1           0        5.453559   -2.065861    3.903987
    173         20           0        5.426015    2.218731   -3.266258
    174          8           0        4.628100   -0.180209   -3.262228
    175          1           0        3.888379   -0.510228   -3.790999
    176          1           0        5.132847   -0.963271   -3.056935
 ---------------------------------------------------------------------

 SCF Done:  E(RB3LYP) =  -5333.29913806     A.U. after   40 cycles

 The electronic state is 1-A.
 Alpha  occ. eigenvalues -- -145.48800 -19.22778 -19.15555 -19.13223 -19.11153
 Alpha  occ. eigenvalues --  -19.10171 -19.09997 -19.09606 -19.08816 -19.07768
 Alpha  occ. eigenvalues --  -19.07576 -19.07286 -19.07038 -19.06371 -19.06024
 Alpha  occ. eigenvalues --  -19.05708 -19.05631 -19.05139 -19.05124 -19.05075
 Alpha  occ. eigenvalues --  -19.02620 -19.02411 -19.00830 -18.98384 -15.54728
 Alpha  occ. eigenvalues --  -14.55900 -14.39259 -14.38381 -14.36784 -14.35234
 Alpha  occ. eigenvalues --  -14.35048 -14.33910 -14.33727 -14.33289 -14.33113
 Alpha  occ. eigenvalues --  -14.32856 -14.31692 -14.31110 -14.30662 -14.30652
 Alpha  occ. eigenvalues --  -12.68315 -12.68278 -12.68266 -10.33306 -10.31282
 Alpha  occ. eigenvalues --  -10.30530 -10.28401 -10.28350 -10.28151 -10.26336
 Alpha  occ. eigenvalues --  -10.26307 -10.26263 -10.26241 -10.26099 -10.26038
 Alpha  occ. eigenvalues --  -10.25380 -10.25247 -10.25067 -10.24669 -10.24599
 Alpha  occ. eigenvalues --  -10.24597 -10.24429 -10.23843 -10.23746 -10.23091
 Alpha  occ. eigenvalues --  -10.22764 -10.22666 -10.22578 -10.22510 -10.22245
 Alpha  occ. eigenvalues --  -10.21961 -10.21859 -10.21717 -10.20886 -10.20555
 Alpha  occ. eigenvalues --  -10.19565 -10.19408 -10.19326 -10.19316 -10.19042
 Alpha  occ. eigenvalues --  -10.18619 -10.18617 -10.18608 -10.18560 -10.18336
 Alpha  occ. eigenvalues --  -10.18300 -10.18206 -10.18069 -10.18003 -10.16294
 Alpha  occ. eigenvalues --  -10.16245 -10.15713 -10.14921 -10.13837 -10.13654
 Alpha  occ. eigenvalues --  -10.12812 -10.11022  -1.91392  -1.18829  -1.18457
 Alpha  occ. eigenvalues --   -1.18195  -1.11661  -1.08503  -1.06261  -1.04422
 Alpha  occ. eigenvalues --   -1.04359  -1.03071  -1.02668  -1.02394  -1.01359
 Alpha  occ. eigenvalues --   -1.00487  -1.00044  -0.99877  -0.99799  -0.99633
 Alpha  occ. eigenvalues --   -0.99011  -0.98854  -0.98406  -0.98120  -0.98048
 Alpha  occ. eigenvalues --   -0.97572  -0.96205  -0.94862  -0.94627  -0.93275
 Alpha  occ. eigenvalues --   -0.92060  -0.91844  -0.90641  -0.90169  -0.89901
 Alpha  occ. eigenvalues --   -0.89608  -0.89098  -0.88869  -0.88375  -0.88239
 Alpha  occ. eigenvalues --   -0.88219  -0.87662  -0.86780  -0.86419  -0.84069
 Alpha  occ. eigenvalues --   -0.83960  -0.82216  -0.80164  -0.79493  -0.78826
 Alpha  occ. eigenvalues --   -0.77448  -0.76947  -0.76529  -0.76492  -0.75906
 Alpha  occ. eigenvalues --   -0.74756  -0.73878  -0.73490  -0.73095  -0.71808
 Alpha  occ. eigenvalues --   -0.71368  -0.71295  -0.70388  -0.69891  -0.69762
 Alpha  occ. eigenvalues --   -0.69074  -0.68988  -0.68466  -0.67707  -0.67240
 Alpha  occ. eigenvalues --   -0.66830  -0.66472  -0.65645  -0.64260  -0.63445
 Alpha  occ. eigenvalues --   -0.63152  -0.62562  -0.62143  -0.61441  -0.61239
 Alpha  occ. eigenvalues --   -0.60509  -0.60295  -0.60267  -0.59944  -0.59799
 Alpha  occ. eigenvalues --   -0.59405  -0.58384  -0.58109  -0.57980  -0.57812
 Alpha  occ. eigenvalues --   -0.57663  -0.57051  -0.56712  -0.56398  -0.55982
 Alpha  occ. eigenvalues --   -0.55684  -0.55136  -0.54594  -0.54322  -0.54194
 Alpha  occ. eigenvalues --   -0.53822  -0.53412  -0.53327  -0.52850  -0.52393
 Alpha  occ. eigenvalues --   -0.51848  -0.51772  -0.51590  -0.51135  -0.50732
 Alpha  occ. eigenvalues --   -0.50267  -0.50062  -0.49898  -0.49564  -0.49162
 Alpha  occ. eigenvalues --   -0.49060  -0.48913  -0.48445  -0.48291  -0.48065
 Alpha  occ. eigenvalues --   -0.47968  -0.47544  -0.47334  -0.47165  -0.46935
 Alpha  occ. eigenvalues --   -0.46775  -0.46573  -0.46478  -0.46178  -0.45740
 Alpha  occ. eigenvalues --   -0.45622  -0.45535  -0.45463  -0.45093  -0.45024
 Alpha  occ. eigenvalues --   -0.44790  -0.44534  -0.44058  -0.43975  -0.43868
 Alpha  occ. eigenvalues --   -0.43771  -0.43679  -0.43666  -0.43215  -0.42986
 Alpha  occ. eigenvalues --   -0.42948  -0.42748  -0.42488  -0.42285  -0.42119
 Alpha  occ. eigenvalues --   -0.41696  -0.41551  -0.41518  -0.41471  -0.41358
 Alpha  occ. eigenvalues --   -0.41313  -0.41183  -0.41095  -0.40747  -0.40652
 Alpha  occ. eigenvalues --   -0.40508  -0.40451  -0.40320  -0.40260  -0.40101
 Alpha  occ. eigenvalues --   -0.40048  -0.40004  -0.39847  -0.39585  -0.39394
 Alpha  occ. eigenvalues --   -0.39163  -0.39062  -0.38978  -0.38854  -0.38601
 Alpha  occ. eigenvalues --   -0.38475  -0.38407  -0.38211  -0.38095  -0.38005
 Alpha  occ. eigenvalues --   -0.37857  -0.37552  -0.37451  -0.37276  -0.37155
 Alpha  occ. eigenvalues --   -0.36893  -0.36863  -0.36694  -0.36527  -0.36454
 Alpha  occ. eigenvalues --   -0.36398  -0.36328  -0.36128  -0.35780  -0.35537
 Alpha  occ. eigenvalues --   -0.35468  -0.35147  -0.34807  -0.34657  -0.34483
 Alpha  occ. eigenvalues --   -0.34366  -0.34339  -0.34126  -0.34070  -0.33932
 Alpha  occ. eigenvalues --   -0.33741  -0.33507  -0.33323  -0.33069  -0.33013
 Alpha  occ. eigenvalues --   -0.32631  -0.32412  -0.32199  -0.32085  -0.31954
 Alpha  occ. eigenvalues --   -0.31629  -0.30900  -0.30796  -0.30732  -0.30425
 Alpha  occ. eigenvalues --   -0.30102  -0.29344  -0.28854  -0.28267  -0.27759
 Alpha  occ. eigenvalues --   -0.27680  -0.27623  -0.27016  -0.26713  -0.26476
 Alpha  occ. eigenvalues --   -0.25578  -0.25475  -0.25360  -0.25248  -0.25014
 Alpha  occ. eigenvalues --   -0.24902  -0.24801  -0.24542  -0.24154  -0.23941
 Alpha  occ. eigenvalues --   -0.23729  -0.23418  -0.23295  -0.23073  -0.22771
 Alpha  occ. eigenvalues --   -0.22445  -0.22203  -0.22105  -0.21985  -0.21955
 Alpha  occ. eigenvalues --   -0.21812  -0.21483  -0.21418  -0.21260  -0.21146
 Alpha  occ. eigenvalues --   -0.20826  -0.20188  -0.19770  -0.18305  -0.17954
 Alpha  occ. eigenvalues --   -0.17620  -0.17082  -0.14216
 Alpha virt. eigenvalues --   -0.13406  -0.08100  -0.04149  -0.02744  -0.01992
 Alpha virt. eigenvalues --   -0.01198  -0.00908  -0.00699  -0.00401   0.00486
 Alpha virt. eigenvalues --    0.00565   0.00617   0.00906   0.01592   0.01863

 Mulliken charges:
               1
     1  C    0.058831
     2  C   -0.000549
     3  O   -0.261501
     4  H   -0.037385
     5  H    0.037439
     6  H    0.024278
     7  N   -0.106025
     8  C    0.111180
     9  C    0.091423
    10  O   -0.298383
    11  C    0.018923
    12  C    0.077254
    13  O   -0.418906
    14  O   -0.347783
    15  H    0.103275
    16  H    0.009441
    17  H    0.008494
    18  H    0.016641
    19  N   -0.106411
    20  C    0.110499
    21  C    0.084430
    22  O   -0.254125
    23  C    0.009834
    24  C   -0.059354
    25  C    0.012492
    26  C    0.024125
    27  N    0.072552
    28  H    0.122564
    29  H   -0.019608
    30  H    0.042443
    31  H    0.015619
    32  H    0.019501
    33  H    0.001437
    34  H    0.045670
    35  H    0.046399
    36  H    0.074674
    37  H    0.053402
    38  H    0.203716
    39  H    0.183185
    40  H    0.211001
    41  N   -0.151261
    42  C    0.143814
    43  C    0.063513
    44  O   -0.303478
    45  C    0.016651
    46  C    0.089831
    47  O   -0.319005
    48  O   -0.461953
    49  H    0.134120
    50  H    0.037317
    51  H    0.002614
    52  H   -0.013264
    53  N   -0.142992
    54  C    0.184664
    55  C   -0.015527
    56  O   -0.230457
    57  H    0.137269
    58  H    0.052671
    59  H    0.035390
    60  N   -0.119039
    61  C    0.029040
    62  C    0.077484
    63  O   -0.259690
    64  C    0.136312
    65  C   -0.055800
    66  N   -0.017289
    67  O   -0.277086
    68  H    0.117331
    69  H    0.045461
    70  H    0.048493
    71  H   -0.022144
    72  H    0.115442
    73  H    0.123972
    74  N   -0.142396
    75  C    0.221252
    76  C   -0.008660
    77  O   -0.279454
    78  H    0.133011
    79  H    0.049849
    80  H    0.035085
    81  N   -0.114919
    82  C    0.126343
    83  C    0.095193
    84  O   -0.281421
    85  C    0.111525
    86  C   -0.006350
    87  C    0.011279
    88  C   -0.036203
    89  C   -0.006759
    90  C   -0.059036
    91  C    0.173377
    92  O   -0.200671
    93  H    0.115942
    94  H   -0.012627
    95  H    0.002769
    96  H    0.024813
    97  H   -0.027954
    98  H   -0.015061
    99  H   -0.026551
   100  H   -0.032946
   101  H    0.172627
   102  N   -0.121626
   103  C    0.133494
   104  C    0.108559
   105  O   -0.307575
   106  C   -0.085118
   107  C    0.014672
   108  C    0.051701
   109  C    0.044141
   110  H    0.125077
   111  H    0.014019
   112  H   -0.022561
   113  H    0.004375
   114  H   -0.005943
   115  H    0.029376
   116  H    0.006159
   117  H   -0.024110
   118  H   -0.016261
   119  H   -0.022156
   120  H    0.054212
   121  N   -0.095642
   122  C    0.045915
   123  C    0.111915
   124  O   -0.261804
   125  C    0.298387
   126  O   -0.356056
   127  H    0.130751
   128  H   -0.067442
   129  H   -0.020814
   130  H    0.010632
   131  H    0.173355
   132  N   -0.105522
   133  C    0.045493
   134  C    0.110021
   135  O   -0.292011
   136  C    0.052373
   137  H    0.099842
   138  H    0.006029
   139  H    0.035899
   140  H    0.015007
   141  H    0.023416
   142  N   -0.156789
   143  C    0.047701
   144  C    0.087234
   145  O   -0.251353
   146  C    0.091427
   147  H    0.127273
   148  H    0.010443
   149  H    0.034796
   150  H   -0.012580
   151  H    0.013323
   152  N   -0.138539
   153  C    0.078838
   154  C    0.076098
   155  O   -0.245024
   156  C    0.030460
   157  C    0.081805
   158  C    0.108159
   159  O   -0.473824
   160  O   -0.345107
   161  H    0.101681
   162  H    0.052802
   163  H   -0.012981
   164  H   -0.019871
   165  H    0.002341
   166  H    0.015300
   167  N   -0.165694
   168  C    0.128173
   169  H    0.018290
   170  H    0.040552
   171  H    0.008444
   172  H    0.104267
   173  Ca   1.334614
   174  O   -0.318975
   175  H    0.205345
   176  H    0.196037
 Sum of Mulliken charges =  -0.00000

 Dipole moment (field-independent basis, Debye):
    X=             21.6254    Y=              4.4082    Z=              0.9574  Tot=             22.0909
 Quadrupole moment (field-independent basis, Debye-Ang):
   XX=           -505.0980   YY=           -347.9787   ZZ=           -523.4648
   XY=             21.4591   XZ=            -75.8383   YZ=             96.7257

 ESP charges:
               1
     1  C   -0.368643
     2  C    0.680328
     3  O   -0.588511
     4  H    0.029999
     5  H    0.107438
     6  H    0.106738
     7  N   -0.519711
     8  C    0.204157
     9  C    0.500294
    10  O   -0.568359
    11  C   -0.467411
    12  C    0.746452
    13  O   -0.724769
    14  O   -0.641093
    15  H    0.305945
    16  H    0.053247
    17  H    0.128729
    18  H    0.111657
    19  N   -0.388741
    20  C   -0.064427
    21  C    0.487817
    22  O   -0.488131
    23  C   -0.302017
    24  C    0.378737
    25  C   -0.239921
    26  C    0.166149
    27  N   -0.336888
    28  H    0.317236
    29  H    0.103779
    30  H    0.119608
    31  H    0.110196
    32  H   -0.057455
    33  H   -0.093726
    34  H    0.074980
    35  H    0.074896
    36  H    0.047417
    37  H    0.040096
    38  H    0.304614
    39  H    0.290612
    40  H    0.359493
    41  N   -0.307611
    42  C    0.009292
    43  C    0.628276
    44  O   -0.579556
    45  C   -0.238375
    46  C    0.676560
    47  O   -0.616075
    48  O   -0.771214
    49  H    0.289615
    50  H    0.096781
    51  H    0.068383
    52  H    0.064664
    53  N   -0.679455
    54  C    0.440295
    55  C    0.468719
    56  O   -0.475938
    57  H    0.289465
    58  H   -0.002131
    59  H    0.022620
    60  N   -0.626240
    61  C    0.555682
    62  C    0.475106
    63  O   -0.552635
    64  C   -0.386317
    65  C    0.591106
    66  N   -0.703750
    67  O   -0.552686
    68  H    0.294983
    69  H   -0.037313
    70  H    0.147278
    71  H    0.070483
    72  H    0.319391
    73  H    0.358564
    74  N   -0.414453
    75  C   -0.064601
    76  C    0.530636
    77  O   -0.553529
    78  H    0.303884
    79  H    0.113977
    80  H    0.044701
    81  N   -0.422010
    82  C    0.004562
    83  C    0.908001
    84  O   -0.617664
    85  C   -0.399654
    86  C    0.272985
    87  C   -0.266892
    88  C   -0.213852
    89  C   -0.125763
    90  C   -0.299175
    91  C    0.269378
    92  O   -0.496603
    93  H    0.200666
    94  H    0.096143
    95  H    0.121360
    96  H    0.140854
    97  H    0.157731
    98  H    0.166476
    99  H    0.124872
   100  H    0.159197
   101  H    0.383761
   102  N   -0.791632
   103  C   -0.184573
   104  C    0.794914
   105  O   -0.534598
   106  C    0.435763
   107  C    0.259775
   108  C   -0.443575
   109  C   -0.478327
   110  H    0.335314
   111  H    0.042362
   112  H   -0.144718
   113  H   -0.007754
   114  H   -0.073040
   115  H    0.102617
   116  H    0.099588
   117  H    0.093559
   118  H    0.086054
   119  H    0.118849
   120  H    0.186283
   121  N   -0.393632
   122  C   -0.364860
   123  C    0.677458
   124  O   -0.498924
   125  C    0.149994
   126  O   -0.588231
   127  H    0.304683
   128  H    0.121496
   129  H    0.060014
   130  H    0.069186
   131  H    0.394365
   132  N   -0.487061
   133  C    0.277853
   134  C    0.379998
   135  O   -0.477689
   136  C   -0.282098
   137  H    0.273571
   138  H    0.003358
   139  H    0.093344
   140  H    0.068922
   141  H    0.083680
   142  N   -0.382552
   143  C    0.237157
   144  C    0.452402
   145  O   -0.499346
   146  C   -0.365280
   147  H    0.267113
   148  H    0.036474
   149  H    0.106175
   150  H    0.079233
   151  H    0.108285
   152  N   -0.468226
   153  C    0.255061
   154  C    0.550406
   155  O   -0.506825
   156  C    0.055715
   157  C   -0.201457
   158  C    0.804612
   159  O   -0.787912
   160  O   -0.666791
   161  H    0.166810
   162  H    0.018994
   163  H   -0.067055
   164  H    0.027345
   165  H    0.020998
   166  H    0.050889
   167  N   -0.444272
   168  C   -0.197353
   169  H    0.095539
   170  H    0.117649
   171  H    0.094544
   172  H    0.320254
   173  Ca   1.468673
   174  O   -0.698242
   175  H    0.378610
   176  H    0.346317
 Sum of ESP charges =   0.00000

 Normal termination of Gaussian 16 at Wed Sep 18 14:35:02 2019.
