 Gaussian 16, Revision A.03,
 Gaussian 16:  ES64L-G16RevA.03 25-Dec-2016

 ----------------------------------------------------------------------
 #b3lyp/svp scf=(tight,noincore) Test #IOP(5/87=12) Density=Current Pop
 =(MK,readradii) iop(6/33=2) iop(6/42=6)
 ----------------------------------------------------------------------

 ----------------
 Ng-31_loop3_40.0
 ----------------
 Symbolic Z-matrix:
 Charge =  0 Multiplicity = 1

                         Standard orientation:
 ---------------------------------------------------------------------
 Center     Atomic      Atomic             Coordinates (Angstroms)
 Number     Number       Type             X           Y           Z
 ---------------------------------------------------------------------
      1          6           0        5.149405   -2.998952    5.206379
      2          6           0        4.887896   -1.975647    4.108263
      3          8           0        3.793612   -1.900390    3.538720
      4          1           0        4.210854   -3.246486    5.702117
      5          1           0        5.577442   -3.901030    4.768905
      6          1           0        5.845113   -2.581705    5.933995
      7          7           0        5.982627   -1.418678    3.594989
      8          6           0        6.076656   -0.545679    2.436874
      9          6           0        5.944518   -1.243937    1.086401
     10          8           0        4.787267   -1.400006    0.708232
     11          6           0        7.392612    0.204601    2.508570
     12          6           0        8.632185   -0.565536    2.946460
     13          8           0        8.826069   -0.746533    4.170449
     14          8           0        9.422338   -1.015400    2.088917
     15          1           0        6.816365   -1.554754    4.129652
     16          1           0        5.239495    0.156071    2.426521
     17          1           0        7.303543    1.101785    3.123246
     18          1           0        7.473984    0.568568    1.483969
     19          7           0        6.979042   -1.743919    0.417462
     20          6           0        6.815653   -2.299483   -0.913985
     21          6           0        6.248089   -1.358317   -1.956568
     22          8           0        6.984853   -0.644262   -2.632886
     23          6           0        8.186764   -2.824630   -1.335384
     24          6           0        8.068565   -3.650816   -2.612782
     25          6           0        9.459585   -4.130335   -3.038839
     26          6           0        9.363091   -4.962837   -4.306802
     27          7           0       10.703910   -5.371829   -4.750344
     28          1           0        7.899260   -1.500882    0.763195
     29          1           0        6.195505   -3.192512   -0.848298
     30          1           0        8.563019   -3.522030   -0.590425
     31          1           0        8.875171   -1.992716   -1.471821
     32          1           0        7.706419   -3.014172   -3.420269
     33          1           0        7.356880   -4.455329   -2.436253
     34          1           0       10.015848   -4.648537   -2.259457
     35          1           0       10.010360   -3.208084   -3.222143
     36          1           0        8.802232   -4.382515   -5.034032
     37          1           0        8.745149   -5.831787   -4.081692
     38          1           0       10.611679   -6.183635   -5.346553
     39          1           0       11.199923   -4.651979   -5.261115
     40          1           0       11.253830   -5.707662   -3.972074
     41          7           0        4.913384   -1.317997   -2.028238
     42          6           0        4.174856   -0.521542   -2.986379
     43          6           0        3.828209    0.921655   -2.632516
     44          8           0        3.760932    1.689886   -3.595685
     45          6           0        2.879796   -1.224137   -3.360383
     46          6           0        1.924076   -1.604795   -2.243378
     47          8           0        0.731265   -1.862394   -2.522920
     48          8           0        2.287652   -1.720295   -1.047940
     49          1           0        4.395009   -1.721791   -1.265062
     50          1           0        4.822331   -0.393585   -3.860224
     51          1           0        3.241075   -2.123218   -3.860614
     52          1           0        2.370467   -0.546970   -4.056536
     53          7           0        3.620106    1.288421   -1.367773
     54          6           0        3.374875    2.652184   -0.950625
     55          6           0        4.661241    3.474492   -0.858035
     56          8           0        5.772583    2.972266   -0.984486
     57          1           0        3.715817    0.534155   -0.704431
     58          1           0        2.808922    2.605213   -0.029924
     59          1           0        2.743056    3.076765   -1.724858
     60          7           0        4.600760    4.796603   -0.681788
     61          6           0        3.389243    5.595217   -0.656427
     62          6           0        2.574848    5.176799    0.565942
     63          8           0        3.157557    5.012237    1.637796
     64          6           0        3.883873    7.023840   -0.477605
     65          6           0        2.777727    7.844158    0.167777
     66          7           0        3.008359    8.276984    1.400161
     67          8           0        1.706822    8.048479   -0.411547
     68          1           0        5.481993    5.275507   -0.639612
     69          1           0        2.776760    5.558586   -1.550699
     70          1           0        4.083519    7.532780   -1.422868
     71          1           0        4.669973    6.970234    0.274841
     72          1           0        3.939904    8.125652    1.752613
     73          1           0        2.484171    9.032816    1.818903
     74          7           0        1.273843    4.910048    0.571550
     75          6           0        0.343142    4.827552   -0.543479
     76          6           0       -0.700699    3.752573   -0.292646
     77          8           0       -0.285642    2.701308    0.200373
     78          1           0        0.955940    4.462182    1.416389
     79          1           0        0.834365    4.735641   -1.512423
     80          1           0       -0.262279    5.734776   -0.642020
     81          7           0       -1.986736    3.978092   -0.574870
     82          6           0       -3.039540    2.985380   -0.629900
     83          6           0       -3.548335    2.773133   -2.049822
     84          8           0       -3.912597    3.719614   -2.751025
     85          6           0       -4.157663    3.410134    0.318774
     86          6           0       -3.821895    3.492170    1.784595
     87          6           0       -3.452995    2.365681    2.524213
     88          6           0       -3.802546    4.751147    2.392051
     89          6           0       -3.136698    2.506707    3.883539
     90          6           0       -3.454417    4.892675    3.742079
     91          6           0       -3.041361    3.777730    4.504433
     92          8           0       -2.563582    3.924360    5.771606
     93          1           0       -2.251882    4.881758   -0.949817
     94          1           0       -2.607549    2.089083   -0.178085
     95          1           0       -4.972322    2.714879    0.116412
     96          1           0       -4.504976    4.365103   -0.076584
     97          1           0       -3.376066    1.378144    2.088950
     98          1           0       -4.022808    5.650824    1.826396
     99          1           0       -2.887894    1.611122    4.418072
    100          1           0       -3.335835    5.890541    4.126658
    101          1           0       -2.445768    4.858340    5.935011
    102          7           0       -3.570608    1.525465   -2.494602
    103          6           0       -4.170567    1.045808   -3.724837
    104          6           0       -5.687278    1.029443   -3.691336
    105          8           0       -6.433475    1.291059   -4.640096
    106          6           0       -3.577849   -0.283531   -4.165794
    107          6           0       -4.013108   -1.521048   -3.378203
    108          6           0       -3.906959   -0.442185   -5.645224
    109          6           0       -2.926536   -2.594063   -3.448206
    110          1           0       -3.353044    0.792429   -1.832390
    111          1           0       -3.930501    1.828909   -4.452381
    112          1           0       -2.480924   -0.261059   -4.130426
    113          1           0       -4.928654   -1.895643   -3.833346
    114          1           0       -4.203564   -1.220894   -2.347022
    115          1           0       -3.740841    0.471968   -6.220923
    116          1           0       -3.311790   -1.199873   -6.143704
    117          1           0       -4.973036   -0.663518   -5.736291
    118          1           0       -2.824919   -2.972343   -4.465102
    119          1           0       -1.987363   -2.092669   -3.195703
    120          1           0       -3.018718   -3.461816   -2.788958
    121          7           0       -6.252076    0.896479   -2.491701
    122          6           0       -7.670671    0.981723   -2.181345
    123          6           0       -8.392069   -0.303421   -1.816668
    124          8           0       -9.562668   -0.323733   -1.437347
    125          6           0       -7.809106    2.121337   -1.184843
    126          8           0       -7.570921    3.389463   -1.763568
    127          1           0       -5.573184    0.835778   -1.751755
    128          1           0       -8.166852    1.241173   -3.113166
    129          1           0       -7.097113    1.954158   -0.380345
    130          1           0       -8.787119    2.122665   -0.693529
    131          1           0       -7.695517    4.047376   -1.068351
    132          7           0       -7.652247   -1.406539   -1.967651
    133          6           0       -8.017628   -2.657952   -1.339509
    134          6           0       -6.950012   -3.211211   -0.413874
    135          8           0       -5.749433   -3.029307   -0.542020
    136          6           0       -8.262458   -3.716468   -2.406937
    137          1           0       -6.761878   -1.337343   -2.443313
    138          1           0       -8.928930   -2.470753   -0.781849
    139          1           0       -9.078123   -3.364933   -3.050920
    140          1           0       -7.387847   -3.693301   -3.057336
    141          1           0       -8.436316   -4.723639   -2.024080
    142          7           0       -7.395429   -3.934305    0.624846
    143          6           0       -6.716952   -4.609751    1.717339
    144          6           0       -5.205616   -4.417699    1.750212
    145          8           0       -4.402435   -5.253179    1.335875
    146          6           0       -7.123439   -6.082457    1.719590
    147          1           0       -8.407330   -3.930096    0.613125
    148          1           0       -6.968345   -4.065148    2.628388
    149          1           0       -8.210282   -6.166415    1.704661
    150          1           0       -6.648282   -6.492485    0.829027
    151          1           0       -6.717726   -6.487108    2.645741
    152          7           0       -4.731771   -3.243940    2.155997
    153          6           0       -3.405257   -3.107137    2.725422
    154          6           0       -3.584692   -3.089940    4.230748
    155          8           0       -2.758558   -3.652840    4.952930
    156          6           0       -2.803345   -1.771826    2.277041
    157          6           0       -2.419457   -1.900670    0.809584
    158          6           0       -1.144079   -2.602511    0.373545
    159          8           0       -0.054460   -2.173826    0.793018
    160          8           0       -1.232343   -3.687939   -0.245371
    161          1           0       -5.438819   -2.559098    2.407340
    162          1           0       -2.750878   -3.949314    2.511118
    163          1           0       -1.871018   -1.653224    2.829581
    164          1           0       -3.494919   -0.931917    2.331622
    165          1           0       -2.252447   -0.923762    0.358630
    166          1           0       -3.338814   -2.140517    0.262633
    167          7           0       -4.719070   -2.551463    4.678221
    168          6           0       -5.219358   -2.688973    6.023175
    169          1           0       -4.498150   -3.243986    6.623175
    170          1           0       -5.370183   -1.700773    6.458232
    171          1           0       -6.167246   -3.227238    6.005566
    172          1           0       -5.371324   -2.227546    3.968403
    173         20           0        2.337958   -2.266361    1.374803
    174          8           0        0.936932   -1.171901    3.337755
    175          1           0        0.879945   -1.365036    4.272235
    176          1           0        0.376179   -0.404143    3.223280
 ---------------------------------------------------------------------

 SCF Done:  E(RB3LYP) =  -5333.38784775     A.U. after   27 cycles

 The electronic state is 1-A.
 Alpha  occ. eigenvalues -- -145.40557 -19.16874 -19.15854 -19.12412 -19.12145
 Alpha  occ. eigenvalues --  -19.11938 -19.09141 -19.09109 -19.08988 -19.08934
 Alpha  occ. eigenvalues --  -19.08691 -19.08352 -19.07893 -19.07514 -19.07384
 Alpha  occ. eigenvalues --  -19.06909 -19.06733 -19.05212 -19.02589 -19.00281
 Alpha  occ. eigenvalues --  -19.00240 -18.99726 -18.98876 -18.97015 -15.46444
 Alpha  occ. eigenvalues --  -14.60246 -14.36141 -14.35810 -14.35474 -14.35427
 Alpha  occ. eigenvalues --  -14.35403 -14.35306 -14.34863 -14.34718 -14.34575
 Alpha  occ. eigenvalues --  -14.34244 -14.33588 -14.33403 -14.32172 -14.32065
 Alpha  occ. eigenvalues --  -12.60100 -12.59997 -12.59948 -10.35885 -10.30244
 Alpha  occ. eigenvalues --  -10.29692 -10.28311 -10.28273 -10.27936 -10.27884
 Alpha  occ. eigenvalues --  -10.27753 -10.27569 -10.27301 -10.26672 -10.26402
 Alpha  occ. eigenvalues --  -10.26154 -10.25925 -10.25916 -10.25653 -10.24126
 Alpha  occ. eigenvalues --  -10.23902 -10.23899 -10.23893 -10.23669 -10.23200
 Alpha  occ. eigenvalues --  -10.23042 -10.23003 -10.22961 -10.22845 -10.22158
 Alpha  occ. eigenvalues --  -10.21748 -10.21394 -10.21232 -10.20898 -10.20624
 Alpha  occ. eigenvalues --  -10.20595 -10.20230 -10.20102 -10.20086 -10.19463
 Alpha  occ. eigenvalues --  -10.19448 -10.19428 -10.19302 -10.19208 -10.19040
 Alpha  occ. eigenvalues --  -10.19009 -10.18402 -10.18189 -10.18142 -10.16631
 Alpha  occ. eigenvalues --  -10.16335 -10.15199 -10.14776 -10.14429 -10.14278
 Alpha  occ. eigenvalues --  -10.11887 -10.11837  -1.83108  -1.15335  -1.11021
 Alpha  occ. eigenvalues --   -1.10304  -1.09871  -1.05674  -1.05672  -1.04130
 Alpha  occ. eigenvalues --   -1.02825  -1.02765  -1.02339  -1.01945  -1.01835
 Alpha  occ. eigenvalues --   -1.01696  -1.01367  -1.01066  -1.00975  -1.00628
 Alpha  occ. eigenvalues --   -1.00242  -0.99793  -0.99762  -0.98032  -0.95577
 Alpha  occ. eigenvalues --   -0.95002  -0.93430  -0.93407  -0.92565  -0.92521
 Alpha  occ. eigenvalues --   -0.92341  -0.92057  -0.91908  -0.91853  -0.91048
 Alpha  occ. eigenvalues --   -0.90480  -0.90429  -0.89909  -0.89883  -0.89661
 Alpha  occ. eigenvalues --   -0.89411  -0.88237  -0.85074  -0.84641  -0.84490
 Alpha  occ. eigenvalues --   -0.82792  -0.82745  -0.80157  -0.79311  -0.78781
 Alpha  occ. eigenvalues --   -0.78699  -0.78353  -0.77095  -0.76705  -0.75848
 Alpha  occ. eigenvalues --   -0.74990  -0.74819  -0.74613  -0.74474  -0.74201
 Alpha  occ. eigenvalues --   -0.73436  -0.72437  -0.72007  -0.71379  -0.70943
 Alpha  occ. eigenvalues --   -0.70556  -0.68140  -0.68092  -0.67537  -0.67386
 Alpha  occ. eigenvalues --   -0.65855  -0.65228  -0.65093  -0.64701  -0.64193
 Alpha  occ. eigenvalues --   -0.63462  -0.62533  -0.62058  -0.61930  -0.60801
 Alpha  occ. eigenvalues --   -0.60696  -0.60072  -0.59658  -0.59624  -0.59432
 Alpha  occ. eigenvalues --   -0.59177  -0.58854  -0.58337  -0.58301  -0.58176
 Alpha  occ. eigenvalues --   -0.57623  -0.57500  -0.57473  -0.57020  -0.56368
 Alpha  occ. eigenvalues --   -0.56057  -0.56018  -0.55257  -0.55185  -0.54942
 Alpha  occ. eigenvalues --   -0.54648  -0.54347  -0.54119  -0.53919  -0.53407
 Alpha  occ. eigenvalues --   -0.52861  -0.51916  -0.51744  -0.51616  -0.51451
 Alpha  occ. eigenvalues --   -0.51015  -0.50518  -0.50047  -0.49965  -0.49800
 Alpha  occ. eigenvalues --   -0.49607  -0.49262  -0.49187  -0.48963  -0.48706
 Alpha  occ. eigenvalues --   -0.48373  -0.48217  -0.47840  -0.47526  -0.47139
 Alpha  occ. eigenvalues --   -0.46991  -0.46775  -0.46416  -0.46295  -0.45800
 Alpha  occ. eigenvalues --   -0.45567  -0.45422  -0.45358  -0.45167  -0.44823
 Alpha  occ. eigenvalues --   -0.44623  -0.44406  -0.44323  -0.44169  -0.43948
 Alpha  occ. eigenvalues --   -0.43882  -0.43774  -0.43692  -0.43611  -0.43463
 Alpha  occ. eigenvalues --   -0.42927  -0.42727  -0.42622  -0.42494  -0.42434
 Alpha  occ. eigenvalues --   -0.42212  -0.42074  -0.41849  -0.41722  -0.41638
 Alpha  occ. eigenvalues --   -0.41354  -0.41287  -0.40794  -0.40683  -0.40566
 Alpha  occ. eigenvalues --   -0.40545  -0.40454  -0.40263  -0.40230  -0.40069
 Alpha  occ. eigenvalues --   -0.39764  -0.39708  -0.39558  -0.39433  -0.39245
 Alpha  occ. eigenvalues --   -0.39158  -0.38973  -0.38929  -0.38829  -0.38807
 Alpha  occ. eigenvalues --   -0.38583  -0.38556  -0.38298  -0.38202  -0.37943
 Alpha  occ. eigenvalues --   -0.37938  -0.37617  -0.37582  -0.37545  -0.37495
 Alpha  occ. eigenvalues --   -0.37263  -0.37022  -0.36605  -0.36492  -0.36293
 Alpha  occ. eigenvalues --   -0.36191  -0.36088  -0.36032  -0.35898  -0.35818
 Alpha  occ. eigenvalues --   -0.35693  -0.35544  -0.35393  -0.35276  -0.35096
 Alpha  occ. eigenvalues --   -0.34901  -0.34627  -0.34506  -0.34274  -0.34193
 Alpha  occ. eigenvalues --   -0.34145  -0.34024  -0.33433  -0.33360  -0.33177
 Alpha  occ. eigenvalues --   -0.32961  -0.32493  -0.31808  -0.31706  -0.31374
 Alpha  occ. eigenvalues --   -0.31299  -0.30899  -0.30877  -0.30193  -0.29920
 Alpha  occ. eigenvalues --   -0.29568  -0.29019  -0.28842  -0.28736  -0.28101
 Alpha  occ. eigenvalues --   -0.27584  -0.27442  -0.27125  -0.26886  -0.26646
 Alpha  occ. eigenvalues --   -0.26318  -0.26089  -0.25976  -0.25915  -0.25743
 Alpha  occ. eigenvalues --   -0.25488  -0.25321  -0.25118  -0.24905  -0.24697
 Alpha  occ. eigenvalues --   -0.24492  -0.24310  -0.24205  -0.23953  -0.23589
 Alpha  occ. eigenvalues --   -0.23519  -0.23371  -0.23025  -0.22749  -0.22588
 Alpha  occ. eigenvalues --   -0.22460  -0.22060  -0.21244  -0.20381  -0.19920
 Alpha  occ. eigenvalues --   -0.18170  -0.17980  -0.17735  -0.17314  -0.16015
 Alpha  occ. eigenvalues --   -0.15314  -0.14745  -0.12815
 Alpha virt. eigenvalues --   -0.11926  -0.06132  -0.05662  -0.03299  -0.02036
 Alpha virt. eigenvalues --   -0.01779  -0.01032  -0.00366   0.00575   0.00982
 Alpha virt. eigenvalues --    0.01244   0.01279   0.01698   0.01875   0.02240

 Mulliken charges:
               1
     1  C    0.030313
     2  C    0.064666
     3  O   -0.405979
     4  H    0.026821
     5  H    0.050659
     6  H    0.051324
     7  N   -0.088956
     8  C    0.110626
     9  C    0.096226
    10  O   -0.391668
    11  C    0.058039
    12  C    0.060014
    13  O   -0.383719
    14  O   -0.375039
    15  H    0.115962
    16  H    0.010179
    17  H    0.007345
    18  H    0.001647
    19  N   -0.086128
    20  C    0.130181
    21  C    0.044205
    22  O   -0.276871
    23  C    0.036094
    24  C   -0.021609
    25  C   -0.057485
    26  C    0.033740
    27  N    0.095436
    28  H    0.126581
    29  H   -0.020931
    30  H    0.007576
    31  H    0.038987
    32  H    0.035278
    33  H    0.009546
    34  H    0.020197
    35  H    0.036226
    36  H    0.085349
    37  H    0.071996
    38  H    0.189052
    39  H    0.204215
    40  H    0.191650
    41  N   -0.106126
    42  C    0.110788
    43  C    0.063663
    44  O   -0.302364
    45  C    0.062869
    46  C    0.126604
    47  O   -0.316986
    48  O   -0.503371
    49  H    0.112099
    50  H   -0.002646
    51  H   -0.007850
    52  H    0.023476
    53  N   -0.110168
    54  C    0.167182
    55  C    0.030160
    56  O   -0.254995
    57  H    0.106012
    58  H    0.050386
    59  H    0.023238
    60  N   -0.085772
    61  C    0.099971
    62  C   -0.006847
    63  O   -0.278273
    64  C    0.123777
    65  C   -0.058387
    66  N   -0.022519
    67  O   -0.274707
    68  H    0.123166
    69  H    0.005264
    70  H    0.050213
    71  H   -0.013315
    72  H    0.118154
    73  H    0.126028
    74  N   -0.079213
    75  C    0.222591
    76  C    0.003294
    77  O   -0.282027
    78  H    0.130364
    79  H    0.056628
    80  H   -0.002633
    81  N   -0.120628
    82  C    0.079803
    83  C    0.092714
    84  O   -0.270378
    85  C    0.125787
    86  C    0.040766
    87  C   -0.010141
    88  C   -0.026667
    89  C   -0.032186
    90  C   -0.045892
    91  C    0.171154
    92  O   -0.183493
    93  H    0.124498
    94  H    0.018914
    95  H   -0.013514
    96  H   -0.007772
    97  H   -0.018124
    98  H   -0.029159
    99  H   -0.030477
   100  H   -0.042811
   101  H    0.173009
   102  N   -0.125563
   103  C    0.145520
   104  C    0.054763
   105  O   -0.266087
   106  C   -0.120101
   107  C   -0.006895
   108  C    0.072481
   109  C    0.024165
   110  H    0.135399
   111  H    0.027765
   112  H    0.022434
   113  H   -0.002756
   114  H   -0.007221
   115  H   -0.003358
   116  H    0.005211
   117  H    0.008314
   118  H   -0.020727
   119  H    0.050158
   120  H    0.044962
   121  N   -0.160418
   122  C    0.156244
   123  C    0.047061
   124  O   -0.271353
   125  C    0.210901
   126  O   -0.290655
   127  H    0.090751
   128  H    0.051216
   129  H   -0.040025
   130  H    0.003132
   131  H    0.165372
   132  N   -0.143996
   133  C    0.073927
   134  C    0.034423
   135  O   -0.239136
   136  C    0.071862
   137  H    0.139072
   138  H    0.007854
   139  H    0.026523
   140  H    0.019999
   141  H    0.014064
   142  N   -0.142653
   143  C    0.121444
   144  C    0.043126
   145  O   -0.239356
   146  C    0.082720
   147  H    0.108663
   148  H   -0.034035
   149  H   -0.003500
   150  H    0.050594
   151  H    0.016538
   152  N   -0.118551
   153  C    0.105200
   154  C    0.048984
   155  O   -0.275530
   156  C    0.080027
   157  C    0.032797
   158  C    0.140370
   159  O   -0.496061
   160  O   -0.349140
   161  H    0.090071
   162  H    0.051551
   163  H   -0.031195
   164  H   -0.042020
   165  H   -0.037270
   166  H    0.002351
   167  N   -0.156338
   168  C    0.125376
   169  H    0.046901
   170  H    0.020205
   171  H    0.012357
   172  H    0.083184
   173  Ca   1.419807
   174  O   -0.283941
   175  H    0.176646
   176  H    0.190526
 Sum of Mulliken charges =  -0.00000

 Dipole moment (field-independent basis, Debye):
    X=             22.9286    Y=            -15.0434    Z=             -6.1530  Tot=             28.1048
 Quadrupole moment (field-independent basis, Debye-Ang):
   XX=           -317.2853   YY=           -404.0801   ZZ=           -511.4960
   XY=           -220.5050   XZ=           -297.4880   YZ=            142.5568

 ESP charges:
               1
     1  C   -0.471060
     2  C    0.790577
     3  O   -0.716732
     4  H    0.126777
     5  H    0.138366
     6  H    0.140431
     7  N   -0.567789
     8  C    0.243794
     9  C    0.576390
    10  O   -0.677853
    11  C   -0.372550
    12  C    0.806166
    13  O   -0.694885
    14  O   -0.704612
    15  H    0.275707
    16  H    0.051536
    17  H    0.096787
    18  H    0.074923
    19  N   -0.476864
    20  C    0.301996
    21  C    0.622321
    22  O   -0.554596
    23  C   -0.121315
    24  C   -0.242565
    25  C    0.135380
    26  C    0.131622
    27  N   -0.540902
    28  H    0.214389
    29  H   -0.004757
    30  H    0.074374
    31  H    0.086437
    32  H    0.078147
    33  H    0.058322
    34  H   -0.007217
    35  H    0.009732
    36  H    0.071260
    37  H    0.053550
    38  H    0.368858
    39  H    0.382061
    40  H    0.361417
    41  N   -0.714608
    42  C    0.473931
    43  C    0.527217
    44  O   -0.569887
    45  C   -0.622568
    46  C    0.948118
    47  O   -0.666614
    48  O   -0.867333
    49  H    0.281253
    50  H   -0.002202
    51  H    0.136129
    52  H    0.139460
    53  N   -0.468300
    54  C   -0.056774
    55  C    0.673177
    56  O   -0.538478
    57  H    0.307797
    58  H    0.111425
    59  H    0.096825
    60  N   -0.749618
    61  C    0.611163
    62  C    0.251565
    63  O   -0.515854
    64  C   -0.595375
    65  C    0.679206
    66  N   -0.708888
    67  O   -0.561389
    68  H    0.366625
    69  H   -0.023820
    70  H    0.182859
    71  H    0.151600
    72  H    0.338161
    73  H    0.354475
    74  N   -0.222556
    75  C   -0.387764
    76  C    0.691065
    77  O   -0.542458
    78  H    0.284306
    79  H    0.155917
    80  H    0.126101
    81  N   -0.487105
    82  C    0.186979
    83  C    0.501140
    84  O   -0.508982
    85  C   -0.345814
    86  C    0.129196
    87  C   -0.204810
    88  C   -0.103797
    89  C   -0.245039
    90  C   -0.377689
    91  C    0.419365
    92  O   -0.540161
    93  H    0.288534
    94  H    0.026284
    95  H    0.126848
    96  H    0.092832
    97  H    0.176443
    98  H    0.134142
    99  H    0.147899
   100  H    0.154627
   101  H    0.403621
   102  N   -0.476554
   103  C   -0.068648
   104  C    0.525965
   105  O   -0.553721
   106  C    0.277458
   107  C   -0.147579
   108  C   -0.314658
   109  C   -0.265314
   110  H    0.290383
   111  H    0.129380
   112  H   -0.001397
   113  H    0.095974
   114  H   -0.000359
   115  H    0.060818
   116  H    0.090539
   117  H    0.051591
   118  H    0.048625
   119  H    0.129469
   120  H    0.107521
   121  N   -0.111685
   122  C   -0.132403
   123  C    0.481406
   124  O   -0.523041
   125  C    0.223175
   126  O   -0.586663
   127  H    0.141256
   128  H    0.174070
   129  H   -0.039143
   130  H    0.012926
   131  H    0.393833
   132  N   -0.344011
   133  C    0.290679
   134  C    0.275002
   135  O   -0.370721
   136  C   -0.209005
   137  H    0.117321
   138  H    0.006743
   139  H    0.058736
   140  H    0.078000
   141  H    0.056081
   142  N   -0.453725
   143  C    0.502909
   144  C    0.418974
   145  O   -0.488704
   146  C   -0.422824
   147  H    0.238187
   148  H   -0.112410
   149  H    0.101578
   150  H    0.132487
   151  H    0.090699
   152  N   -0.319913
   153  C   -0.216717
   154  C    0.642583
   155  O   -0.554464
   156  C   -0.364489
   157  C    0.394755
   158  C    0.646660
   159  O   -0.833657
   160  O   -0.644850
   161  H    0.227201
   162  H    0.198635
   163  H    0.081155
   164  H    0.057185
   165  H   -0.077631
   166  H   -0.094709
   167  N   -0.405540
   168  C   -0.077315
   169  H    0.094232
   170  H    0.055582
   171  H    0.057879
   172  H    0.283907
   173  Ca   1.683662
   174  O   -0.802867
   175  H    0.418100
   176  H    0.405369
 Sum of ESP charges =   0.00000

 Normal termination of Gaussian 16 at Wed Sep 18 18:37:39 2019.
