 Gaussian 16, Revision A.03,
 Gaussian 16:  ES64L-G16RevA.03 25-Dec-2016

 ----------------------------------------------------------------------
 #b3lyp/svp scf=(tight,noincore) Test #IOP(5/87=12) Density=Current Pop
 =(MK,readradii) iop(6/33=2) iop(6/42=6)
 ----------------------------------------------------------------------

 ----------------
 Ng-31_loop3_41.0
 ----------------
 Symbolic Z-matrix:
 Charge =  0 Multiplicity = 1

                         Standard orientation:
 ---------------------------------------------------------------------
 Center     Atomic      Atomic             Coordinates (Angstroms)
 Number     Number       Type             X           Y           Z
 ---------------------------------------------------------------------
      1          6           0        5.830508   -3.957746    4.889564
      2          6           0        5.249012   -2.910502    3.943761
      3          8           0        4.053737   -2.644734    3.820133
      4          1           0        5.020780   -4.446087    5.432586
      5          1           0        6.381824   -4.701704    4.314494
      6          1           0        6.502911   -3.474682    5.598522
      7          7           0        6.165660   -2.260939    3.218900
      8          6           0        5.968018   -1.355466    2.100885
      9          6           0        5.044820   -1.821545    0.979022
     10          8           0        4.414468   -0.977417    0.352840
     11          6           0        7.357990   -0.977323    1.595329
     12          6           0        8.103038   -2.207079    1.101362
     13          8           0        8.824229   -2.068968    0.090121
     14          8           0        7.980051   -3.345532    1.590237
     15          1           0        7.103004   -2.624536    3.269717
     16          1           0        5.438148   -0.443532    2.383221
     17          1           0        7.800399   -0.480737    2.456594
     18          1           0        7.293564   -0.225046    0.804553
     19          7           0        5.111982   -3.116372    0.665158
     20          6           0        4.253019   -3.730241   -0.327741
     21          6           0        4.540862   -3.344441   -1.780636
     22          8           0        5.674708   -3.509362   -2.214912
     23          6           0        4.347945   -5.223933   -0.067600
     24          6           0        3.685569   -5.694351    1.229846
     25          6           0        3.615658   -7.224950    1.287091
     26          6           0        3.087007   -7.717388    2.630718
     27          7           0        1.616429   -7.751574    2.546276
     28          1           0        5.707891   -3.730432    1.197628
     29          1           0        3.255134   -3.363895   -0.078513
     30          1           0        5.383027   -5.548260    0.041572
     31          1           0        3.791428   -5.800908   -0.812173
     32          1           0        2.712711   -5.252167    1.434103
     33          1           0        4.373240   -5.339508    2.001918
     34          1           0        4.568253   -7.736529    1.208028
     35          1           0        2.946853   -7.632275    0.539304
     36          1           0        3.364596   -7.096688    3.480585
     37          1           0        3.484559   -8.716439    2.839404
     38          1           0        1.373489   -8.125789    1.642150
     39          1           0        1.168703   -8.297758    3.266154
     40          1           0        1.346759   -6.790254    2.692023
     41          7           0        3.580345   -2.692764   -2.430346
     42          6           0        3.766428   -1.963422   -3.662959
     43          6           0        3.762404   -0.452425   -3.478648
     44          8           0        3.606550    0.287317   -4.443734
     45          6           0        2.724349   -2.374117   -4.708665
     46          6           0        1.240437   -2.238284   -4.407080
     47          8           0        0.532207   -1.776620   -5.325762
     48          8           0        0.805423   -2.513549   -3.272183
     49          1           0        2.718403   -2.523299   -1.921586
     50          1           0        4.752602   -2.142713   -4.083572
     51          1           0        2.926971   -3.443940   -4.785624
     52          1           0        2.891222   -1.812512   -5.629997
     53          7           0        4.096202    0.056231   -2.292794
     54          6           0        4.162186    1.444674   -1.875934
     55          6           0        4.996596    2.414887   -2.683984
     56          8           0        6.068417    2.068143   -3.174769
     57          1           0        4.325698   -0.609226   -1.566159
     58          1           0        4.408198    1.609652   -0.829292
     59          1           0        3.118483    1.759359   -1.912769
     60          7           0        4.613292    3.698882   -2.724432
     61          6           0        3.384393    4.343432   -2.308065
     62          6           0        3.727087    5.625725   -1.573772
     63          8           0        3.786591    6.713557   -2.143315
     64          6           0        2.657392    4.718377   -3.601350
     65          6           0        2.029098    3.606086   -4.425823
     66          7           0        1.117335    2.842572   -3.819246
     67          8           0        2.193418    3.386185   -5.625799
     68          1           0        5.254067    4.318880   -3.212397
     69          1           0        2.733564    3.715321   -1.710405
     70          1           0        3.348956    5.279099   -4.232168
     71          1           0        1.806884    5.302260   -3.272387
     72          1           0        0.705260    3.000849   -2.909993
     73          1           0        0.575523    2.258330   -4.434471
     74          7           0        4.151788    5.557752   -0.304635
     75          6           0        4.305218    4.367832    0.504778
     76          6           0        3.045968    3.633126    0.957656
     77          8           0        2.996614    2.414206    1.067185
     78          1           0        4.330130    6.381251    0.249390
     79          1           0        4.667634    4.732049    1.467431
     80          1           0        4.984865    3.659353    0.035164
     81          7           0        1.949422    4.389871    1.085414
     82          6           0        0.599002    4.008320    1.429340
     83          6           0       -0.082084    3.316023    0.256418
     84          8           0        0.525975    3.367461   -0.817183
     85          6           0       -0.101660    5.142781    2.156436
     86          6           0        0.551706    5.531039    3.463865
     87          6           0        0.136171    4.964250    4.678353
     88          6           0        1.780111    6.193006    3.516019
     89          6           0        0.821642    5.120725    5.884067
     90          6           0        2.453482    6.433453    4.723188
     91          6           0        2.026003    5.855324    5.943035
     92          8           0        2.647550    6.117445    7.117885
     93          1           0        2.001797    5.361939    0.814782
     94          1           0        0.760431    3.209296    2.150798
     95          1           0       -1.148720    4.896437    2.305705
     96          1           0       -0.069066    6.009335    1.487840
     97          1           0       -0.837350    4.479672    4.618011
     98          1           0        2.299511    6.516537    2.634004
     99          1           0        0.385014    4.775009    6.810316
    100          1           0        3.322767    7.070744    4.725104
    101          1           0        3.429894    6.667381    7.039736
    102          7           0       -1.225231    2.680486    0.487517
    103          6           0       -1.871546    1.728516   -0.392386
    104          6           0       -3.286960    2.072664   -0.822111
    105          8           0       -3.816310    1.488723   -1.763441
    106          6           0       -1.751247    0.293594    0.123298
    107          6           0       -0.311667   -0.095095    0.437991
    108          6           0       -2.615320    0.166364    1.380234
    109          6           0        0.641108   -0.208610   -0.757515
    110          1           0       -1.577698    2.725162    1.438501
    111          1           0       -1.359895    1.723603   -1.352277
    112          1           0       -2.102935   -0.406148   -0.629814
    113          1           0       -0.389924   -1.108624    0.824429
    114          1           0        0.048116    0.470575    1.298615
    115          1           0       -2.472644   -0.855323    1.738003
    116          1           0       -2.268249    0.906565    2.096715
    117          1           0       -3.666376    0.261958    1.143287
    118          1           0        1.637215   -0.496680   -0.453236
    119          1           0        0.216727   -0.859246   -1.512745
    120          1           0        0.731318    0.822530   -1.098710
    121          7           0       -3.868888    3.104841   -0.214765
    122          6           0       -5.170462    3.602870   -0.606265
    123          6           0       -6.303175    2.686491   -0.162518
    124          8           0       -6.374883    2.261013    0.979071
    125          6           0       -5.401858    5.060929   -0.219717
    126          8           0       -4.359382    5.907062   -0.658698
    127          1           0       -3.474652    3.298228    0.699883
    128          1           0       -5.234861    3.631539   -1.696692
    129          1           0       -5.431753    5.171264    0.861408
    130          1           0       -6.322149    5.365560   -0.711819
    131          1           0       -4.443934    6.838740   -0.424335
    132          7           0       -7.282937    2.551420   -1.064529
    133          6           0       -8.476579    1.771992   -0.783975
    134          6           0       -8.318695    0.274009   -0.989687
    135          8           0       -7.449132   -0.195307   -1.724127
    136          6           0       -9.551274    2.441609   -1.631528
    137          1           0       -7.272935    3.056167   -1.933339
    138          1           0       -8.808885    1.870511    0.251238
    139          1           0       -9.188175    2.437893   -2.658731
    140          1           0      -10.492656    1.898809   -1.500880
    141          1           0       -9.646786    3.510416   -1.429963
    142          7           0       -9.168700   -0.531157   -0.352270
    143          6           0       -9.306315   -1.962566   -0.534561
    144          6           0       -8.074801   -2.761426   -0.133443
    145          8           0       -7.658012   -3.633614   -0.900890
    146          6           0       -9.942421   -2.319003   -1.885458
    147          1           0       -9.934226   -0.150588    0.183675
    148          1           0      -10.043084   -2.220057    0.226668
    149          1           0      -10.871438   -1.742598   -1.915215
    150          1           0       -9.338229   -2.128550   -2.766809
    151          1           0      -10.100775   -3.391652   -1.914578
    152          7           0       -7.544630   -2.622707    1.080426
    153          6           0       -6.485668   -3.464872    1.583770
    154          6           0       -6.329798   -3.449658    3.101523
    155          8           0       -6.115828   -4.493844    3.701183
    156          6           0       -5.139762   -3.027310    0.993790
    157          6           0       -4.323541   -4.307656    0.849930
    158          6           0       -2.927226   -4.026183    0.340541
    159          8           0       -2.027657   -3.811031    1.177312
    160          8           0       -2.635257   -4.096444   -0.874044
    161          1           0       -7.935804   -1.932532    1.706398
    162          1           0       -6.711433   -4.493014    1.312008
    163          1           0       -4.621718   -2.289175    1.601809
    164          1           0       -5.181447   -2.608743   -0.004640
    165          1           0       -4.832558   -4.920528    0.097940
    166          1           0       -4.264294   -4.742816    1.852390
    167          7           0       -6.476048   -2.283957    3.749560
    168          6           0       -6.476394   -1.999043    5.172664
    169          1           0       -7.291338   -2.542277    5.651345
    170          1           0       -5.527167   -2.313029    5.606833
    171          1           0       -6.612604   -0.928661    5.329775
    172          1           0       -6.774180   -1.481678    3.215457
    173         20           0       -0.614944   -4.285500   -2.357981
    174          8           0       -2.151598   -2.683235   -3.828879
    175          1           0       -1.828923   -2.661705   -4.724824
    176          1           0       -2.922570   -2.120222   -3.833290
 ---------------------------------------------------------------------

 SCF Done:  E(RB3LYP) =  -5333.31950596     A.U. after   44 cycles

 The electronic state is 1-A.
 Alpha  occ. eigenvalues -- -145.47256 -19.17817 -19.15628 -19.14203 -19.11548
 Alpha  occ. eigenvalues --  -19.11396 -19.10646 -19.10205 -19.09545 -19.09405
 Alpha  occ. eigenvalues --  -19.09303 -19.08567 -19.08170 -19.07863 -19.07578
 Alpha  occ. eigenvalues --  -19.07140 -19.06801 -19.04832 -19.04119 -19.03724
 Alpha  occ. eigenvalues --  -19.03102 -19.03049 -19.00893 -18.99581 -15.53229
 Alpha  occ. eigenvalues --  -14.58665 -14.37905 -14.37766 -14.37437 -14.36965
 Alpha  occ. eigenvalues --  -14.36513 -14.36215 -14.35613 -14.35447 -14.33588
 Alpha  occ. eigenvalues --  -14.33333 -14.31761 -14.31374 -14.29164 -14.28382
 Alpha  occ. eigenvalues --  -12.66846 -12.66794 -12.66718 -10.35399 -10.30054
 Alpha  occ. eigenvalues --  -10.29863 -10.29655 -10.29224 -10.28775 -10.28670
 Alpha  occ. eigenvalues --  -10.28191 -10.28012 -10.27503 -10.26751 -10.26048
 Alpha  occ. eigenvalues --  -10.26026 -10.25931 -10.25825 -10.25609 -10.25316
 Alpha  occ. eigenvalues --  -10.25053 -10.24766 -10.24667 -10.24452 -10.24429
 Alpha  occ. eigenvalues --  -10.24004 -10.23461 -10.23343 -10.23284 -10.23159
 Alpha  occ. eigenvalues --  -10.22789 -10.22721 -10.22286 -10.22189 -10.22114
 Alpha  occ. eigenvalues --  -10.21940 -10.21374 -10.20593 -10.20572 -10.20536
 Alpha  occ. eigenvalues --  -10.20183 -10.20076 -10.19554 -10.19544 -10.19463
 Alpha  occ. eigenvalues --  -10.18979 -10.18704 -10.17996 -10.17746 -10.17610
 Alpha  occ. eigenvalues --  -10.17003 -10.16368 -10.15562 -10.15441 -10.14569
 Alpha  occ. eigenvalues --  -10.14224 -10.13977  -1.89996  -1.17632  -1.17242
 Alpha  occ. eigenvalues --   -1.16753  -1.14334  -1.06447  -1.04963  -1.04328
 Alpha  occ. eigenvalues --   -1.03932  -1.03487  -1.02699  -1.02441  -1.02371
 Alpha  occ. eigenvalues --   -1.02072  -1.01751  -1.01712  -1.01325  -1.00940
 Alpha  occ. eigenvalues --   -1.00583  -0.99957  -0.99592  -0.97363  -0.96281
 Alpha  occ. eigenvalues --   -0.96050  -0.95331  -0.94804  -0.94488  -0.94135
 Alpha  occ. eigenvalues --   -0.93627  -0.93102  -0.92392  -0.92134  -0.91588
 Alpha  occ. eigenvalues --   -0.91538  -0.90416  -0.90217  -0.89910  -0.89595
 Alpha  occ. eigenvalues --   -0.88737  -0.88574  -0.86233  -0.85310  -0.84285
 Alpha  occ. eigenvalues --   -0.83149  -0.82270  -0.81780  -0.81202  -0.79916
 Alpha  occ. eigenvalues --   -0.79745  -0.78105  -0.77034  -0.76703  -0.75469
 Alpha  occ. eigenvalues --   -0.75466  -0.75167  -0.74954  -0.74691  -0.73849
 Alpha  occ. eigenvalues --   -0.73833  -0.72924  -0.72503  -0.71781  -0.70703
 Alpha  occ. eigenvalues --   -0.70231  -0.70165  -0.69118  -0.68922  -0.68765
 Alpha  occ. eigenvalues --   -0.67380  -0.66949  -0.66033  -0.65067  -0.64427
 Alpha  occ. eigenvalues --   -0.63385  -0.63353  -0.62946  -0.62437  -0.62120
 Alpha  occ. eigenvalues --   -0.61929  -0.61344  -0.61110  -0.60872  -0.60570
 Alpha  occ. eigenvalues --   -0.60067  -0.59992  -0.59084  -0.59044  -0.58996
 Alpha  occ. eigenvalues --   -0.58709  -0.57336  -0.56730  -0.56679  -0.56605
 Alpha  occ. eigenvalues --   -0.56438  -0.56222  -0.55674  -0.55028  -0.54440
 Alpha  occ. eigenvalues --   -0.54414  -0.54125  -0.53643  -0.53606  -0.52746
 Alpha  occ. eigenvalues --   -0.52560  -0.52303  -0.51889  -0.51749  -0.51267
 Alpha  occ. eigenvalues --   -0.51168  -0.50823  -0.50760  -0.50495  -0.50364
 Alpha  occ. eigenvalues --   -0.49567  -0.49455  -0.49261  -0.49196  -0.48881
 Alpha  occ. eigenvalues --   -0.48778  -0.48539  -0.48154  -0.48052  -0.47886
 Alpha  occ. eigenvalues --   -0.47766  -0.47703  -0.47025  -0.46632  -0.46558
 Alpha  occ. eigenvalues --   -0.46508  -0.46142  -0.45824  -0.45593  -0.45537
 Alpha  occ. eigenvalues --   -0.45357  -0.45188  -0.44937  -0.44755  -0.44458
 Alpha  occ. eigenvalues --   -0.44137  -0.44015  -0.43914  -0.43804  -0.43606
 Alpha  occ. eigenvalues --   -0.43326  -0.43294  -0.42964  -0.42934  -0.42765
 Alpha  occ. eigenvalues --   -0.42680  -0.42529  -0.42472  -0.42358  -0.42279
 Alpha  occ. eigenvalues --   -0.42168  -0.42059  -0.41866  -0.41773  -0.41636
 Alpha  occ. eigenvalues --   -0.41286  -0.41179  -0.40855  -0.40772  -0.40559
 Alpha  occ. eigenvalues --   -0.40518  -0.40475  -0.40323  -0.40211  -0.39975
 Alpha  occ. eigenvalues --   -0.39794  -0.39663  -0.39384  -0.39314  -0.39245
 Alpha  occ. eigenvalues --   -0.39184  -0.39140  -0.39083  -0.38762  -0.38732
 Alpha  occ. eigenvalues --   -0.38510  -0.38335  -0.38332  -0.38137  -0.38070
 Alpha  occ. eigenvalues --   -0.38036  -0.37902  -0.37743  -0.37665  -0.37589
 Alpha  occ. eigenvalues --   -0.37169  -0.37141  -0.37003  -0.36688  -0.36587
 Alpha  occ. eigenvalues --   -0.36387  -0.36297  -0.35880  -0.35674  -0.35294
 Alpha  occ. eigenvalues --   -0.34937  -0.34855  -0.34696  -0.34469  -0.34261
 Alpha  occ. eigenvalues --   -0.34197  -0.34134  -0.33966  -0.33782  -0.33766
 Alpha  occ. eigenvalues --   -0.33535  -0.33411  -0.33192  -0.33038  -0.32659
 Alpha  occ. eigenvalues --   -0.32349  -0.32075  -0.31373  -0.31210  -0.30931
 Alpha  occ. eigenvalues --   -0.29981  -0.29896  -0.29364  -0.29344  -0.28934
 Alpha  occ. eigenvalues --   -0.28581  -0.28404  -0.28087  -0.27540  -0.27503
 Alpha  occ. eigenvalues --   -0.27300  -0.26861  -0.26713  -0.26136  -0.25999
 Alpha  occ. eigenvalues --   -0.25791  -0.25782  -0.25736  -0.25407  -0.25047
 Alpha  occ. eigenvalues --   -0.24855  -0.24516  -0.24480  -0.24247  -0.23881
 Alpha  occ. eigenvalues --   -0.23853  -0.23761  -0.23731  -0.23250  -0.23133
 Alpha  occ. eigenvalues --   -0.22436  -0.22004  -0.21059  -0.20897  -0.20564
 Alpha  occ. eigenvalues --   -0.20546  -0.19935  -0.19071  -0.18891  -0.18414
 Alpha  occ. eigenvalues --   -0.17772  -0.17377  -0.14039
 Alpha virt. eigenvalues --   -0.12920  -0.10485  -0.05659  -0.04435  -0.02676
 Alpha virt. eigenvalues --   -0.02050  -0.01775  -0.01643  -0.01072  -0.00360
 Alpha virt. eigenvalues --    0.00186   0.00284   0.00532   0.00733   0.00871

 Mulliken charges:
               1
     1  C    0.039431
     2  C   -0.007410
     3  O   -0.304811
     4  H   -0.008049
     5  H    0.028282
     6  H    0.040770
     7  N   -0.102160
     8  C    0.076667
     9  C    0.108615
    10  O   -0.281939
    11  C    0.053083
    12  C    0.060492
    13  O   -0.291079
    14  O   -0.375798
    15  H    0.102109
    16  H    0.008245
    17  H    0.005778
    18  H    0.022403
    19  N   -0.124201
    20  C    0.161964
    21  C    0.066099
    22  O   -0.247292
    23  C    0.014033
    24  C   -0.003452
    25  C   -0.025153
    26  C    0.027130
    27  N    0.075655
    28  H    0.129031
    29  H   -0.035207
    30  H    0.055403
    31  H   -0.028729
    32  H   -0.009230
    33  H    0.030203
    34  H    0.054188
    35  H   -0.009737
    36  H    0.084708
    37  H    0.071901
    38  H    0.178782
    39  H    0.190283
    40  H    0.205628
    41  N   -0.149783
    42  C    0.111223
    43  C    0.040022
    44  O   -0.260817
    45  C    0.109152
    46  C    0.084900
    47  O   -0.320954
    48  O   -0.504322
    49  H    0.119894
    50  H    0.052057
    51  H   -0.033099
    52  H    0.041901
    53  N   -0.115973
    54  C    0.155837
    55  C    0.049720
    56  O   -0.256615
    57  H    0.133735
    58  H    0.043718
    59  H    0.011025
    60  N   -0.131061
    61  C   -0.013386
    62  C    0.068145
    63  O   -0.253261
    64  C    0.159377
    65  C    0.008480
    66  N   -0.079190
    67  O   -0.248485
    68  H    0.124787
    69  H    0.053260
    70  H    0.008977
    71  H   -0.002148
    72  H    0.106695
    73  H    0.122295
    74  N   -0.135162
    75  C    0.190272
    76  C    0.020911
    77  O   -0.243531
    78  H    0.119324
    79  H    0.025324
    80  H    0.047692
    81  N   -0.138419
    82  C    0.089029
    83  C    0.129006
    84  O   -0.263102
    85  C    0.143031
    86  C    0.003791
    87  C   -0.004936
    88  C   -0.014767
    89  C   -0.005908
    90  C   -0.050897
    91  C    0.173635
    92  O   -0.185764
    93  H    0.110712
    94  H    0.015290
    95  H   -0.022818
    96  H    0.002717
    97  H   -0.034341
    98  H   -0.062157
    99  H   -0.021043
   100  H   -0.045835
   101  H    0.181680
   102  N   -0.126989
   103  C    0.121362
   104  C    0.060379
   105  O   -0.265870
   106  C   -0.099765
   107  C   -0.000151
   108  C    0.039222
   109  C    0.008875
   110  H    0.127299
   111  H    0.041511
   112  H    0.006187
   113  H   -0.010974
   114  H   -0.014711
   115  H    0.042155
   116  H   -0.038218
   117  H    0.025624
   118  H    0.026713
   119  H    0.016200
   120  H    0.020799
   121  N   -0.097281
   122  C    0.080174
   123  C    0.096984
   124  O   -0.283332
   125  C    0.277043
   126  O   -0.323004
   127  H    0.098753
   128  H    0.005043
   129  H   -0.015125
   130  H   -0.021146
   131  H    0.175440
   132  N   -0.113470
   133  C    0.072625
   134  C    0.090926
   135  O   -0.245788
   136  C    0.035503
   137  H    0.125764
   138  H   -0.001043
   139  H    0.020276
   140  H    0.014968
   141  H    0.027857
   142  N   -0.140264
   143  C    0.036922
   144  C    0.100419
   145  O   -0.273925
   146  C    0.097285
   147  H    0.108497
   148  H   -0.002511
   149  H   -0.011536
   150  H    0.042520
   151  H    0.019279
   152  N   -0.101089
   153  C    0.113519
   154  C    0.037957
   155  O   -0.255402
   156  C    0.022550
   157  C    0.081858
   158  C    0.083403
   159  O   -0.372918
   160  O   -0.490942
   161  H    0.086443
   162  H    0.017354
   163  H    0.001520
   164  H    0.031432
   165  H   -0.003351
   166  H    0.000144
   167  N   -0.159547
   168  C    0.128055
   169  H    0.027302
   170  H    0.040280
   171  H    0.022508
   172  H    0.109155
   173  Ca   1.252354
   174  O   -0.308990
   175  H    0.165180
   176  H    0.197242
 Sum of Mulliken charges =  -0.00000

 Dipole moment (field-independent basis, Debye):
    X=            -28.0427    Y=            -17.6851    Z=             23.4563  Tot=             40.6122
 Quadrupole moment (field-independent basis, Debye-Ang):
   XX=           -654.3831   YY=           -272.8130   ZZ=           -611.2811
   XY=            -63.4850   XZ=             82.9979   YZ=             12.7430

 ESP charges:
               1
     1  C   -0.481207
     2  C    0.744105
     3  O   -0.624953
     4  H    0.100917
     5  H    0.118568
     6  H    0.139333
     7  N   -0.645001
     8  C    0.355381
     9  C    0.538939
    10  O   -0.600388
    11  C   -0.426102
    12  C    0.741355
    13  O   -0.582380
    14  O   -0.695946
    15  H    0.303600
    16  H    0.012656
    17  H    0.099429
    18  H    0.120212
    19  N   -0.361932
    20  C   -0.092176
    21  C    0.688940
    22  O   -0.526269
    23  C   -0.270516
    24  C    0.112122
    25  C   -0.119277
    26  C    0.221611
    27  N   -0.524218
    28  H    0.323509
    29  H    0.103676
    30  H    0.142796
    31  H    0.039506
    32  H   -0.018732
    33  H    0.003079
    34  H    0.088399
    35  H    0.019327
    36  H    0.038206
    37  H    0.038173
    38  H    0.341315
    39  H    0.374174
    40  H    0.374797
    41  N   -0.766040
    42  C    0.559079
    43  C    0.492950
    44  O   -0.488665
    45  C   -0.463341
    46  C    0.757766
    47  O   -0.602943
    48  O   -0.720106
    49  H    0.277153
    50  H    0.011808
    51  H    0.054746
    52  H    0.112413
    53  N   -0.770392
    54  C    0.268547
    55  C    0.565903
    56  O   -0.527285
    57  H    0.446720
    58  H    0.008592
    59  H    0.163921
    60  N   -0.764179
    61  C    1.196387
    62  C    0.278735
    63  O   -0.515035
    64  C   -0.546241
    65  C    0.785619
    66  N   -0.852793
    67  O   -0.574996
    68  H    0.329720
    69  H   -0.570793
    70  H    0.099417
    71  H    0.098498
    72  H    0.336187
    73  H    0.382312
    74  N   -0.389345
    75  C   -0.149841
    76  C    0.453902
    77  O   -0.479576
    78  H    0.303076
    79  H    0.109039
    80  H    0.097597
    81  N   -0.273479
    82  C    0.133979
    83  C    0.423810
    84  O   -0.353173
    85  C   -0.368327
    86  C    0.137225
    87  C   -0.189789
    88  C   -0.168087
    89  C   -0.215727
    90  C   -0.317075
    91  C    0.389732
    92  O   -0.546737
    93  H    0.225840
    94  H    0.087941
    95  H    0.119899
    96  H    0.113199
    97  H    0.120567
    98  H    0.131584
    99  H    0.152420
   100  H    0.143068
   101  H    0.419652
   102  N   -0.363168
   103  C   -0.577394
   104  C    0.911003
   105  O   -0.609722
   106  C    0.176848
   107  C    0.142575
   108  C   -0.402636
   109  C   -0.157788
   110  H    0.308975
   111  H    0.199943
   112  H    0.081849
   113  H   -0.036162
   114  H   -0.020518
   115  H    0.139381
   116  H    0.075332
   117  H    0.082842
   118  H    0.054144
   119  H    0.039864
   120  H    0.050061
   121  N   -0.581270
   122  C    0.180784
   123  C    0.598657
   124  O   -0.556733
   125  C    0.138306
   126  O   -0.623009
   127  H    0.312510
   128  H    0.073689
   129  H    0.018236
   130  H    0.017812
   131  H    0.418313
   132  N   -0.799311
   133  C    0.514326
   134  C    0.463544
   135  O   -0.469839
   136  C   -0.382312
   137  H    0.381768
   138  H   -0.036195
   139  H    0.099052
   140  H    0.079739
   141  H    0.109675
   142  N   -0.574070
   143  C    0.303061
   144  C    0.475280
   145  O   -0.486895
   146  C   -0.404062
   147  H    0.297829
   148  H    0.020118
   149  H    0.096505
   150  H    0.145636
   151  H    0.097984
   152  N   -0.329415
   153  C   -0.498427
   154  C    0.767682
   155  O   -0.568022
   156  C    0.403424
   157  C   -0.301421
   158  C    0.690814
   159  O   -0.674145
   160  O   -0.751252
   161  H    0.173398
   162  H    0.201051
   163  H   -0.115239
   164  H    0.046498
   165  H    0.054566
   166  H    0.068528
   167  N   -0.347753
   168  C   -0.249546
   169  H    0.103211
   170  H    0.122335
   171  H    0.116942
   172  H    0.299969
   173  Ca   1.334175
   174  O   -0.749287
   175  H    0.364766
   176  H    0.422528
 Sum of ESP charges =   0.00000

 Normal termination of Gaussian 16 at Wed Sep 18 19:37:35 2019.
