 Gaussian 16, Revision A.03,
 Gaussian 16:  ES64L-G16RevA.03 25-Dec-2016

 ----------------------------------------------------------------------
 #b3lyp/svp scf=(tight,noincore) Test #IOP(5/87=12) Density=Current Pop
 =(MK,readradii) iop(6/33=2) iop(6/42=6)
 ----------------------------------------------------------------------

 ---------------
 Ng-31_loop3_7.0
 ---------------
 Symbolic Z-matrix:
 Charge =  0 Multiplicity = 1

                         Standard orientation:
 ---------------------------------------------------------------------
 Center     Atomic      Atomic             Coordinates (Angstroms)
 Number     Number       Type             X           Y           Z
 ---------------------------------------------------------------------
      1          6           0        6.307070   -3.723311    3.875124
      2          6           0        6.344661   -2.414476    3.102442
      3          8           0        5.381323   -1.645825    3.081119
      4          1           0        5.513866   -4.356181    3.477819
      5          1           0        7.264849   -4.234593    3.772726
      6          1           0        6.114799   -3.518549    4.928094
      7          7           0        7.423765   -2.305901    2.324593
      8          6           0        7.636597   -1.181224    1.426706
      9          6           0        7.057866   -1.393130    0.030652
     10          8           0        6.800963   -2.504494   -0.422638
     11          6           0        9.090015   -0.755839    1.306596
     12          6           0       10.158779   -1.765581    0.916385
     13          8           0       11.206614   -1.405692    0.330535
     14          8           0        9.989905   -2.981474    1.168945
     15          1           0        8.135714   -2.995761    2.521118
     16          1           0        7.108129   -0.341254    1.874000
     17          1           0        9.401354   -0.381308    2.280092
     18          1           0        9.217670    0.127600    0.686645
     19          7           0        6.844455   -0.341347   -0.759985
     20          6           0        6.594141   -0.494298   -2.177641
     21          6           0        5.147775   -0.567744   -2.633196
     22          8           0        4.833503   -0.351788   -3.798828
     23          6           0        7.446570    0.436484   -3.042054
     24          6           0        8.967855    0.340667   -2.937123
     25          6           0        9.421335   -0.808789   -3.836849
     26          6           0       10.886050   -1.164183   -3.569069
     27          7           0       10.965655   -1.980183   -2.345302
     28          1           0        7.038773    0.545922   -0.328251
     29          1           0        6.998242   -1.492401   -2.359555
     30          1           0        7.112399    1.459162   -2.891857
     31          1           0        7.225397    0.150425   -4.069795
     32          1           0        9.145138    0.162012   -1.877522
     33          1           0        9.353686    1.282627   -3.314544
     34          1           0        9.333059   -0.432640   -4.846710
     35          1           0        8.782980   -1.689900   -3.757805
     36          1           0       11.487028   -0.252963   -3.467568
     37          1           0       11.286676   -1.714211   -4.414095
     38          1           0       10.261407   -2.705284   -2.397861
     39          1           0       11.854846   -2.447848   -2.282626
     40          1           0       10.919950   -1.452322   -1.488462
     41          7           0        4.282932   -0.942592   -1.690150
     42          6           0        2.879188   -1.159325   -1.976731
     43          6           0        2.040368    0.096588   -1.853587
     44          8           0        0.894780    0.186349   -2.295141
     45          6           0        2.322445   -2.288002   -1.115031
     46          6           0        2.862144   -2.359215    0.312958
     47          8           0        2.909587   -3.457687    0.906429
     48          8           0        3.177280   -1.329327    0.929253
     49          1           0        4.631431   -1.174780   -0.770618
     50          1           0        2.728594   -1.513909   -2.993388
     51          1           0        2.639110   -3.210947   -1.601750
     52          1           0        1.238803   -2.386201   -1.146301
     53          7           0        2.479383    1.106584   -1.102539
     54          6           0        1.785243    2.313897   -0.685447
     55          6           0        2.030348    2.846414    0.712140
     56          8           0        2.303051    2.001728    1.557503
     57          1           0        3.321384    0.852561   -0.609480
     58          1           0        0.711362    2.149921   -0.752467
     59          1           0        1.998916    3.096512   -1.420877
     60          7           0        1.932789    4.135807    1.076760
     61          6           0        1.375525    5.214961    0.290133
     62          6           0        0.538253    6.108153    1.201332
     63          8           0        1.124800    6.641638    2.144919
     64          6           0        2.515096    5.881947   -0.460872
     65          6           0        2.113717    6.704355   -1.689180
     66          7           0        2.695906    6.564829   -2.884667
     67          8           0        1.300626    7.598297   -1.477634
     68          1           0        2.285563    4.466865    1.959739
     69          1           0        0.673044    4.675631   -0.330305
     70          1           0        3.385580    5.248592   -0.671870
     71          1           0        2.890701    6.612811    0.249381
     72          1           0        3.194148    5.696357   -3.036031
     73          1           0        2.505215    7.245369   -3.607026
     74          7           0       -0.702030    6.513170    0.911919
     75          6           0       -1.494327    6.140571   -0.243994
     76          6           0       -2.106419    4.741649   -0.114144
     77          8           0       -1.483249    3.871721    0.481747
     78          1           0       -1.114714    7.166027    1.567259
     79          1           0       -0.892607    6.221772   -1.146567
     80          1           0       -2.316931    6.841626   -0.379441
     81          7           0       -3.328928    4.499223   -0.594874
     82          6           0       -4.135729    3.298255   -0.482404
     83          6           0       -5.036862    2.991911   -1.672451
     84          8           0       -5.642295    3.846515   -2.313625
     85          6           0       -5.063362    3.386447    0.718812
     86          6           0       -4.363733    3.537325    2.050373
     87          6           0       -3.945760    2.424469    2.793845
     88          6           0       -4.193982    4.772643    2.688162
     89          6           0       -3.298439    2.472708    4.031443
     90          6           0       -3.573024    4.878852    3.937774
     91          6           0       -3.097015    3.730330    4.614466
     92          8           0       -2.496010    3.780366    5.833314
     93          1           0       -3.931384    5.286909   -0.748489
     94          1           0       -3.436754    2.453528   -0.466012
     95          1           0       -5.618877    2.450256    0.795942
     96          1           0       -5.807577    4.178473    0.574451
     97          1           0       -4.165424    1.455274    2.368865
     98          1           0       -4.555205    5.584904    2.079681
     99          1           0       -2.989466    1.589178    4.586159
    100          1           0       -3.556506    5.839687    4.431762
    101          1           0       -2.146596    4.622240    6.133578
    102          7           0       -5.138107    1.688519   -1.931330
    103          6           0       -6.042402    1.030818   -2.864593
    104          6           0       -7.158618    0.296589   -2.145727
    105          8           0       -8.185591   -0.034727   -2.733993
    106          6           0       -5.275707    0.260179   -3.931033
    107          6           0       -4.178162    1.095107   -4.594124
    108          6           0       -4.563206   -0.887522   -3.230445
    109          6           0       -3.435244    0.461166   -5.764718
    110          1           0       -4.627373    1.000044   -1.392300
    111          1           0       -6.466713    1.892087   -3.381871
    112          1           0       -6.090449    0.050439   -4.631893
    113          1           0       -3.430766    1.304972   -3.833560
    114          1           0       -4.502457    2.073677   -4.941879
    115          1           0       -4.326934   -1.599481   -4.021008
    116          1           0       -3.620378   -0.518079   -2.835998
    117          1           0       -5.149020   -1.445414   -2.498202
    118          1           0       -2.520620    0.986396   -6.058991
    119          1           0       -3.157096   -0.570622   -5.569404
    120          1           0       -4.105550    0.528473   -6.619797
    121          7           0       -7.078257    0.050484   -0.831849
    122          6           0       -8.070026   -0.688188   -0.084817
    123          6           0       -8.017628   -2.192860   -0.283860
    124          8           0       -9.002440   -2.836280    0.060458
    125          6           0       -7.887133   -0.223409    1.353283
    126          8           0       -6.748172   -0.775635    1.964197
    127          1           0       -6.293534    0.456050   -0.326056
    128          1           0       -9.019755   -0.359176   -0.501908
    129          1           0       -8.788751   -0.476508    1.902852
    130          1           0       -7.956856    0.874851    1.369487
    131          1           0       -5.969527   -0.556155    1.448503
    132          7           0       -6.898103   -2.696169   -0.825565
    133          6           0       -6.859237   -4.059949   -1.276335
    134          6           0       -5.419642   -4.520916   -1.095293
    135          8           0       -4.472430   -3.769712   -1.309731
    136          6           0       -7.286274   -4.193835   -2.740956
    137          1           0       -6.022389   -2.188165   -0.897376
    138          1           0       -7.449367   -4.698094   -0.615791
    139          1           0       -6.499250   -3.799410   -3.383235
    140          1           0       -7.426619   -5.265490   -2.897029
    141          1           0       -8.188232   -3.615637   -2.932161
    142          7           0       -5.228429   -5.763604   -0.630789
    143          6           0       -4.028486   -6.522720   -0.361016
    144          6           0       -2.915934   -5.784602    0.374858
    145          8           0       -1.865350   -6.379448    0.581330
    146          6           0       -3.611799   -7.207355   -1.653281
    147          1           0       -6.088419   -6.201083   -0.340394
    148          1           0       -4.237842   -7.225082    0.446113
    149          1           0       -3.554813   -6.404022   -2.399679
    150          1           0       -2.753521   -7.876811   -1.666927
    151          1           0       -4.467197   -7.855110   -1.853052
    152          7           0       -3.015454   -4.581145    0.933414
    153          6           0       -1.871768   -3.814008    1.397832
    154          6           0       -1.769973   -3.838849    2.914645
    155          8           0       -0.768597   -3.425895    3.493967
    156          6           0       -1.884579   -2.458148    0.695494
    157          6           0       -2.945003   -1.552805    1.316424
    158          6           0       -3.436395   -0.435713    0.408053
    159          8           0       -2.610004    0.077772   -0.389387
    160          8           0       -4.644244   -0.146807    0.475385
    161          1           0       -3.924115   -4.153709    0.872309
    162          1           0       -0.950366   -4.307155    1.079833
    163          1           0       -2.059827   -2.559288   -0.374627
    164          1           0       -0.914559   -1.983583    0.808854
    165          1           0       -2.705010   -1.133416    2.299794
    166          1           0       -3.893597   -2.063287    1.440027
    167          7           0       -2.938905   -4.145928    3.479357
    168          6           0       -3.260033   -4.258530    4.891128
    169          1           0       -3.018052   -5.262872    5.239213
    170          1           0       -2.678911   -3.529414    5.455678
    171          1           0       -4.322767   -4.069524    5.038949
    172          1           0       -3.620749   -4.550896    2.863493
    173         20           0        3.363085    0.153021    3.037990
    174          8           0        5.441124    1.497089    2.103038
    175          1           0        5.390536    1.860060    1.222815
    176          1           0        5.512410    2.265341    2.672606
 ---------------------------------------------------------------------

 SCF Done:  E(RB3LYP) =  -5333.42300478     A.U. after   22 cycles

 The electronic state is 1-A.
 Alpha  occ. eigenvalues -- -145.53091 -19.27583 -19.17699 -19.15022 -19.14648
 Alpha  occ. eigenvalues --  -19.12264 -19.11878 -19.11785 -19.11092 -19.09304
 Alpha  occ. eigenvalues --  -19.08796 -19.07922 -19.07426 -19.06695 -19.06169
 Alpha  occ. eigenvalues --  -19.06069 -19.05842 -19.05823 -19.05556 -19.05326
 Alpha  occ. eigenvalues --  -19.04010 -19.03582 -19.03177 -19.01165 -15.58862
 Alpha  occ. eigenvalues --  -14.50756 -14.40964 -14.39839 -14.38922 -14.38022
 Alpha  occ. eigenvalues --  -14.37674 -14.36215 -14.35985 -14.35281 -14.34551
 Alpha  occ. eigenvalues --  -14.32310 -14.32064 -14.31199 -14.30065 -14.29216
 Alpha  occ. eigenvalues --  -12.72462 -12.72447 -12.72414 -10.35898 -10.32118
 Alpha  occ. eigenvalues --  -10.31760 -10.31654 -10.31111 -10.31070 -10.29757
 Alpha  occ. eigenvalues --  -10.28287 -10.27437 -10.27318 -10.27256 -10.26769
 Alpha  occ. eigenvalues --  -10.26354 -10.26297 -10.26233 -10.26176 -10.25399
 Alpha  occ. eigenvalues --  -10.24651 -10.24619 -10.24496 -10.24428 -10.24416
 Alpha  occ. eigenvalues --  -10.23883 -10.23826 -10.23456 -10.23167 -10.22834
 Alpha  occ. eigenvalues --  -10.22821 -10.22760 -10.21254 -10.21159 -10.20914
 Alpha  occ. eigenvalues --  -10.20896 -10.20239 -10.20002 -10.18734 -10.18408
 Alpha  occ. eigenvalues --  -10.17625 -10.17332 -10.17319 -10.17316 -10.17180
 Alpha  occ. eigenvalues --  -10.17030 -10.16827 -10.16544 -10.16455 -10.16055
 Alpha  occ. eigenvalues --  -10.15977 -10.14756 -10.14178 -10.13852 -10.13567
 Alpha  occ. eigenvalues --  -10.12749 -10.12222  -1.95254  -1.22644  -1.22329
 Alpha  occ. eigenvalues --   -1.22089  -1.13639  -1.10315  -1.07159  -1.06755
 Alpha  occ. eigenvalues --   -1.06053  -1.05392  -1.04921  -1.04035  -1.03470
 Alpha  occ. eigenvalues --   -1.02460  -1.02402  -1.01690  -1.01036  -1.00597
 Alpha  occ. eigenvalues --   -1.00265  -0.98769  -0.98593  -0.98350  -0.97988
 Alpha  occ. eigenvalues --   -0.97241  -0.97015  -0.96067  -0.95123  -0.94737
 Alpha  occ. eigenvalues --   -0.93476  -0.93307  -0.93237  -0.92118  -0.91514
 Alpha  occ. eigenvalues --   -0.91165  -0.90437  -0.90143  -0.89088  -0.88747
 Alpha  occ. eigenvalues --   -0.88122  -0.87619  -0.87427  -0.87012  -0.85785
 Alpha  occ. eigenvalues --   -0.82906  -0.82650  -0.81746  -0.80824  -0.78702
 Alpha  occ. eigenvalues --   -0.77850  -0.77478  -0.76696  -0.76367  -0.75249
 Alpha  occ. eigenvalues --   -0.74801  -0.74650  -0.74133  -0.73559  -0.72532
 Alpha  occ. eigenvalues --   -0.72045  -0.71528  -0.70351  -0.70252  -0.70076
 Alpha  occ. eigenvalues --   -0.68980  -0.68694  -0.67127  -0.66759  -0.66587
 Alpha  occ. eigenvalues --   -0.66524  -0.65366  -0.64914  -0.64879  -0.64678
 Alpha  occ. eigenvalues --   -0.63662  -0.63502  -0.63171  -0.63072  -0.62799
 Alpha  occ. eigenvalues --   -0.61625  -0.61244  -0.60485  -0.60340  -0.60216
 Alpha  occ. eigenvalues --   -0.59421  -0.58651  -0.58539  -0.58363  -0.58138
 Alpha  occ. eigenvalues --   -0.57857  -0.57571  -0.57513  -0.57315  -0.56793
 Alpha  occ. eigenvalues --   -0.56162  -0.56063  -0.55652  -0.55393  -0.55194
 Alpha  occ. eigenvalues --   -0.54757  -0.54561  -0.54500  -0.53619  -0.53435
 Alpha  occ. eigenvalues --   -0.53335  -0.53027  -0.52820  -0.52658  -0.52285
 Alpha  occ. eigenvalues --   -0.51911  -0.51685  -0.51539  -0.51379  -0.51097
 Alpha  occ. eigenvalues --   -0.50926  -0.50740  -0.50394  -0.50041  -0.49602
 Alpha  occ. eigenvalues --   -0.48827  -0.48535  -0.48173  -0.48016  -0.47778
 Alpha  occ. eigenvalues --   -0.47347  -0.46957  -0.46951  -0.46575  -0.46384
 Alpha  occ. eigenvalues --   -0.46200  -0.46074  -0.46002  -0.45895  -0.45819
 Alpha  occ. eigenvalues --   -0.45562  -0.45432  -0.45125  -0.45055  -0.44950
 Alpha  occ. eigenvalues --   -0.44766  -0.44621  -0.44521  -0.44300  -0.44082
 Alpha  occ. eigenvalues --   -0.43749  -0.43331  -0.43160  -0.42941  -0.42935
 Alpha  occ. eigenvalues --   -0.42828  -0.42689  -0.42595  -0.42409  -0.42241
 Alpha  occ. eigenvalues --   -0.42105  -0.41856  -0.41604  -0.41555  -0.41541
 Alpha  occ. eigenvalues --   -0.41421  -0.41194  -0.41064  -0.40919  -0.40779
 Alpha  occ. eigenvalues --   -0.40469  -0.40392  -0.40245  -0.40226  -0.40090
 Alpha  occ. eigenvalues --   -0.39917  -0.39830  -0.39526  -0.39413  -0.39350
 Alpha  occ. eigenvalues --   -0.39258  -0.39186  -0.38988  -0.38936  -0.38646
 Alpha  occ. eigenvalues --   -0.38530  -0.38080  -0.37986  -0.37941  -0.37825
 Alpha  occ. eigenvalues --   -0.37631  -0.37530  -0.37282  -0.37099  -0.36940
 Alpha  occ. eigenvalues --   -0.36765  -0.36532  -0.36493  -0.36415  -0.36170
 Alpha  occ. eigenvalues --   -0.36048  -0.35948  -0.35609  -0.35520  -0.35288
 Alpha  occ. eigenvalues --   -0.34913  -0.34868  -0.34855  -0.34717  -0.34248
 Alpha  occ. eigenvalues --   -0.33703  -0.33530  -0.33385  -0.33338  -0.33259
 Alpha  occ. eigenvalues --   -0.32962  -0.32804  -0.32319  -0.32266  -0.32212
 Alpha  occ. eigenvalues --   -0.31779  -0.31504  -0.31220  -0.30847  -0.30460
 Alpha  occ. eigenvalues --   -0.30454  -0.30330  -0.30107  -0.29764  -0.29606
 Alpha  occ. eigenvalues --   -0.29203  -0.28674  -0.28587  -0.28314  -0.27879
 Alpha  occ. eigenvalues --   -0.27599  -0.27447  -0.26958  -0.26679  -0.26568
 Alpha  occ. eigenvalues --   -0.26488  -0.25913  -0.25792  -0.24929  -0.24867
 Alpha  occ. eigenvalues --   -0.24343  -0.24100  -0.24014  -0.23972  -0.23417
 Alpha  occ. eigenvalues --   -0.23295  -0.23063  -0.22992  -0.22663  -0.22580
 Alpha  occ. eigenvalues --   -0.22284  -0.21988  -0.21833  -0.21669  -0.21189
 Alpha  occ. eigenvalues --   -0.20579  -0.20202  -0.20152  -0.19814  -0.19313
 Alpha  occ. eigenvalues --   -0.19043  -0.19008  -0.17146
 Alpha virt. eigenvalues --   -0.14806  -0.07705  -0.05269  -0.03865  -0.02327
 Alpha virt. eigenvalues --   -0.01736  -0.01309  -0.01091  -0.00915  -0.00555
 Alpha virt. eigenvalues --    0.00244   0.00593   0.00733   0.00930   0.01233

 Mulliken charges:
               1
     1  C    0.048025
     2  C    0.075822
     3  O   -0.400676
     4  H    0.092583
     5  H    0.017353
     6  H    0.020385
     7  N   -0.091882
     8  C    0.167598
     9  C    0.053445
    10  O   -0.246851
    11  C    0.045066
    12  C    0.040027
    13  O   -0.415905
    14  O   -0.340063
    15  H    0.136457
    16  H   -0.031104
    17  H    0.013350
    18  H   -0.036806
    19  N   -0.169219
    20  C    0.108771
    21  C    0.070278
    22  O   -0.259248
    23  C    0.020517
    24  C    0.047590
    25  C   -0.074495
    26  C    0.072225
    27  N    0.094917
    28  H    0.086898
    29  H    0.021209
    30  H   -0.017200
    31  H    0.021869
    32  H    0.001346
    33  H    0.015810
    34  H    0.035881
    35  H    0.038414
    36  H    0.057250
    37  H    0.047611
    38  H    0.181377
    39  H    0.172855
    40  H    0.147606
    41  N   -0.144237
    42  C    0.138307
    43  C    0.046730
    44  O   -0.255313
    45  C    0.064973
    46  C    0.082425
    47  O   -0.310497
    48  O   -0.502364
    49  H    0.147817
    50  H    0.024510
    51  H    0.014778
    52  H    0.055953
    53  N   -0.128762
    54  C    0.203289
    55  C    0.068407
    56  O   -0.414377
    57  H    0.065719
    58  H    0.107370
    59  H    0.003082
    60  N   -0.104816
    61  C    0.048399
    62  C    0.105467
    63  O   -0.301024
    64  C    0.156502
    65  C   -0.011036
    66  N   -0.033582
    67  O   -0.269255
    68  H    0.110441
    69  H    0.016952
    70  H   -0.036623
    71  H    0.029240
    72  H    0.126802
    73  H    0.144797
    74  N   -0.085966
    75  C    0.174631
    76  C    0.051227
    77  O   -0.285130
    78  H    0.137138
    79  H    0.052341
    80  H    0.008180
    81  N   -0.103599
    82  C    0.093129
    83  C    0.078887
    84  O   -0.292637
    85  C    0.130980
    86  C   -0.007747
    87  C    0.012328
    88  C   -0.017102
    89  C   -0.015082
    90  C   -0.035251
    91  C    0.167032
    92  O   -0.221955
    93  H    0.105203
    94  H    0.037634
    95  H    0.013809
    96  H   -0.008100
    97  H   -0.018550
    98  H   -0.066598
    99  H   -0.034759
   100  H   -0.056132
   101  H    0.171851
   102  N   -0.197905
   103  C    0.146548
   104  C    0.064377
   105  O   -0.293300
   106  C   -0.072377
   107  C    0.015376
   108  C    0.062157
   109  C    0.046402
   110  H    0.157952
   111  H    0.001019
   112  H   -0.005404
   113  H    0.004227
   114  H   -0.018025
   115  H   -0.011010
   116  H    0.044635
   117  H   -0.018862
   118  H   -0.005034
   119  H    0.002325
   120  H   -0.009730
   121  N   -0.182579
   122  C    0.087680
   123  C    0.104943
   124  O   -0.285304
   125  C    0.259382
   126  O   -0.345548
   127  H    0.149340
   128  H    0.010641
   129  H   -0.017357
   130  H   -0.022649
   131  H    0.173044
   132  N   -0.167676
   133  C    0.076517
   134  C    0.036156
   135  O   -0.284585
   136  C    0.109076
   137  H    0.164990
   138  H   -0.011515
   139  H    0.020125
   140  H   -0.007535
   141  H    0.046665
   142  N   -0.138091
   143  C    0.088760
   144  C    0.028876
   145  O   -0.290465
   146  C    0.086842
   147  H    0.119375
   148  H    0.022708
   149  H    0.036618
   150  H    0.034093
   151  H   -0.011353
   152  N   -0.135384
   153  C    0.086089
   154  C    0.077750
   155  O   -0.293944
   156  C    0.117730
   157  C    0.021935
   158  C    0.154904
   159  O   -0.376905
   160  O   -0.443139
   161  H    0.128512
   162  H    0.037286
   163  H    0.029524
   164  H   -0.002167
   165  H    0.001687
   166  H   -0.037639
   167  N   -0.159392
   168  C    0.129820
   169  H    0.017362
   170  H    0.024220
   171  H    0.024548
   172  H    0.104138
   173  Ca   1.479126
   174  O   -0.272496
   175  H    0.192789
   176  H    0.184179
 Sum of Mulliken charges =  -0.00000

 Dipole moment (field-independent basis, Debye):
    X=             38.5518    Y=             11.3756    Z=              4.0907  Tot=             40.4027
 Quadrupole moment (field-independent basis, Debye-Ang):
   XX=           -509.8876   YY=           -549.5043   ZZ=           -497.9756
   XY=             65.5153   XZ=            -83.3948   YZ=             28.0921

 ESP charges:
               1
     1  C   -0.596172
     2  C    0.819105
     3  O   -0.756832
     4  H    0.231225
     5  H    0.150835
     6  H    0.134774
     7  N   -0.483013
     8  C   -0.022714
     9  C    0.758329
    10  O   -0.558634
    11  C   -0.341061
    12  C    0.801609
    13  O   -0.726592
    14  O   -0.676067
    15  H    0.320267
    16  H    0.082507
    17  H    0.116510
    18  H    0.044255
    19  N   -0.634146
    20  C    0.272621
    21  C    0.361161
    22  O   -0.516429
    23  C   -0.050002
    24  C    0.139125
    25  C   -0.168090
    26  C    0.094608
    27  N   -0.268679
    28  H    0.311380
    29  H    0.048928
    30  H   -0.000551
    31  H    0.012973
    32  H   -0.102622
    33  H    0.014599
    34  H    0.085736
    35  H    0.068915
    36  H    0.059169
    37  H    0.037454
    38  H    0.300644
    39  H    0.304025
    40  H    0.261639
    41  N   -0.368906
    42  C    0.157989
    43  C    0.413077
    44  O   -0.510180
    45  C   -0.245596
    46  C    0.787207
    47  O   -0.638330
    48  O   -0.856839
    49  H    0.287926
    50  H    0.096158
    51  H    0.067854
    52  H    0.097987
    53  N   -0.271707
    54  C    0.114407
    55  C    0.695628
    56  O   -0.731944
    57  H    0.067744
    58  H    0.142980
    59  H   -0.032189
    60  N   -0.626336
    61  C    0.441951
    62  C    0.513683
    63  O   -0.561013
    64  C   -0.316006
    65  C    0.716895
    66  N   -0.847627
    67  O   -0.552195
    68  H    0.296507
    69  H   -0.058850
    70  H    0.041542
    71  H    0.105292
    72  H    0.380206
    73  H    0.407602
    74  N   -0.520509
    75  C    0.052544
    76  C    0.642532
    77  O   -0.540944
    78  H    0.348466
    79  H    0.027472
    80  H    0.077175
    81  N   -0.735562
    82  C    0.572793
    83  C    0.245794
    84  O   -0.520264
    85  C   -0.350585
    86  C    0.015005
    87  C   -0.054131
    88  C   -0.031609
    89  C   -0.297077
    90  C   -0.430176
    91  C    0.461887
    92  O   -0.595190
    93  H    0.301802
    94  H    0.019834
    95  H    0.173381
    96  H    0.098913
    97  H    0.086584
    98  H    0.088720
    99  H    0.158456
   100  H    0.151707
   101  H    0.415748
   102  N   -0.032344
   103  C   -0.257085
   104  C    0.605817
   105  O   -0.580459
   106  C    0.291379
   107  C    0.092861
   108  C   -0.501640
   109  C   -0.245832
   110  H   -0.028832
   111  H    0.095847
   112  H   -0.026472
   113  H   -0.001592
   114  H   -0.002743
   115  H    0.084802
   116  H    0.192237
   117  H    0.133424
   118  H    0.064579
   119  H    0.055206
   120  H    0.032284
   121  N   -0.053998
   122  C   -0.387897
   123  C    0.816385
   124  O   -0.586573
   125  C    0.414083
   126  O   -0.645532
   127  H   -0.064665
   128  H    0.124842
   129  H    0.004656
   130  H   -0.043854
   131  H    0.311359
   132  N   -0.758438
   133  C    0.396501
   134  C    0.571119
   135  O   -0.505323
   136  C   -0.351241
   137  H    0.380029
   138  H   -0.031783
   139  H    0.096253
   140  H    0.054421
   141  H    0.134704
   142  N   -0.743137
   143  C    0.413884
   144  C    0.449887
   145  O   -0.566215
   146  C   -0.324511
   147  H    0.342298
   148  H   -0.000375
   149  H    0.114461
   150  H    0.096873
   151  H    0.071856
   152  N   -0.316932
   153  C   -0.181757
   154  C    0.536689
   155  O   -0.567501
   156  C    0.101382
   157  C   -0.248170
   158  C    0.558632
   159  O   -0.612150
   160  O   -0.359254
   161  H    0.231796
   162  H    0.161463
   163  H    0.062954
   164  H    0.018163
   165  H    0.081890
   166  H   -0.003418
   167  N   -0.208053
   168  C   -0.207149
   169  H    0.084701
   170  H    0.097731
   171  H    0.099822
   172  H    0.201893
   173  Ca   1.740959
   174  O   -0.806276
   175  H    0.402754
   176  H    0.419850
 Sum of ESP charges =   0.00000

 Normal termination of Gaussian 16 at Thu Sep 19 10:05:31 2019.
