 Gaussian 16, Revision A.03,
 Gaussian 16:  ES64L-G16RevA.03 25-Dec-2016

 ----------------------------------------------------------------------
 #b3lyp/svp scf=(tight,noincore) Test #IOP(5/87=12) Density=Current Pop
 =(MK,readradii) iop(6/33=2) iop(6/42=6)
 ----------------------------------------------------------------------

 ----------------
 Ng-31_loop3_34.0
 ----------------
 Symbolic Z-matrix:
 Charge =  0 Multiplicity = 1

                         Standard orientation:
 ---------------------------------------------------------------------
 Center     Atomic      Atomic             Coordinates (Angstroms)
 Number     Number       Type             X           Y           Z
 ---------------------------------------------------------------------
      1          6           0        6.040089   -1.800633    4.738513
      2          6           0        5.796249   -1.132610    3.388074
      3          8           0        4.641351   -0.856704    3.087595
      4          1           0        5.083908   -2.024764    5.210234
      5          1           0        6.597294   -2.726039    4.591248
      6          1           0        6.611508   -1.128571    5.379207
      7          7           0        6.831173   -0.898791    2.581625
      8          6           0        6.649219   -0.279388    1.278156
      9          6           0        5.771580   -1.070138    0.308741
     10          8           0        4.592805   -0.756784    0.180679
     11          6           0        8.054757   -0.023350    0.747301
     12          6           0        8.983685   -1.213489    0.620564
     13          8           0        8.985352   -1.875339   -0.437194
     14          8           0        9.703309   -1.646480    1.561871
     15          1           0        7.732027   -1.166623    2.948408
     16          1           0        6.165710    0.695135    1.339990
     17          1           0        8.506715    0.697704    1.430467
     18          1           0        7.933145    0.381934   -0.261191
     19          7           0        6.150671   -2.255601   -0.178770
     20          6           0        5.426240   -2.982998   -1.199307
     21          6           0        5.169866   -2.157196   -2.446553
     22          8           0        5.911215   -2.297292   -3.410801
     23          6           0        6.004183   -4.385025   -1.402287
     24          6           0        5.002062   -5.214325   -2.213530
     25          6           0        5.301796   -6.709064   -2.273664
     26          6           0        4.107027   -7.560441   -2.666578
     27          7           0        3.639263   -7.240049   -4.013703
     28          1           0        7.116747   -2.507534   -0.013465
     29          1           0        4.418808   -3.179842   -0.812354
     30          1           0        6.193847   -4.893773   -0.462818
     31          1           0        6.960768   -4.359815   -1.925460
     32          1           0        4.937695   -4.839675   -3.231220
     33          1           0        3.991961   -4.993184   -1.854513
     34          1           0        5.544524   -7.095290   -1.281539
     35          1           0        6.090791   -6.828412   -3.032244
     36          1           0        3.323009   -7.593539   -1.902038
     37          1           0        4.490765   -8.581257   -2.738554
     38          1           0        3.179937   -6.338099   -4.016276
     39          1           0        4.379419   -7.047731   -4.679122
     40          1           0        3.148450   -7.999354   -4.485145
     41          7           0        4.196286   -1.238562   -2.465386
     42          6           0        3.835710   -0.360827   -3.555646
     43          6           0        3.579105    1.066562   -3.089798
     44          8           0        2.974763    1.869013   -3.804810
     45          6           0        2.666619   -0.900895   -4.379753
     46          6           0        1.453910   -1.276691   -3.532868
     47          8           0        0.926300   -0.390953   -2.819289
     48          8           0        1.269831   -2.458898   -3.198352
     49          1           0        3.561038   -1.238411   -1.679346
     50          1           0        4.676367   -0.105477   -4.186038
     51          1           0        2.913566   -1.811136   -4.932001
     52          1           0        2.240771   -0.142080   -5.034469
     53          7           0        3.811797    1.357251   -1.805292
     54          6           0        3.444940    2.602696   -1.169617
     55          6           0        3.569971    2.611172    0.352091
     56          8           0        3.698368    1.596472    1.018873
     57          1           0        4.295523    0.645601   -1.284462
     58          1           0        2.431391    2.830816   -1.518441
     59          1           0        4.101105    3.383478   -1.545286
     60          7           0        3.402436    3.794939    0.955106
     61          6           0        2.984736    5.027239    0.307137
     62          6           0        1.921892    5.777409    1.087398
     63          8           0        2.077031    6.053274    2.275645
     64          6           0        4.169373    5.949631    0.041755
     65          6           0        3.817519    7.201604   -0.762025
     66          7           0        3.550297    7.137182   -2.069137
     67          8           0        3.830522    8.295686   -0.204428
     68          1           0        3.537279    3.723661    1.955525
     69          1           0        2.540371    4.705561   -0.636877
     70          1           0        4.992332    5.510187   -0.526600
     71          1           0        4.702799    6.275068    0.940447
     72          1           0        3.245008    6.264075   -2.485531
     73          1           0        3.487449    8.013604   -2.552391
     74          7           0        0.804928    6.251248    0.516026
     75          6           0        0.227434    5.950488   -0.771702
     76          6           0       -0.457635    4.589621   -0.796615
     77          8           0        0.228138    3.575352   -0.684928
     78          1           0        0.213392    6.801639    1.111472
     79          1           0        1.004700    6.063652   -1.529627
     80          1           0       -0.564054    6.697553   -0.901472
     81          7           0       -1.786971    4.594992   -0.857755
     82          6           0       -2.681298    3.481642   -0.584933
     83          6           0       -3.634461    3.307419   -1.761932
     84          8           0       -4.038909    4.324656   -2.317856
     85          6           0       -3.250791    3.853771    0.784810
     86          6           0       -2.274768    3.889879    1.933494
     87          6           0       -1.963867    2.681452    2.576568
     88          6           0       -1.542148    5.011147    2.367346
     89          6           0       -1.029543    2.542012    3.615507
     90          6           0       -0.628508    4.931712    3.414748
     91          6           0       -0.345088    3.706029    4.042104
     92          8           0        0.538847    3.530122    5.062846
     93          1           0       -2.216111    5.500919   -0.968370
     94          1           0       -2.026353    2.632980   -0.423007
     95          1           0       -3.888141    3.001662    1.015019
     96          1           0       -3.854274    4.749512    0.710263
     97          1           0       -2.514053    1.812504    2.252954
     98          1           0       -1.700702    5.976843    1.915248
     99          1           0       -0.846002    1.632782    4.165519
    100          1           0       -0.034309    5.811732    3.649253
    101          1           0        1.001220    4.348552    5.258253
    102          7           0       -3.913446    2.052278   -2.123026
    103          6           0       -4.812221    1.690407   -3.195478
    104          6           0       -6.255078    1.433284   -2.795414
    105          8           0       -7.179045    1.171649   -3.564851
    106          6           0       -4.162794    0.509783   -3.919198
    107          6           0       -4.720833   -0.833189   -3.441475
    108          6           0       -4.411971    0.704010   -5.420926
    109          6           0       -3.784579   -1.935542   -3.912799
    110          1           0       -3.729340    1.291182   -1.475772
    111          1           0       -4.946628    2.500227   -3.913131
    112          1           0       -3.077828    0.573402   -3.869184
    113          1           0       -5.679417   -1.000575   -3.935741
    114          1           0       -4.850631   -0.797630   -2.356492
    115          1           0       -3.733503    0.017104   -5.923064
    116          1           0       -5.475688    0.674214   -5.647021
    117          1           0       -3.979552    1.638138   -5.764608
    118          1           0       -3.835538   -2.035678   -5.005308
    119          1           0       -2.789357   -1.680790   -3.546692
    120          1           0       -4.223165   -2.814827   -3.453125
    121          7           0       -6.511468    1.492371   -1.489476
    122          6           0       -7.820180    1.314997   -0.889800
    123          6           0       -8.079202   -0.155659   -0.572031
    124          8           0       -9.080547   -0.411036    0.091213
    125          6           0       -7.881683    2.162055    0.374641
    126          8           0       -7.687576    3.527381    0.101500
    127          1           0       -5.750020    1.771655   -0.887897
    128          1           0       -8.669194    1.470142   -1.547983
    129          1           0       -7.080918    1.863337    1.058486
    130          1           0       -8.812607    1.924394    0.895312
    131          1           0       -8.556126    3.919747   -0.076741
    132          7           0       -7.111749   -1.044758   -0.765777
    133          6           0       -7.215587   -2.482079   -0.647775
    134          6           0       -5.902770   -3.104361   -0.211336
    135          8           0       -4.823797   -2.721862   -0.640884
    136          6           0       -7.732315   -2.999399   -1.988510
    137          1           0       -6.262532   -0.713793   -1.214210
    138          1           0       -8.031091   -2.812358    0.008174
    139          1           0       -7.525172   -4.064590   -2.142003
    140          1           0       -8.794979   -2.845226   -2.157558
    141          1           0       -7.122921   -2.610678   -2.806333
    142          7           0       -5.995576   -4.223310    0.524014
    143          6           0       -4.985761   -5.225496    0.774809
    144          6           0       -3.775130   -4.808502    1.604140
    145          8           0       -2.732532   -5.457243    1.555932
    146          6           0       -4.727708   -6.104923   -0.441463
    147          1           0       -6.897494   -4.480572    0.888241
    148          1           0       -5.411203   -5.902793    1.524186
    149          1           0       -4.197973   -7.008875   -0.146249
    150          1           0       -5.693617   -6.414400   -0.856003
    151          1           0       -4.254101   -5.470375   -1.183586
    152          7           0       -3.999037   -3.856804    2.509588
    153          6           0       -3.070202   -3.330565    3.482644
    154          6           0       -3.387104   -3.751412    4.912281
    155          8           0       -2.509284   -4.199472    5.638072
    156          6           0       -2.991066   -1.811477    3.362601
    157          6           0       -2.513016   -1.255436    2.018136
    158          6           0       -1.051804   -1.526213    1.707431
    159          8           0       -0.176530   -0.643848    1.867833
    160          8           0       -0.796322   -2.691523    1.318483
    161          1           0       -4.871741   -3.356311    2.499844
    162          1           0       -2.076201   -3.741040    3.327817
    163          1           0       -2.303260   -1.527439    4.164066
    164          1           0       -3.899987   -1.292179    3.662752
    165          1           0       -2.540965   -0.172114    2.150166
    166          1           0       -3.176591   -1.454722    1.183059
    167          7           0       -4.640586   -3.636992    5.362271
    168          6           0       -4.990669   -3.435347    6.751869
    169          1           0       -5.150836   -4.401665    7.229389
    170          1           0       -4.181287   -2.909993    7.258444
    171          1           0       -5.904417   -2.843801    6.815089
    172          1           0       -5.394231   -3.436662    4.723141
    173         20           0        2.339343   -0.564174    1.656993
    174          8           0        3.540157   -3.032516    1.662831
    175          1           0        3.052057   -3.676770    1.162136
    176          1           0        3.801075   -3.493841    2.463831
 ---------------------------------------------------------------------

 SCF Done:  E(RB3LYP) =  -5333.34424652     A.U. after   20 cycles

 The electronic state is 1-A.
 Alpha  occ. eigenvalues -- -145.45196 -19.19742 -19.16786 -19.14166 -19.13866
 Alpha  occ. eigenvalues --  -19.12519 -19.11870 -19.11350 -19.11222 -19.10816
 Alpha  occ. eigenvalues --  -19.10538 -19.09640 -19.09506 -19.09320 -19.08587
 Alpha  occ. eigenvalues --  -19.07987 -19.07874 -19.06605 -19.05622 -19.02837
 Alpha  occ. eigenvalues --  -18.98614 -18.98551 -18.96966 -18.96327 -15.50954
 Alpha  occ. eigenvalues --  -14.56806 -14.38260 -14.37824 -14.37539 -14.37330
 Alpha  occ. eigenvalues --  -14.36697 -14.36413 -14.36401 -14.36145 -14.35867
 Alpha  occ. eigenvalues --  -14.35203 -14.35044 -14.34775 -14.33399 -14.32696
 Alpha  occ. eigenvalues --  -12.64603 -12.64562 -12.64456 -10.34069 -10.32206
 Alpha  occ. eigenvalues --  -10.30568 -10.30531 -10.30451 -10.29605 -10.29385
 Alpha  occ. eigenvalues --  -10.29370 -10.29200 -10.28324 -10.28251 -10.27530
 Alpha  occ. eigenvalues --  -10.27071 -10.26998 -10.26951 -10.26824 -10.25438
 Alpha  occ. eigenvalues --  -10.25274 -10.25069 -10.24793 -10.24474 -10.24277
 Alpha  occ. eigenvalues --  -10.24117 -10.24084 -10.23668 -10.23475 -10.23400
 Alpha  occ. eigenvalues --  -10.23368 -10.23023 -10.22603 -10.22437 -10.21448
 Alpha  occ. eigenvalues --  -10.21316 -10.21243 -10.20739 -10.20567 -10.20169
 Alpha  occ. eigenvalues --  -10.19860 -10.19638 -10.19461 -10.19103 -10.19091
 Alpha  occ. eigenvalues --  -10.18955 -10.18777 -10.18538 -10.18501 -10.17629
 Alpha  occ. eigenvalues --  -10.16624 -10.16620 -10.15994 -10.15675 -10.15601
 Alpha  occ. eigenvalues --  -10.15067 -10.12322  -1.87375  -1.15111  -1.14866
 Alpha  occ. eigenvalues --   -1.14038  -1.12255  -1.07072  -1.05961  -1.05455
 Alpha  occ. eigenvalues --   -1.05337  -1.05151  -1.04859  -1.04605  -1.04164
 Alpha  occ. eigenvalues --   -1.03539  -1.03054  -1.02825  -1.02318  -1.02041
 Alpha  occ. eigenvalues --   -1.01961  -1.01248  -1.00895  -0.98932  -0.98873
 Alpha  occ. eigenvalues --   -0.95343  -0.94577  -0.94489  -0.94392  -0.93880
 Alpha  occ. eigenvalues --   -0.93657  -0.93219  -0.93054  -0.92215  -0.92171
 Alpha  occ. eigenvalues --   -0.92012  -0.91725  -0.90834  -0.90805  -0.90388
 Alpha  occ. eigenvalues --   -0.88728  -0.88705  -0.88255  -0.85128  -0.82745
 Alpha  occ. eigenvalues --   -0.81904  -0.81402  -0.80874  -0.80536  -0.80154
 Alpha  occ. eigenvalues --   -0.79672  -0.78573  -0.78315  -0.77215  -0.76237
 Alpha  occ. eigenvalues --   -0.75929  -0.75424  -0.74959  -0.74388  -0.73691
 Alpha  occ. eigenvalues --   -0.73310  -0.72603  -0.72390  -0.72048  -0.71890
 Alpha  occ. eigenvalues --   -0.70628  -0.69899  -0.69338  -0.69132  -0.67826
 Alpha  occ. eigenvalues --   -0.67176  -0.66519  -0.66188  -0.64699  -0.64440
 Alpha  occ. eigenvalues --   -0.64410  -0.63422  -0.62699  -0.62537  -0.62340
 Alpha  occ. eigenvalues --   -0.62074  -0.61322  -0.61161  -0.60310  -0.60215
 Alpha  occ. eigenvalues --   -0.60096  -0.59819  -0.59707  -0.59637  -0.59452
 Alpha  occ. eigenvalues --   -0.59129  -0.59032  -0.58802  -0.58642  -0.58340
 Alpha  occ. eigenvalues --   -0.57550  -0.56825  -0.56738  -0.56302  -0.56069
 Alpha  occ. eigenvalues --   -0.55954  -0.55131  -0.54867  -0.54628  -0.53815
 Alpha  occ. eigenvalues --   -0.53786  -0.53338  -0.53305  -0.52436  -0.52197
 Alpha  occ. eigenvalues --   -0.52012  -0.51546  -0.51378  -0.50901  -0.50617
 Alpha  occ. eigenvalues --   -0.50448  -0.50357  -0.50029  -0.49911  -0.49563
 Alpha  occ. eigenvalues --   -0.49395  -0.49149  -0.49023  -0.48899  -0.48272
 Alpha  occ. eigenvalues --   -0.48029  -0.47788  -0.47626  -0.47536  -0.47302
 Alpha  occ. eigenvalues --   -0.47246  -0.47007  -0.46930  -0.46707  -0.46463
 Alpha  occ. eigenvalues --   -0.45985  -0.45866  -0.45676  -0.45650  -0.45243
 Alpha  occ. eigenvalues --   -0.45054  -0.45021  -0.44758  -0.44395  -0.44197
 Alpha  occ. eigenvalues --   -0.44112  -0.43943  -0.43708  -0.43395  -0.43240
 Alpha  occ. eigenvalues --   -0.43048  -0.42909  -0.42790  -0.42665  -0.42560
 Alpha  occ. eigenvalues --   -0.42500  -0.42212  -0.42138  -0.42030  -0.41928
 Alpha  occ. eigenvalues --   -0.41559  -0.41433  -0.41414  -0.41337  -0.41170
 Alpha  occ. eigenvalues --   -0.41089  -0.41016  -0.40835  -0.40791  -0.40408
 Alpha  occ. eigenvalues --   -0.40327  -0.40258  -0.40077  -0.39936  -0.39884
 Alpha  occ. eigenvalues --   -0.39741  -0.39673  -0.39543  -0.39369  -0.39285
 Alpha  occ. eigenvalues --   -0.39175  -0.38808  -0.38668  -0.38452  -0.38334
 Alpha  occ. eigenvalues --   -0.38167  -0.38101  -0.37984  -0.37874  -0.37632
 Alpha  occ. eigenvalues --   -0.37577  -0.37575  -0.37385  -0.37379  -0.37201
 Alpha  occ. eigenvalues --   -0.37193  -0.36772  -0.36726  -0.36597  -0.36216
 Alpha  occ. eigenvalues --   -0.35937  -0.35873  -0.35637  -0.35213  -0.34994
 Alpha  occ. eigenvalues --   -0.34537  -0.34280  -0.34197  -0.34125  -0.34079
 Alpha  occ. eigenvalues --   -0.34068  -0.33559  -0.33458  -0.33068  -0.32979
 Alpha  occ. eigenvalues --   -0.32564  -0.32104  -0.31791  -0.30713  -0.30299
 Alpha  occ. eigenvalues --   -0.30146  -0.30010  -0.29724  -0.29563  -0.29051
 Alpha  occ. eigenvalues --   -0.28977  -0.28803  -0.28349  -0.28274  -0.28203
 Alpha  occ. eigenvalues --   -0.28117  -0.28055  -0.27790  -0.27627  -0.27560
 Alpha  occ. eigenvalues --   -0.27313  -0.27101  -0.26903  -0.26393  -0.26155
 Alpha  occ. eigenvalues --   -0.26053  -0.25659  -0.25389  -0.25240  -0.24981
 Alpha  occ. eigenvalues --   -0.24501  -0.24331  -0.24159  -0.23715  -0.23402
 Alpha  occ. eigenvalues --   -0.23301  -0.22958  -0.22916  -0.22546  -0.21929
 Alpha  occ. eigenvalues --   -0.21249  -0.18682  -0.17318  -0.16385  -0.14768
 Alpha  occ. eigenvalues --   -0.14435  -0.13291  -0.11257
 Alpha virt. eigenvalues --   -0.09018  -0.04196  -0.03757  -0.02327  -0.01879
 Alpha virt. eigenvalues --   -0.01581  -0.01267  -0.00953  -0.00894  -0.00881
 Alpha virt. eigenvalues --   -0.00619   0.00228   0.00439   0.00645   0.00751

 Mulliken charges:
               1
     1  C    0.050169
     2  C    0.043605
     3  O   -0.385112
     4  H    0.020339
     5  H    0.042526
     6  H    0.049785
     7  N   -0.093020
     8  C    0.118324
     9  C    0.111914
    10  O   -0.391603
    11  C    0.105015
    12  C   -0.003837
    13  O   -0.387366
    14  O   -0.373399
    15  H    0.120314
    16  H    0.006789
    17  H   -0.009299
    18  H   -0.007867
    19  N   -0.087315
    20  C    0.141426
    21  C    0.036592
    22  O   -0.276841
    23  C    0.094438
    24  C   -0.076142
    25  C   -0.000811
    26  C    0.038110
    27  N    0.081755
    28  H    0.134473
    29  H   -0.045023
    30  H   -0.004310
    31  H    0.048144
    32  H    0.007106
    33  H    0.009266
    34  H    0.041976
    35  H    0.038206
    36  H    0.094238
    37  H    0.049155
    38  H    0.195783
    39  H    0.166427
    40  H    0.180288
    41  N   -0.121804
    42  C    0.150196
    43  C    0.021522
    44  O   -0.288192
    45  C    0.155626
    46  C   -0.037392
    47  O   -0.392276
    48  O   -0.395861
    49  H    0.138768
    50  H    0.017273
    51  H   -0.057236
    52  H    0.003262
    53  N   -0.166880
    54  C    0.151316
    55  C    0.075648
    56  O   -0.348546
    57  H    0.127531
    58  H    0.099886
    59  H    0.007185
    60  N   -0.110547
    61  C    0.060606
    62  C    0.119988
    63  O   -0.277160
    64  C    0.145342
    65  C   -0.059635
    66  N   -0.048050
    67  O   -0.246929
    68  H    0.129410
    69  H    0.015785
    70  H    0.017734
    71  H    0.025147
    72  H    0.134218
    73  H    0.134117
    74  N   -0.121817
    75  C    0.188416
    76  C    0.072874
    77  O   -0.278433
    78  H    0.130545
    79  H    0.011854
    80  H   -0.005235
    81  N   -0.128108
    82  C    0.093753
    83  C    0.133875
    84  O   -0.268845
    85  C    0.151979
    86  C   -0.002993
    87  C    0.020606
    88  C   -0.050581
    89  C    0.000465
    90  C   -0.004659
    91  C    0.127440
    92  O   -0.198415
    93  H    0.117770
    94  H    0.029092
    95  H   -0.020875
    96  H    0.003431
    97  H   -0.047702
    98  H   -0.061838
    99  H   -0.027873
   100  H   -0.025227
   101  H    0.178816
   102  N   -0.137695
   103  C    0.153346
   104  C    0.031304
   105  O   -0.264079
   106  C   -0.133317
   107  C   -0.033719
   108  C    0.057329
   109  C    0.068742
   110  H    0.142280
   111  H    0.031707
   112  H    0.029540
   113  H    0.022395
   114  H    0.004292
   115  H    0.001346
   116  H    0.024193
   117  H   -0.008623
   118  H    0.004273
   119  H    0.055460
   120  H   -0.006740
   121  N   -0.150717
   122  C    0.134778
   123  C    0.026085
   124  O   -0.298197
   125  C    0.222889
   126  O   -0.305841
   127  H    0.108663
   128  H    0.028923
   129  H   -0.013988
   130  H    0.021831
   131  H    0.172542
   132  N   -0.112042
   133  C    0.077432
   134  C    0.094496
   135  O   -0.242753
   136  C    0.053193
   137  H    0.119449
   138  H    0.001451
   139  H   -0.005981
   140  H    0.045545
   141  H    0.015908
   142  N   -0.136386
   143  C   -0.003458
   144  C    0.113907
   145  O   -0.252451
   146  C    0.087722
   147  H    0.119430
   148  H    0.018181
   149  H    0.027997
   150  H   -0.013992
   151  H    0.049631
   152  N   -0.139350
   153  C    0.166552
   154  C    0.040861
   155  O   -0.253431
   156  C   -0.019028
   157  C    0.130378
   158  C    0.118898
   159  O   -0.505532
   160  O   -0.352853
   161  H    0.094144
   162  H    0.024390
   163  H   -0.001482
   164  H   -0.034326
   165  H   -0.046664
   166  H    0.011499
   167  N   -0.159887
   168  C    0.130393
   169  H    0.026406
   170  H    0.033409
   171  H    0.010665
   172  H    0.092317
   173  Ca   1.409444
   174  O   -0.270924
   175  H    0.184087
   176  H    0.181175
 Sum of Mulliken charges =  -0.00000

 Dipole moment (field-independent basis, Debye):
    X=             -8.1495    Y=            -17.1820    Z=             -0.2032  Tot=             19.0178
 Quadrupole moment (field-independent basis, Debye-Ang):
   XX=           -698.1738   YY=           -362.2670   ZZ=           -538.5979
   XY=            -50.2322   XZ=            -48.2283   YZ=             91.2589

 ESP charges:
               1
     1  C   -0.381985
     2  C    0.776971
     3  O   -0.705375
     4  H    0.103324
     5  H    0.104807
     6  H    0.114757
     7  N   -0.558817
     8  C    0.180901
     9  C    0.420048
    10  O   -0.283815
    11  C   -0.501987
    12  C    0.841186
    13  O   -0.708851
    14  O   -0.717082
    15  H    0.298896
    16  H    0.100657
    17  H    0.119579
    18  H    0.107102
    19  N   -0.368986
    20  C    0.196612
    21  C    0.485533
    22  O   -0.543874
    23  C   -0.277938
    24  C    0.143808
    25  C   -0.245466
    26  C    0.146034
    27  N   -0.348378
    28  H    0.253258
    29  H    0.039310
    30  H    0.096851
    31  H    0.123713
    32  H    0.005916
    33  H   -0.010450
    34  H    0.099870
    35  H    0.080454
    36  H    0.083189
    37  H    0.039163
    38  H    0.300657
    39  H    0.323698
    40  H    0.311552
    41  N   -0.375684
    42  C    0.257003
    43  C    0.409126
    44  O   -0.528514
    45  C   -0.483346
    46  C    0.776006
    47  O   -0.700491
    48  O   -0.736716
    49  H    0.200530
    50  H    0.061774
    51  H    0.076005
    52  H    0.128866
    53  N   -0.267004
    54  C   -0.048198
    55  C    0.690734
    56  O   -0.719032
    57  H    0.084363
    58  H    0.149721
    59  H    0.043722
    60  N   -0.531823
    61  C    0.235167
    62  C    0.482073
    63  O   -0.537837
    64  C   -0.383766
    65  C    0.729943
    66  N   -0.826087
    67  O   -0.562922
    68  H    0.329895
    69  H   -0.006915
    70  H    0.113807
    71  H    0.141586
    72  H    0.372487
    73  H    0.388884
    74  N   -0.326486
    75  C   -0.319250
    76  C    0.774002
    77  O   -0.569944
    78  H    0.307800
    79  H    0.102819
    80  H    0.126341
    81  N   -0.667802
    82  C    0.273106
    83  C    0.669499
    84  O   -0.552684
    85  C   -0.253519
    86  C    0.012516
    87  C   -0.081175
    88  C   -0.089852
    89  C   -0.281606
    90  C   -0.368539
    91  C    0.437268
    92  O   -0.580721
    93  H    0.325129
    94  H    0.079164
    95  H    0.084543
    96  H    0.097423
    97  H    0.100848
    98  H    0.116930
    99  H    0.175542
   100  H    0.151448
   101  H    0.430111
   102  N   -0.756795
   103  C    0.186496
   104  C    0.368801
   105  O   -0.523150
   106  C    0.345044
   107  C    0.066821
   108  C   -0.362941
   109  C   -0.355827
   110  H    0.286602
   111  H    0.069875
   112  H    0.010581
   113  H    0.024907
   114  H   -0.018636
   115  H    0.082436
   116  H    0.056020
   117  H    0.075192
   118  H    0.079669
   119  H    0.094861
   120  H    0.086550
   121  N   -0.135434
   122  C   -0.204644
   123  C    0.702260
   124  O   -0.575307
   125  C    0.240491
   126  O   -0.633029
   127  H    0.199423
   128  H    0.134944
   129  H    0.027527
   130  H    0.016143
   131  H    0.419137
   132  N   -0.688414
   133  C    0.222871
   134  C    0.661441
   135  O   -0.432830
   136  C   -0.235536
   137  H    0.233890
   138  H    0.036249
   139  H    0.037061
   140  H    0.107014
   141  H    0.084483
   142  N   -0.715302
   143  C    0.309604
   144  C    0.545590
   145  O   -0.483647
   146  C   -0.344425
   147  H    0.320411
   148  H    0.038688
   149  H    0.087528
   150  H    0.094993
   151  H    0.105746
   152  N   -0.675815
   153  C    0.077553
   154  C    0.654454
   155  O   -0.550002
   156  C   -0.178222
   157  C    0.413305
   158  C    0.577906
   159  O   -0.821437
   160  O   -0.614745
   161  H    0.272816
   162  H    0.075877
   163  H    0.027457
   164  H    0.017731
   165  H   -0.123977
   166  H   -0.098035
   167  N   -0.421812
   168  C   -0.148070
   169  H    0.086139
   170  H    0.097661
   171  H    0.082907
   172  H    0.288543
   173  Ca   1.663333
   174  O   -1.037593
   175  H    0.462036
   176  H    0.497444
 Sum of ESP charges =   0.00000

 Normal termination of Gaussian 16 at Wed Sep 18 17:09:11 2019.
