 Gaussian 16, Revision A.03,
 Gaussian 16:  ES64L-G16RevA.03 25-Dec-2016

 ----------------------------------------------------------------------
 #b3lyp/svp scf=(tight,noincore) Test #IOP(5/87=12) Density=Current Pop
 =(MK,readradii) iop(6/33=2) iop(6/42=6)
 ----------------------------------------------------------------------

 ----------------
 Ng-31_loop3_42.0
 ----------------
 Symbolic Z-matrix:
 Charge =  0 Multiplicity = 1

                         Standard orientation:
 ---------------------------------------------------------------------
 Center     Atomic      Atomic             Coordinates (Angstroms)
 Number     Number       Type             X           Y           Z
 ---------------------------------------------------------------------
      1          6           0        5.741544   -1.799046    5.621741
      2          6           0        5.372466   -1.241653    4.252509
      3          8           0        4.215063   -1.326757    3.844862
      4          1           0        5.123365   -2.670229    5.837523
      5          1           0        6.791791   -2.090138    5.625235
      6          1           0        5.572510   -1.037093    6.382214
      7          7           0        6.367855   -0.661054    3.586548
      8          6           0        6.225739    0.035849    2.312842
      9          6           0        6.039558   -0.891902    1.126624
     10          8           0        4.952658   -1.422452    0.884829
     11          6           0        7.277689    1.128564    2.158974
     12          6           0        8.702713    0.687225    2.454654
     13          8           0        9.350029    0.087535    1.560085
     14          8           0        9.206638    1.067314    3.535021
     15          1           0        7.325319   -0.665612    3.915550
     16          1           0        5.366923    0.687609    2.456175
     17          1           0        7.171956    1.954938    2.867794
     18          1           0        7.095943    1.426845    1.118783
     19          7           0        7.157153   -1.154013    0.443190
     20          6           0        7.071911   -1.681623   -0.901451
     21          6           0        6.481783   -0.815659   -2.004562
     22          8           0        6.954875    0.223182   -2.441132
     23          6           0        8.483421   -2.093186   -1.323775
     24          6           0        8.515486   -2.971363   -2.573326
     25          6           0        9.958717   -3.270289   -2.946590
     26          6           0       10.108007   -3.998325   -4.276242
     27          7           0        9.640602   -5.391098   -4.231336
     28          1           0        8.083690   -0.868592    0.723659
     29          1           0        6.514269   -2.615565   -0.781500
     30          1           0        9.009727   -2.598752   -0.507440
     31          1           0        9.089214   -1.189424   -1.419840
     32          1           0        7.992165   -2.501545   -3.407357
     33          1           0        8.004071   -3.886029   -2.258461
     34          1           0       10.388566   -3.876484   -2.146679
     35          1           0       10.470761   -2.310335   -2.945942
     36          1           0       11.171886   -4.019282   -4.483903
     37          1           0        9.676666   -3.374256   -5.067306
     38          1           0        9.818280   -5.876140   -5.097687
     39          1           0       10.212717   -5.860068   -3.549023
     40          1           0        8.669323   -5.435005   -3.944821
     41          7           0        5.342675   -1.347789   -2.478029
     42          6           0        4.594424   -0.753765   -3.555737
     43          6           0        3.531723    0.211610   -3.040549
     44          8           0        2.744962    0.675474   -3.861790
     45          6           0        3.883329   -1.827000   -4.378362
     46          6           0        2.894320   -2.760821   -3.698480
     47          8           0        2.166931   -3.427258   -4.464094
     48          8           0        2.887073   -2.928844   -2.456016
     49          1           0        5.004692   -2.191193   -2.029212
     50          1           0        5.232585   -0.127540   -4.193305
     51          1           0        4.599366   -2.504895   -4.832068
     52          1           0        3.435893   -1.351064   -5.257160
     53          7           0        3.753604    0.710796   -1.818877
     54          6           0        2.993887    1.875181   -1.428574
     55          6           0        3.189871    2.293648    0.019623
     56          8           0        3.555595    1.426541    0.815910
     57          1           0        4.537422    0.429830   -1.254617
     58          1           0        1.952391    1.574218   -1.425770
     59          1           0        3.142967    2.633209   -2.211497
     60          7           0        3.120984    3.563198    0.427051
     61          6           0        2.463475    4.660972   -0.251532
     62          6           0        1.446435    5.413222    0.588915
     63          8           0        1.746135    5.922874    1.666939
     64          6           0        3.535649    5.610341   -0.790553
     65          6           0        2.897174    6.762084   -1.552352
     66          7           0        2.890982    7.912707   -0.894075
     67          8           0        2.401566    6.596857   -2.658504
     68          1           0        3.552701    3.780264    1.304663
     69          1           0        1.988649    4.299727   -1.161609
     70          1           0        4.124696    5.085603   -1.552506
     71          1           0        4.185076    5.948527    0.014726
     72          1           0        3.517146    8.107169   -0.118831
     73          1           0        2.472624    8.721080   -1.331920
     74          7           0        0.268921    5.716573    0.026030
     75          6           0       -0.416983    5.090743   -1.085893
     76          6           0       -1.209744    3.874684   -0.639096
     77          8           0       -0.650183    2.836692   -0.323877
     78          1           0       -0.197598    6.480653    0.483349
     79          1           0        0.287116    4.698380   -1.824606
     80          1           0       -1.036017    5.872195   -1.525813
     81          7           0       -2.541490    3.933663   -0.802113
     82          6           0       -3.499203    2.865395   -0.681734
     83          6           0       -4.338755    2.777071   -1.956077
     84          8           0       -4.804872    3.790031   -2.453619
     85          6           0       -4.361045    3.174484    0.537688
     86          6           0       -3.583215    3.189876    1.835934
     87          6           0       -3.637074    2.107639    2.724789
     88          6           0       -2.813341    4.308341    2.170195
     89          6           0       -2.929251    2.139183    3.933379
     90          6           0       -2.127336    4.330470    3.394126
     91          6           0       -2.141502    3.249142    4.287842
     92          8           0       -1.305470    3.234160    5.363400
     93          1           0       -2.970988    4.777715   -1.155679
     94          1           0       -2.988366    1.924515   -0.480510
     95          1           0       -5.079756    2.362100    0.633540
     96          1           0       -4.972035    4.064034    0.423268
     97          1           0       -4.197171    1.226634    2.443502
     98          1           0       -2.708146    5.190918    1.557747
     99          1           0       -2.941165    1.227383    4.530186
    100          1           0       -1.436992    5.129332    3.614680
    101          1           0       -0.866977    4.067416    5.494578
    102          7           0       -4.609020    1.553444   -2.400481
    103          6           0       -5.628458    1.295984   -3.408678
    104          6           0       -7.038852    1.059136   -2.874269
    105          8           0       -7.971785    1.161867   -3.668739
    106          6           0       -5.199179    0.145591   -4.312512
    107          6           0       -5.382011   -1.199389   -3.637975
    108          6           0       -5.976799    0.192807   -5.624182
    109          6           0       -4.678069   -2.316477   -4.404512
    110          1           0       -4.203063    0.758238   -1.946118
    111          1           0       -5.589271    2.114253   -4.128399
    112          1           0       -4.149768    0.222608   -4.584917
    113          1           0       -6.393873   -1.553053   -3.455882
    114          1           0       -4.898823   -1.128602   -2.659599
    115          1           0       -7.023205   -0.022952   -5.432656
    116          1           0       -5.878514    1.200817   -6.039099
    117          1           0       -5.438325   -0.386738   -6.374364
    118          1           0       -5.150741   -2.556963   -5.354747
    119          1           0       -3.624918   -2.019744   -4.419409
    120          1           0       -4.828908   -3.231458   -3.824721
    121          7           0       -7.187390    0.704566   -1.595240
    122          6           0       -8.485633    0.488271   -0.993010
    123          6           0       -8.778498   -0.971717   -0.715041
    124          8           0       -9.864657   -1.443140   -0.397995
    125          6           0       -8.662988    1.260359    0.310725
    126          8           0       -8.593058    2.661787    0.136055
    127          1           0       -6.361294    0.724287   -1.020977
    128          1           0       -9.251678    0.800694   -1.708248
    129          1           0       -7.931402    0.938270    1.062283
    130          1           0       -9.657483    1.131144    0.720460
    131          1           0       -8.940187    3.098101    0.914021
    132          7           0       -7.703219   -1.770397   -0.705868
    133          6           0       -7.552753   -3.144027   -0.278903
    134          6           0       -6.116581   -3.567241    0.004646
    135          8           0       -5.135720   -2.932824   -0.388199
    136          6           0       -8.111761   -4.039846   -1.389092
    137          1           0       -6.838991   -1.245446   -0.784207
    138          1           0       -8.118351   -3.226836    0.651979
    139          1           0       -9.191205   -3.939235   -1.480618
    140          1           0       -7.589645   -3.814879   -2.320641
    141          1           0       -8.076954   -5.130396   -1.304892
    142          7           0       -6.000327   -4.672717    0.743096
    143          6           0       -4.834842   -5.459838    1.083221
    144          6           0       -3.736856   -4.744719    1.858224
    145          8           0       -2.762438   -5.370578    2.247212
    146          6           0       -4.264165   -6.321111   -0.041784
    147          1           0       -6.853323   -5.116514    1.043668
    148          1           0       -5.199784   -6.187067    1.812710
    149          1           0       -5.103509   -6.931233   -0.397527
    150          1           0       -3.920064   -5.652620   -0.836966
    151          1           0       -3.428195   -6.923315    0.321264
    152          7           0       -3.655809   -3.418512    2.018245
    153          6           0       -2.590320   -2.757901    2.739650
    154          6           0       -2.639091   -2.971145    4.247313
    155          8           0       -1.580943   -3.138456    4.854298
    156          6           0       -2.598415   -1.287011    2.366266
    157          6           0       -2.360623   -1.042616    0.872772
    158          6           0       -1.020116   -1.496310    0.297531
    159          8           0       -0.022236   -1.548440    1.045941
    160          8           0       -0.926509   -1.849617   -0.894363
    161          1           0       -4.358843   -2.849236    1.563307
    162          1           0       -1.611618   -3.161116    2.476096
    163          1           0       -1.798632   -0.766952    2.897290
    164          1           0       -3.553595   -0.829648    2.592209
    165          1           0       -2.371687    0.007894    0.602204
    166          1           0       -3.198212   -1.407052    0.292229
    167          7           0       -3.831516   -2.965849    4.849221
    168          6           0       -4.055527   -3.044524    6.281502
    169          1           0       -3.409070   -3.810614    6.708576
    170          1           0       -3.828293   -2.081749    6.739282
    171          1           0       -5.096977   -3.301325    6.473140
    172          1           0       -4.618032   -2.787900    4.243971
    173         20           0        2.433886   -0.771355    1.992728
    174          8           0        0.994541   -1.430723    4.076652
    175          1           0        0.308087   -1.991417    4.438044
    176          1           0        0.907795   -0.608796    4.548999
 ---------------------------------------------------------------------

 SCF Done:  E(RB3LYP) =  -5333.39074744     A.U. after   41 cycles

 The electronic state is 1-A.
 Alpha  occ. eigenvalues -- -145.45157 -19.17466 -19.16828 -19.14488 -19.13444
 Alpha  occ. eigenvalues --  -19.12917 -19.12337 -19.12029 -19.11811 -19.10977
 Alpha  occ. eigenvalues --  -19.10851 -19.10407 -19.09768 -19.09355 -19.09245
 Alpha  occ. eigenvalues --  -19.08265 -19.07553 -19.05814 -19.01876 -19.00744
 Alpha  occ. eigenvalues --  -19.00169 -18.98270 -18.96436 -18.95069 -15.50913
 Alpha  occ. eigenvalues --  -14.57335 -14.38938 -14.38110 -14.37933 -14.37137
 Alpha  occ. eigenvalues --  -14.36894 -14.36588 -14.36492 -14.36325 -14.35669
 Alpha  occ. eigenvalues --  -14.35636 -14.33868 -14.33805 -14.33088 -14.32396
 Alpha  occ. eigenvalues --  -12.64563 -12.64495 -12.64448 -10.33921 -10.32893
 Alpha  occ. eigenvalues --  -10.30970 -10.30953 -10.30864 -10.30011 -10.29534
 Alpha  occ. eigenvalues --  -10.29112 -10.28877 -10.28748 -10.28407 -10.27404
 Alpha  occ. eigenvalues --  -10.26910 -10.26553 -10.26471 -10.26377 -10.26180
 Alpha  occ. eigenvalues --  -10.25475 -10.25343 -10.24962 -10.24469 -10.24307
 Alpha  occ. eigenvalues --  -10.24237 -10.24082 -10.23436 -10.22914 -10.22847
 Alpha  occ. eigenvalues --  -10.22697 -10.22651 -10.22092 -10.21654 -10.20865
 Alpha  occ. eigenvalues --  -10.20471 -10.20270 -10.20257 -10.20207 -10.20184
 Alpha  occ. eigenvalues --  -10.20081 -10.20000 -10.19868 -10.19763 -10.19715
 Alpha  occ. eigenvalues --  -10.19324 -10.18636 -10.17990 -10.17522 -10.17476
 Alpha  occ. eigenvalues --  -10.15992 -10.15705 -10.15500 -10.14999 -10.14848
 Alpha  occ. eigenvalues --  -10.14230 -10.11391  -1.87255  -1.14975  -1.14505
 Alpha  occ. eigenvalues --   -1.14059  -1.12721  -1.07268  -1.06256  -1.05273
 Alpha  occ. eigenvalues --   -1.05266  -1.05119  -1.04303  -1.03828  -1.03647
 Alpha  occ. eigenvalues --   -1.03623  -1.03325  -1.02988  -1.02334  -1.02232
 Alpha  occ. eigenvalues --   -1.01736  -1.01355  -1.01282  -0.98923  -0.95896
 Alpha  occ. eigenvalues --   -0.95239  -0.94888  -0.94717  -0.94387  -0.94193
 Alpha  occ. eigenvalues --   -0.93526  -0.93332  -0.93114  -0.92208  -0.92079
 Alpha  occ. eigenvalues --   -0.91945  -0.91806  -0.90582  -0.90016  -0.89931
 Alpha  occ. eigenvalues --   -0.88805  -0.87996  -0.85870  -0.85334  -0.84116
 Alpha  occ. eigenvalues --   -0.81540  -0.81266  -0.80910  -0.80437  -0.80253
 Alpha  occ. eigenvalues --   -0.79691  -0.78502  -0.78137  -0.76960  -0.75918
 Alpha  occ. eigenvalues --   -0.75748  -0.75564  -0.75160  -0.74239  -0.73722
 Alpha  occ. eigenvalues --   -0.72749  -0.72326  -0.72300  -0.72066  -0.71863
 Alpha  occ. eigenvalues --   -0.70959  -0.70666  -0.68826  -0.68206  -0.67762
 Alpha  occ. eigenvalues --   -0.67594  -0.66581  -0.66195  -0.64347  -0.64211
 Alpha  occ. eigenvalues --   -0.64149  -0.63397  -0.63064  -0.62479  -0.62079
 Alpha  occ. eigenvalues --   -0.61746  -0.61326  -0.61115  -0.60959  -0.60639
 Alpha  occ. eigenvalues --   -0.60478  -0.60223  -0.59742  -0.59577  -0.59107
 Alpha  occ. eigenvalues --   -0.58683  -0.58559  -0.58125  -0.57616  -0.57364
 Alpha  occ. eigenvalues --   -0.57091  -0.56709  -0.56319  -0.56264  -0.56040
 Alpha  occ. eigenvalues --   -0.55672  -0.55498  -0.54866  -0.54137  -0.54024
 Alpha  occ. eigenvalues --   -0.53834  -0.53211  -0.52798  -0.52609  -0.51890
 Alpha  occ. eigenvalues --   -0.51686  -0.51284  -0.51207  -0.51140  -0.50760
 Alpha  occ. eigenvalues --   -0.50694  -0.50387  -0.49859  -0.49819  -0.49759
 Alpha  occ. eigenvalues --   -0.49400  -0.49328  -0.49242  -0.48655  -0.48381
 Alpha  occ. eigenvalues --   -0.48287  -0.48182  -0.47584  -0.47495  -0.47213
 Alpha  occ. eigenvalues --   -0.46643  -0.46549  -0.46370  -0.46332  -0.46185
 Alpha  occ. eigenvalues --   -0.46057  -0.45977  -0.45791  -0.45551  -0.45118
 Alpha  occ. eigenvalues --   -0.44848  -0.44715  -0.44314  -0.44216  -0.43895
 Alpha  occ. eigenvalues --   -0.43780  -0.43544  -0.43483  -0.43433  -0.43305
 Alpha  occ. eigenvalues --   -0.43246  -0.43087  -0.42836  -0.42768  -0.42703
 Alpha  occ. eigenvalues --   -0.42449  -0.42350  -0.42270  -0.42115  -0.41956
 Alpha  occ. eigenvalues --   -0.41942  -0.41804  -0.41561  -0.40998  -0.40991
 Alpha  occ. eigenvalues --   -0.40875  -0.40494  -0.40415  -0.40367  -0.40257
 Alpha  occ. eigenvalues --   -0.40175  -0.40150  -0.40022  -0.39952  -0.39779
 Alpha  occ. eigenvalues --   -0.39449  -0.39289  -0.39155  -0.39013  -0.38797
 Alpha  occ. eigenvalues --   -0.38748  -0.38537  -0.38425  -0.38240  -0.38078
 Alpha  occ. eigenvalues --   -0.37934  -0.37896  -0.37679  -0.37623  -0.37464
 Alpha  occ. eigenvalues --   -0.37298  -0.37095  -0.37005  -0.36802  -0.36687
 Alpha  occ. eigenvalues --   -0.36650  -0.36338  -0.36268  -0.35812  -0.35741
 Alpha  occ. eigenvalues --   -0.35099  -0.35008  -0.34674  -0.34507  -0.34404
 Alpha  occ. eigenvalues --   -0.34282  -0.34197  -0.34173  -0.33960  -0.33506
 Alpha  occ. eigenvalues --   -0.33264  -0.33205  -0.32099  -0.32020  -0.31834
 Alpha  occ. eigenvalues --   -0.31753  -0.31352  -0.31117  -0.31003  -0.30705
 Alpha  occ. eigenvalues --   -0.30322  -0.30093  -0.29793  -0.29533  -0.29483
 Alpha  occ. eigenvalues --   -0.29014  -0.28907  -0.28886  -0.28656  -0.28362
 Alpha  occ. eigenvalues --   -0.27958  -0.27781  -0.27674  -0.27592  -0.27485
 Alpha  occ. eigenvalues --   -0.27329  -0.26653  -0.26606  -0.26474  -0.26233
 Alpha  occ. eigenvalues --   -0.26084  -0.26066  -0.26029  -0.25595  -0.25433
 Alpha  occ. eigenvalues --   -0.25361  -0.24619  -0.24163  -0.23704  -0.23655
 Alpha  occ. eigenvalues --   -0.23338  -0.23190  -0.23160  -0.20389  -0.18705
 Alpha  occ. eigenvalues --   -0.18362  -0.17806  -0.17470  -0.16030  -0.14246
 Alpha  occ. eigenvalues --   -0.13535  -0.13124  -0.10846
 Alpha virt. eigenvalues --   -0.09490  -0.04210  -0.03690  -0.02666  -0.02493
 Alpha virt. eigenvalues --   -0.02231  -0.01477  -0.01222  -0.00620  -0.00593
 Alpha virt. eigenvalues --    0.00109   0.00124   0.00566   0.00629   0.00814

 Mulliken charges:
               1
     1  C    0.050449
     2  C    0.078513
     3  O   -0.397824
     4  H    0.039435
     5  H    0.028261
     6  H    0.050021
     7  N   -0.109619
     8  C    0.013482
     9  C    0.175723
    10  O   -0.352312
    11  C    0.085009
    12  C    0.041645
    13  O   -0.396096
    14  O   -0.365711
    15  H    0.138834
    16  H   -0.008215
    17  H   -0.008878
    18  H   -0.001610
    19  N   -0.111514
    20  C    0.142262
    21  C    0.022992
    22  O   -0.269829
    23  C   -0.033249
    24  C   -0.007369
    25  C   -0.041572
    26  C    0.054517
    27  N    0.106176
    28  H    0.122981
    29  H   -0.004782
    30  H    0.006406
    31  H    0.041681
    32  H    0.041190
    33  H   -0.008836
    34  H    0.012679
    35  H    0.059755
    36  H    0.051727
    37  H    0.088603
    38  H    0.165410
    39  H    0.155789
    40  H    0.185174
    41  N   -0.149587
    42  C    0.122573
    43  C    0.109759
    44  O   -0.278149
    45  C    0.057170
    46  C    0.059989
    47  O   -0.364054
    48  O   -0.384416
    49  H    0.113271
    50  H    0.014853
    51  H   -0.050205
    52  H    0.006894
    53  N   -0.164357
    54  C    0.186367
    55  C    0.058045
    56  O   -0.373384
    57  H    0.136144
    58  H    0.062339
    59  H    0.044489
    60  N   -0.078194
    61  C    0.030892
    62  C    0.108603
    63  O   -0.272780
    64  C    0.104584
    65  C   -0.025576
    66  N   -0.043550
    67  O   -0.246266
    68  H    0.130349
    69  H    0.035156
    70  H    0.040857
    71  H   -0.002452
    72  H    0.132345
    73  H    0.122821
    74  N   -0.142163
    75  C    0.185316
    76  C    0.065294
    77  O   -0.269031
    78  H    0.125076
    79  H    0.074264
    80  H    0.010364
    81  N   -0.146460
    82  C    0.095582
    83  C    0.104093
    84  O   -0.268569
    85  C    0.160030
    86  C   -0.035081
    87  C    0.025179
    88  C    0.025894
    89  C   -0.047943
    90  C   -0.055160
    91  C    0.184231
    92  O   -0.194265
    93  H    0.118724
    94  H    0.024114
    95  H   -0.037443
    96  H    0.010730
    97  H   -0.037877
    98  H   -0.056580
    99  H   -0.024985
   100  H   -0.042329
   101  H    0.173662
   102  N   -0.135462
   103  C    0.155023
   104  C    0.099097
   105  O   -0.259946
   106  C   -0.127287
   107  C   -0.043833
   108  C    0.088973
   109  C    0.038865
   110  H    0.137181
   111  H    0.027554
   112  H    0.004890
   113  H    0.005364
   114  H   -0.005884
   115  H    0.032979
   116  H   -0.016009
   117  H    0.005198
   118  H    0.007508
   119  H    0.043901
   120  H   -0.000735
   121  N   -0.148666
   122  C    0.119652
   123  C    0.046328
   124  O   -0.268656
   125  C    0.228894
   126  O   -0.305526
   127  H    0.116251
   128  H    0.046175
   129  H   -0.032290
   130  H    0.010768
   131  H    0.166383
   132  N   -0.134297
   133  C    0.102095
   134  C    0.069121
   135  O   -0.268068
   136  C    0.040154
   137  H    0.103486
   138  H    0.006638
   139  H    0.041573
   140  H    0.033240
   141  H   -0.000702
   142  N   -0.119605
   143  C    0.062347
   144  C    0.062119
   145  O   -0.275587
   146  C    0.060365
   147  H    0.122537
   148  H    0.013770
   149  H   -0.000818
   150  H    0.056058
   151  H    0.051333
   152  N   -0.122292
   153  C    0.138165
   154  C    0.060570
   155  O   -0.300097
   156  C    0.067412
   157  C    0.012147
   158  C    0.076896
   159  O   -0.473545
   160  O   -0.306010
   161  H    0.111719
   162  H    0.034270
   163  H   -0.028047
   164  H   -0.058800
   165  H   -0.001279
   166  H   -0.020356
   167  N   -0.147608
   168  C    0.135587
   169  H    0.044448
   170  H    0.022580
   171  H    0.013555
   172  H    0.100759
   173  Ca   1.418488
   174  O   -0.311419
   175  H    0.192318
   176  H    0.167596
 Sum of Mulliken charges =  -0.00000

 Dipole moment (field-independent basis, Debye):
    X=             12.4861    Y=             -5.6265    Z=              4.2255  Tot=             14.3323
 Quadrupole moment (field-independent basis, Debye-Ang):
   XX=           -406.8336   YY=           -416.2371   ZZ=           -548.4204
   XY=           -153.8005   XZ=           -216.2097   YZ=             64.4804

 ESP charges:
               1
     1  C   -0.463946
     2  C    0.818277
     3  O   -0.720575
     4  H    0.133055
     5  H    0.129223
     6  H    0.137765
     7  N   -0.634651
     8  C    0.257332
     9  C    0.589123
    10  O   -0.601534
    11  C   -0.197333
    12  C    0.743824
    13  O   -0.713309
    14  O   -0.672721
    15  H    0.292771
    16  H    0.024184
    17  H    0.035819
    18  H    0.031922
    19  N   -0.445213
    20  C   -0.139893
    21  C    0.735986
    22  O   -0.602934
    23  C   -0.004851
    24  C   -0.083735
    25  C   -0.047729
    26  C    0.074092
    27  N   -0.372251
    28  H    0.250436
    29  H    0.135066
    30  H    0.061596
    31  H    0.076128
    32  H    0.062056
    33  H    0.013176
    34  H    0.021723
    35  H    0.068906
    36  H    0.046786
    37  H    0.090425
    38  H    0.309883
    39  H    0.314571
    40  H    0.318098
    41  N   -0.606472
    42  C    0.175763
    43  C    0.617108
    44  O   -0.540629
    45  C   -0.278888
    46  C    0.789206
    47  O   -0.678892
    48  O   -0.700195
    49  H    0.232890
    50  H    0.055200
    51  H    0.028004
    52  H    0.063429
    53  N   -0.586726
    54  C    0.012768
    55  C    0.756723
    56  O   -0.777756
    57  H    0.355736
    58  H    0.101360
    59  H    0.091499
    60  N   -0.613982
    61  C    0.322176
    62  C    0.366022
    63  O   -0.528707
    64  C   -0.339892
    65  C    0.700164
    66  N   -0.842872
    67  O   -0.541705
    68  H    0.361997
    69  H   -0.020775
    70  H    0.112357
    71  H    0.096705
    72  H    0.391217
    73  H    0.376628
    74  N   -0.195345
    75  C   -0.397030
    76  C    0.816346
    77  O   -0.611879
    78  H    0.260328
    79  H    0.164824
    80  H    0.152352
    81  N   -0.629738
    82  C    0.242739
    83  C    0.589498
    84  O   -0.529116
    85  C   -0.464321
    86  C    0.352424
    87  C   -0.337372
    88  C   -0.252976
    89  C   -0.183329
    90  C   -0.304428
    91  C    0.377791
    92  O   -0.558707
    93  H    0.300863
    94  H    0.084107
    95  H    0.089783
    96  H    0.140820
    97  H    0.187504
    98  H    0.166474
    99  H    0.130935
   100  H    0.132326
   101  H    0.418672
   102  N   -0.577110
   103  C   -0.000347
   104  C    0.446237
   105  O   -0.512481
   106  C    0.242594
   107  C    0.201776
   108  C   -0.409280
   109  C   -0.367666
   110  H    0.241969
   111  H    0.109591
   112  H    0.024928
   113  H   -0.030885
   114  H   -0.035648
   115  H    0.101857
   116  H    0.085035
   117  H    0.092956
   118  H    0.085342
   119  H    0.093208
   120  H    0.086698
   121  N   -0.180972
   122  C   -0.073272
   123  C    0.413740
   124  O   -0.512230
   125  C    0.248898
   126  O   -0.623043
   127  H    0.244334
   128  H    0.146515
   129  H   -0.028824
   130  H    0.023447
   131  H    0.407883
   132  N   -0.302769
   133  C    0.089733
   134  C    0.738530
   135  O   -0.536435
   136  C   -0.316875
   137  H    0.133775
   138  H    0.051078
   139  H    0.126735
   140  H    0.107112
   141  H    0.084466
   142  N   -0.962859
   143  C    0.679814
   144  C    0.103496
   145  O   -0.459990
   146  C   -0.255300
   147  H    0.393052
   148  H   -0.043021
   149  H    0.038394
   150  H    0.109590
   151  H    0.075908
   152  N   -0.044859
   153  C   -0.221269
   154  C    0.428833
   155  O   -0.513118
   156  C    0.249667
   157  C   -0.302468
   158  C    0.767770
   159  O   -0.845878
   160  O   -0.604741
   161  H    0.145958
   162  H    0.217337
   163  H   -0.056814
   164  H   -0.074673
   165  H    0.064219
   166  H    0.053534
   167  N   -0.184090
   168  C   -0.209675
   169  H    0.118651
   170  H    0.081318
   171  H    0.100644
   172  H    0.187137
   173  Ca   1.669491
   174  O   -0.779810
   175  H    0.405098
   176  H    0.383497
 Sum of ESP charges =   0.00000

 Normal termination of Gaussian 16 at Wed Sep 18 19:36:11 2019.
