 Gaussian 16, Revision A.03,
 Gaussian 16:  ES64L-G16RevA.03 25-Dec-2016

 ----------------------------------------------------------------------
 #b3lyp/svp scf=(tight,noincore) Test #IOP(5/87=12) Density=Current Pop
 =(MK,readradii) iop(6/33=2) iop(6/42=6)
 ----------------------------------------------------------------------

 ----------------
 Ng-31_loop3_25.0
 ----------------
 Symbolic Z-matrix:
 Charge =  0 Multiplicity = 1

                         Standard orientation:
 ---------------------------------------------------------------------
 Center     Atomic      Atomic             Coordinates (Angstroms)
 Number     Number       Type             X           Y           Z
 ---------------------------------------------------------------------
      1          6           0        7.377180   -1.685533    5.026035
      2          6           0        6.490631   -1.060662    3.958670
      3          8           0        5.551255   -0.308399    4.213569
      4          1           0        8.225067   -2.178360    4.550201
      5          1           0        7.739947   -0.908509    5.698606
      6          1           0        6.802829   -2.418627    5.592449
      7          7           0        6.778054   -1.325295    2.688648
      8          6           0        6.200464   -0.639749    1.549430
      9          6           0        5.155514   -1.454688    0.795206
     10          8           0        4.497803   -0.896686   -0.078092
     11          6           0        7.233420   -0.003284    0.623357
     12          6           0        8.221590   -1.064204    0.152009
     13          8           0        9.041174   -1.557739    0.946305
     14          8           0        8.321941   -1.316773   -1.067433
     15          1           0        7.552218   -1.917235    2.434920
     16          1           0        5.583753    0.193611    1.894942
     17          1           0        7.766384    0.693368    1.273762
     18          1           0        6.805916    0.540908   -0.209767
     19          7           0        4.949563   -2.720664    1.171754
     20          6           0        3.896137   -3.610272    0.734156
     21          6           0        3.992749   -3.860345   -0.756726
     22          8           0        5.098924   -3.978437   -1.281448
     23          6           0        4.082690   -4.949509    1.445031
     24          6           0        3.531575   -4.905386    2.875809
     25          6           0        3.938488   -6.083739    3.768225
     26          6           0        3.456591   -5.824140    5.190084
     27          7           0        2.023166   -6.141657    5.264748
     28          1           0        5.581608   -3.000365    1.909444
     29          1           0        2.921656   -3.218728    1.016431
     30          1           0        5.114001   -5.302915    1.482468
     31          1           0        3.538108   -5.741954    0.912900
     32          1           0        2.465577   -4.724464    2.942996
     33          1           0        4.150092   -4.088663    3.256466
     34          1           0        4.999955   -6.299916    3.789561
     35          1           0        3.502528   -6.976977    3.325772
     36          1           0        3.727064   -4.800127    5.455868
     37          1           0        3.996655   -6.419981    5.918029
     38          1           0        1.540593   -5.648075    4.530650
     39          1           0        1.837467   -7.107680    5.006066
     40          1           0        1.658584   -6.193025    6.206153
     41          7           0        2.895509   -3.968907   -1.501157
     42          6           0        2.791263   -3.778943   -2.934386
     43          6           0        2.431007   -2.324856   -3.227724
     44          8           0        1.752067   -2.001988   -4.194625
     45          6           0        1.829897   -4.800804   -3.531777
     46          6           0        0.454913   -4.934322   -2.897355
     47          8           0        0.077265   -4.383725   -1.843398
     48          8           0       -0.337528   -5.767924   -3.387399
     49          1           0        2.000396   -3.862978   -1.045030
     50          1           0        3.764680   -3.945098   -3.396935
     51          1           0        2.287411   -5.778160   -3.377968
     52          1           0        1.734807   -4.591615   -4.597656
     53          7           0        3.001791   -1.420000   -2.433722
     54          6           0        2.797511    0.000509   -2.596891
     55          6           0        3.743459    0.505400   -3.676970
     56          8           0        4.707879   -0.155332   -4.048893
     57          1           0        3.479958   -1.760957   -1.611953
     58          1           0        2.864755    0.617714   -1.694707
     59          1           0        1.789204    0.130812   -3.002155
     60          7           0        3.644685    1.755334   -4.115044
     61          6           0        2.747338    2.809092   -3.683696
     62          6           0        3.509908    4.125261   -3.707886
     63          8           0        3.485490    4.863851   -4.688085
     64          6           0        1.526843    2.872289   -4.598737
     65          6           0        0.594246    1.666236   -4.612822
     66          7           0        0.680020    0.777608   -5.603974
     67          8           0       -0.306608    1.506056   -3.802078
     68          1           0        4.349850    1.991779   -4.803765
     69          1           0        2.451705    2.626632   -2.649767
     70          1           0        1.937883    3.028735   -5.600970
     71          1           0        0.949807    3.731082   -4.272695
     72          1           0        1.335575    0.907313   -6.363727
     73          1           0       -0.065119    0.108536   -5.721068
     74          7           0        4.256173    4.571182   -2.683268
     75          6           0        4.649864    3.860435   -1.494593
     76          6           0        3.515470    3.626704   -0.505948
     77          8           0        3.515823    2.607883    0.177281
     78          1           0        4.558371    5.534699   -2.724622
     79          1           0        5.272149    4.621139   -1.025348
     80          1           0        5.244087    2.955959   -1.680930
     81          7           0        2.533699    4.515780   -0.369307
     82          6           0        1.296754    4.278764    0.349574
     83          6           0        0.198237    3.644423   -0.493617
     84          8           0        0.160480    3.924283   -1.694471
     85          6           0        0.882538    5.493150    1.179148
     86          6           0        1.841059    5.879667    2.281346
     87          6           0        2.153782    4.986791    3.318783
     88          6           0        2.307183    7.197957    2.328677
     89          6           0        2.885562    5.350209    4.457785
     90          6           0        2.965786    7.638103    3.475287
     91          6           0        3.222847    6.708505    4.505417
     92          8           0        3.962327    7.079646    5.588018
     93          1           0        2.547247    5.313974   -0.993969
     94          1           0        1.547949    3.500020    1.076869
     95          1           0       -0.033954    5.219856    1.692133
     96          1           0        0.673256    6.366046    0.562663
     97          1           0        1.827921    3.960471    3.240154
     98          1           0        2.157982    7.930621    1.548713
     99          1           0        3.069927    4.568797    5.173819
    100          1           0        3.232217    8.683721    3.458022
    101          1           0        4.155452    8.018976    5.595836
    102          7           0       -0.678980    2.871845    0.135441
    103          6           0       -1.520715    1.888065   -0.497140
    104          6           0       -2.936538    2.322809   -0.847204
    105          8           0       -3.475062    1.753036   -1.805457
    106          6           0       -1.666703    0.695949    0.447342
    107          6           0       -1.457196   -0.590535   -0.349129
    108          6           0       -0.984095    0.804381    1.805351
    109          6           0       -0.070393   -0.914427   -0.909818
    110          1           0       -0.682567    2.830158    1.152274
    111          1           0       -0.977021    1.558481   -1.381149
    112          1           0       -2.683687    0.699944    0.825003
    113          1           0       -2.134276   -0.762591   -1.183191
    114          1           0       -1.625540   -1.373196    0.391277
    115          1           0        0.088078    0.746188    1.690210
    116          1           0       -1.384350    1.686227    2.311163
    117          1           0       -1.223766   -0.079458    2.406921
    118          1           0        0.729941   -0.611707   -0.234299
    119          1           0        0.018174   -1.982526   -1.102483
    120          1           0        0.098470   -0.430850   -1.875498
    121          7           0       -3.550442    3.254790   -0.115472
    122          6           0       -4.868377    3.781835   -0.402300
    123          6           0       -5.941609    3.148422    0.486779
    124          8           0       -5.817609    3.216149    1.706220
    125          6           0       -4.987022    5.290592   -0.224326
    126          8           0       -4.023177    5.938389   -1.009350
    127          1           0       -3.073724    3.611591    0.700576
    128          1           0       -5.159827    3.503292   -1.421698
    129          1           0       -4.974976    5.674172    0.794359
    130          1           0       -5.972873    5.550400   -0.589289
    131          1           0       -3.823606    6.737307   -0.509248
    132          7           0       -6.992049    2.750423   -0.227065
    133          6           0       -8.132670    2.069842    0.344944
    134          6           0       -8.121429    0.575713    0.090482
    135          8           0       -7.521281    0.018180   -0.817031
    136          6           0       -9.390976    2.629229   -0.312288
    137          1           0       -7.026670    3.061139   -1.196320
    138          1           0       -8.077002    2.210981    1.428586
    139          1           0      -10.228263    2.252980    0.278972
    140          1           0       -9.323069    3.706013   -0.410896
    141          1           0       -9.367565    2.197254   -1.316802
    142          7           0       -8.955819   -0.169771    0.831931
    143          6           0       -9.048265   -1.612843    0.905406
    144          6           0       -7.772076   -2.421565    1.160379
    145          8           0       -7.574698   -3.519355    0.657587
    146          6           0      -10.037253   -2.102882   -0.142432
    147          1           0       -9.553060    0.301485    1.493990
    148          1           0       -9.616326   -1.846803    1.809988
    149          1           0       -9.714766   -1.928945   -1.173862
    150          1           0      -10.327388   -3.133450    0.020818
    151          1           0      -10.961350   -1.532786   -0.032728
    152          7           0       -6.834960   -1.760770    1.827359
    153          6           0       -5.483079   -2.245532    2.053691
    154          6           0       -5.048161   -2.375516    3.499495
    155          8           0       -4.376153   -3.343556    3.861163
    156          6           0       -4.532833   -1.396215    1.221710
    157          6           0       -4.838117   -1.575773   -0.271830
    158          6           0       -4.414869   -2.963679   -0.749823
    159          8           0       -3.566880   -3.629400   -0.127705
    160          8           0       -4.719721   -3.281752   -1.920077
    161          1           0       -6.969988   -0.792884    2.097476
    162          1           0       -5.379713   -3.269700    1.691760
    163          1           0       -3.471082   -1.597441    1.371017
    164          1           0       -4.735306   -0.373316    1.523839
    165          1           0       -4.329297   -0.829975   -0.875060
    166          1           0       -5.902849   -1.573466   -0.507290
    167          7           0       -5.414224   -1.368316    4.305502
    168          6           0       -5.160680   -1.142275    5.713238
    169          1           0       -6.089613   -0.857100    6.207730
    170          1           0       -4.774793   -2.056332    6.164334
    171          1           0       -4.428275   -0.342967    5.827099
    172          1           0       -6.074274   -0.694134    3.933599
    173         20           0       -2.487351   -5.144776   -2.090268
    174          8           0       -1.899596   -2.914957   -3.362490
    175          1           0       -2.160850   -1.988829   -3.399005
    176          1           0       -1.446296   -3.068607   -4.195743
 ---------------------------------------------------------------------

 SCF Done:  E(RB3LYP) =  -5333.33772722     A.U. after   31 cycles

 The electronic state is 1-A.
 Alpha  occ. eigenvalues -- -145.45230 -19.15727 -19.15434 -19.13790 -19.11544
 Alpha  occ. eigenvalues --  -19.11242 -19.09576 -19.09185 -19.08609 -19.08251
 Alpha  occ. eigenvalues --  -19.08198 -19.08035 -19.08017 -19.07674 -19.06606
 Alpha  occ. eigenvalues --  -19.06327 -19.06228 -19.06133 -19.05671 -19.05623
 Alpha  occ. eigenvalues --  -19.04877 -19.04384 -18.96681 -18.95931 -15.51144
 Alpha  occ. eigenvalues --  -14.56383 -14.37752 -14.37696 -14.36312 -14.35977
 Alpha  occ. eigenvalues --  -14.35365 -14.34912 -14.34756 -14.34658 -14.33558
 Alpha  occ. eigenvalues --  -14.32621 -14.32254 -14.32111 -14.31206 -14.30128
 Alpha  occ. eigenvalues --  -12.64751 -12.64737 -12.64633 -10.34017 -10.29977
 Alpha  occ. eigenvalues --  -10.29477 -10.28847 -10.28061 -10.27358 -10.27303
 Alpha  occ. eigenvalues --  -10.27161 -10.27095 -10.27092 -10.26738 -10.25917
 Alpha  occ. eigenvalues --  -10.25704 -10.25605 -10.25210 -10.25165 -10.24953
 Alpha  occ. eigenvalues --  -10.24941 -10.24625 -10.24540 -10.24029 -10.23883
 Alpha  occ. eigenvalues --  -10.23878 -10.23700 -10.23662 -10.23484 -10.22525
 Alpha  occ. eigenvalues --  -10.22366 -10.22316 -10.22278 -10.21982 -10.21463
 Alpha  occ. eigenvalues --  -10.20948 -10.20515 -10.19877 -10.19129 -10.18898
 Alpha  occ. eigenvalues --  -10.18895 -10.18838 -10.18635 -10.18617 -10.18611
 Alpha  occ. eigenvalues --  -10.18380 -10.18225 -10.18157 -10.17668 -10.17480
 Alpha  occ. eigenvalues --  -10.17149 -10.16806 -10.15691 -10.15679 -10.14817
 Alpha  occ. eigenvalues --  -10.13942 -10.11240  -1.87780  -1.15317  -1.15144
 Alpha  occ. eigenvalues --   -1.14484  -1.12159  -1.05165  -1.04369  -1.04094
 Alpha  occ. eigenvalues --   -1.03720  -1.02818  -1.02538  -1.02308  -1.01788
 Alpha  occ. eigenvalues --   -1.01630  -1.01422  -1.01036  -1.00718  -1.00486
 Alpha  occ. eigenvalues --   -1.00282  -0.99667  -0.99456  -0.98914  -0.98718
 Alpha  occ. eigenvalues --   -0.97937  -0.94952  -0.94394  -0.93057  -0.92418
 Alpha  occ. eigenvalues --   -0.92132  -0.91699  -0.91668  -0.91430  -0.91101
 Alpha  occ. eigenvalues --   -0.91020  -0.90465  -0.89833  -0.89672  -0.89104
 Alpha  occ. eigenvalues --   -0.88564  -0.87746  -0.86636  -0.86608  -0.84931
 Alpha  occ. eigenvalues --   -0.81975  -0.81835  -0.80691  -0.80574  -0.78875
 Alpha  occ. eigenvalues --   -0.78510  -0.77189  -0.77045  -0.76129  -0.75482
 Alpha  occ. eigenvalues --   -0.75226  -0.74893  -0.73823  -0.73461  -0.73217
 Alpha  occ. eigenvalues --   -0.72763  -0.71862  -0.71297  -0.70452  -0.70045
 Alpha  occ. eigenvalues --   -0.69951  -0.69291  -0.69218  -0.68486  -0.67003
 Alpha  occ. eigenvalues --   -0.66799  -0.66237  -0.65467  -0.64552  -0.64405
 Alpha  occ. eigenvalues --   -0.63513  -0.62601  -0.62208  -0.61947  -0.61540
 Alpha  occ. eigenvalues --   -0.61200  -0.60788  -0.60515  -0.59562  -0.59509
 Alpha  occ. eigenvalues --   -0.59030  -0.58857  -0.58810  -0.58440  -0.57934
 Alpha  occ. eigenvalues --   -0.57840  -0.57388  -0.56890  -0.56499  -0.55878
 Alpha  occ. eigenvalues --   -0.55580  -0.55552  -0.54914  -0.54779  -0.54678
 Alpha  occ. eigenvalues --   -0.53881  -0.53875  -0.53393  -0.53266  -0.53093
 Alpha  occ. eigenvalues --   -0.52435  -0.52018  -0.51831  -0.51802  -0.51355
 Alpha  occ. eigenvalues --   -0.51012  -0.50592  -0.50320  -0.49669  -0.49572
 Alpha  occ. eigenvalues --   -0.49215  -0.49042  -0.48784  -0.48669  -0.48361
 Alpha  occ. eigenvalues --   -0.47892  -0.47856  -0.47588  -0.47481  -0.47265
 Alpha  occ. eigenvalues --   -0.47020  -0.46894  -0.46655  -0.46534  -0.46175
 Alpha  occ. eigenvalues --   -0.45465  -0.45353  -0.45135  -0.44966  -0.44862
 Alpha  occ. eigenvalues --   -0.44748  -0.44554  -0.44525  -0.44306  -0.43960
 Alpha  occ. eigenvalues --   -0.43859  -0.43717  -0.43593  -0.43552  -0.43222
 Alpha  occ. eigenvalues --   -0.43183  -0.43133  -0.43064  -0.42705  -0.42574
 Alpha  occ. eigenvalues --   -0.42455  -0.42347  -0.42305  -0.42172  -0.42106
 Alpha  occ. eigenvalues --   -0.41746  -0.41522  -0.41386  -0.41350  -0.41164
 Alpha  occ. eigenvalues --   -0.40980  -0.40952  -0.40844  -0.40503  -0.40486
 Alpha  occ. eigenvalues --   -0.40330  -0.40299  -0.39850  -0.39756  -0.39680
 Alpha  occ. eigenvalues --   -0.39594  -0.39301  -0.39271  -0.39138  -0.38969
 Alpha  occ. eigenvalues --   -0.38902  -0.38580  -0.38543  -0.38373  -0.38241
 Alpha  occ. eigenvalues --   -0.38137  -0.37998  -0.37823  -0.37780  -0.37746
 Alpha  occ. eigenvalues --   -0.37662  -0.37499  -0.37329  -0.37080  -0.36863
 Alpha  occ. eigenvalues --   -0.36754  -0.36712  -0.36586  -0.36452  -0.36132
 Alpha  occ. eigenvalues --   -0.35830  -0.35617  -0.35582  -0.35313  -0.35148
 Alpha  occ. eigenvalues --   -0.34931  -0.34706  -0.34637  -0.34568  -0.34432
 Alpha  occ. eigenvalues --   -0.34242  -0.34031  -0.33908  -0.33874  -0.33047
 Alpha  occ. eigenvalues --   -0.33030  -0.32889  -0.32842  -0.32682  -0.32547
 Alpha  occ. eigenvalues --   -0.32191  -0.31753  -0.31457  -0.31003  -0.29987
 Alpha  occ. eigenvalues --   -0.29762  -0.29078  -0.28269  -0.28048  -0.27683
 Alpha  occ. eigenvalues --   -0.27554  -0.27535  -0.27426  -0.26882  -0.26743
 Alpha  occ. eigenvalues --   -0.26638  -0.26434  -0.26185  -0.25956  -0.25667
 Alpha  occ. eigenvalues --   -0.25474  -0.25273  -0.25072  -0.24701  -0.24588
 Alpha  occ. eigenvalues --   -0.24523  -0.24228  -0.24009  -0.23972  -0.23790
 Alpha  occ. eigenvalues --   -0.23784  -0.23369  -0.22865  -0.22813  -0.22381
 Alpha  occ. eigenvalues --   -0.22306  -0.22003  -0.21877  -0.21805  -0.21660
 Alpha  occ. eigenvalues --   -0.21637  -0.20960  -0.20654  -0.20552  -0.20132
 Alpha  occ. eigenvalues --   -0.13891  -0.13639  -0.10561
 Alpha virt. eigenvalues --   -0.09518  -0.08091  -0.04083  -0.03171  -0.01563
 Alpha virt. eigenvalues --   -0.00978  -0.00762  -0.00520  -0.00146   0.00247
 Alpha virt. eigenvalues --    0.01295   0.01671   0.01827   0.01876   0.01926

 Mulliken charges:
               1
     1  C    0.071438
     2  C   -0.011466
     3  O   -0.302856
     4  H    0.021694
     5  H    0.040695
     6  H   -0.007259
     7  N   -0.144214
     8  C    0.065235
     9  C    0.092244
    10  O   -0.286099
    11  C    0.139848
    12  C    0.005752
    13  O   -0.378273
    14  O   -0.312244
    15  H    0.111156
    16  H    0.035719
    17  H   -0.019150
    18  H    0.001007
    19  N   -0.096834
    20  C    0.156011
    21  C    0.030296
    22  O   -0.245104
    23  C    0.022525
    24  C   -0.016836
    25  C   -0.043491
    26  C    0.072648
    27  N    0.138908
    28  H    0.106126
    29  H   -0.012313
    30  H    0.032108
    31  H    0.004579
    32  H   -0.010761
    33  H    0.018204
    34  H    0.047201
    35  H    0.010188
    36  H    0.084246
    37  H    0.049829
    38  H    0.146131
    39  H    0.117538
    40  H    0.130191
    41  N   -0.160135
    42  C    0.121984
    43  C    0.060216
    44  O   -0.301763
    45  C    0.114787
    46  C    0.094535
    47  O   -0.409624
    48  O   -0.469585
    49  H    0.118088
    50  H    0.052526
    51  H    0.018596
    52  H    0.030421
    53  N   -0.117085
    54  C    0.146088
    55  C    0.006971
    56  O   -0.249295
    57  H    0.127874
    58  H    0.064018
    59  H    0.051526
    60  N   -0.132470
    61  C    0.025908
    62  C    0.061733
    63  O   -0.265685
    64  C    0.181201
    65  C   -0.024704
    66  N   -0.021101
    67  O   -0.246717
    68  H    0.123209
    69  H    0.045503
    70  H   -0.010908
    71  H    0.030047
    72  H    0.109936
    73  H    0.117019
    74  N   -0.146336
    75  C    0.224270
    76  C   -0.012795
    77  O   -0.260788
    78  H    0.125479
    79  H    0.019349
    80  H    0.071298
    81  N   -0.107533
    82  C    0.068467
    83  C    0.102939
    84  O   -0.267472
    85  C    0.171096
    86  C    0.027544
    87  C   -0.029900
    88  C   -0.047927
    89  C    0.002614
    90  C   -0.037113
    91  C    0.193179
    92  O   -0.206187
    93  H    0.101632
    94  H    0.013769
    95  H   -0.021219
    96  H   -0.014935
    97  H   -0.025459
    98  H   -0.037850
    99  H   -0.018376
   100  H   -0.041331
   101  H    0.167322
   102  N   -0.134394
   103  C    0.126789
   104  C    0.098445
   105  O   -0.277218
   106  C   -0.103931
   107  C    0.024482
   108  C    0.051821
   109  C   -0.050253
   110  H    0.108590
   111  H    0.051529
   112  H   -0.014027
   113  H    0.008085
   114  H   -0.008717
   115  H    0.028772
   116  H    0.000933
   117  H    0.003911
   118  H   -0.001181
   119  H    0.023210
   120  H    0.031675
   121  N   -0.108080
   122  C    0.109273
   123  C    0.057611
   124  O   -0.291169
   125  C    0.240221
   126  O   -0.278127
   127  H    0.099455
   128  H    0.007319
   129  H   -0.005373
   130  H   -0.036631
   131  H    0.162249
   132  N   -0.113990
   133  C    0.066499
   134  C    0.055418
   135  O   -0.228200
   136  C    0.066861
   137  H    0.140309
   138  H    0.005677
   139  H    0.014951
   140  H    0.030772
   141  H    0.032088
   142  N   -0.138040
   143  C    0.036709
   144  C    0.089586
   145  O   -0.241978
   146  C    0.083524
   147  H    0.108964
   148  H    0.010157
   149  H    0.042389
   150  H    0.018075
   151  H   -0.022532
   152  N   -0.144675
   153  C    0.085601
   154  C    0.072382
   155  O   -0.275150
   156  C    0.060392
   157  C    0.035809
   158  C    0.099072
   159  O   -0.447280
   160  O   -0.402848
   161  H    0.106834
   162  H    0.033034
   163  H    0.016159
   164  H   -0.034583
   165  H    0.037223
   166  H    0.049174
   167  N   -0.166018
   168  C    0.124742
   169  H    0.017512
   170  H    0.035034
   171  H    0.026781
   172  H    0.098376
   173  Ca   1.334119
   174  O   -0.302470
   175  H    0.202681
   176  H    0.184129
 Sum of Mulliken charges =  -0.00000

 Dipole moment (field-independent basis, Debye):
    X=            -26.0948    Y=             -9.8680    Z=             24.1776  Tot=             36.9171
 Quadrupole moment (field-independent basis, Debye-Ang):
   XX=           -702.7651   YY=           -341.3199   ZZ=           -475.1269
   XY=            -20.9884   XZ=             52.3638   YZ=            -85.1557

 ESP charges:
               1
     1  C   -0.526724
     2  C    0.714999
     3  O   -0.622442
     4  H    0.131719
     5  H    0.159313
     6  H    0.109935
     7  N   -0.379803
     8  C    0.033567
     9  C    0.570734
    10  O   -0.523671
    11  C   -0.192500
    12  C    0.729542
    13  O   -0.693988
    14  O   -0.616269
    15  H    0.214016
    16  H    0.104965
    17  H    0.048012
    18  H    0.049042
    19  N   -0.558430
    20  C    0.017822
    21  C    0.577028
    22  O   -0.497341
    23  C   -0.066310
    24  C    0.181091
    25  C   -0.101012
    26  C    0.096575
    27  N   -0.418455
    28  H    0.306755
    29  H    0.072271
    30  H    0.076666
    31  H    0.016038
    32  H   -0.033819
    33  H   -0.070052
    34  H    0.081357
    35  H    0.006354
    36  H    0.089181
    37  H    0.060633
    38  H    0.319187
    39  H    0.277300
    40  H    0.300230
    41  N   -0.601343
    42  C    0.348505
    43  C    0.455016
    44  O   -0.546044
    45  C   -0.412730
    46  C    0.870226
    47  O   -0.761452
    48  O   -0.791971
    49  H    0.275968
    50  H    0.063459
    51  H    0.119204
    52  H    0.108179
    53  N   -0.618016
    54  C    0.531579
    55  C    0.427038
    56  O   -0.505203
    57  H    0.340020
    58  H   -0.084056
    59  H   -0.003577
    60  N   -0.602957
    61  C    0.641527
    62  C    0.273224
    63  O   -0.509005
    64  C   -0.589209
    65  C    0.870091
    66  N   -0.868523
    67  O   -0.623362
    68  H    0.324174
    69  H   -0.057493
    70  H    0.107510
    71  H    0.172231
    72  H    0.368252
    73  H    0.387428
    74  N   -0.227108
    75  C   -0.433891
    76  C    0.659731
    77  O   -0.536342
    78  H    0.276694
    79  H    0.167662
    80  H    0.204249
    81  N   -0.551320
    82  C    0.415947
    83  C    0.491711
    84  O   -0.533312
    85  C   -0.373872
    86  C    0.135928
    87  C   -0.215102
    88  C   -0.157989
    89  C   -0.170887
    90  C   -0.300847
    91  C    0.327072
    92  O   -0.544594
    93  H    0.269238
    94  H   -0.002489
    95  H    0.088734
    96  H    0.102444
    97  H    0.139459
    98  H    0.141223
    99  H    0.167432
   100  H    0.148808
   101  H    0.404142
   102  N   -0.566331
   103  C    0.164360
   104  C    0.716643
   105  O   -0.583707
   106  C    0.526372
   107  C    0.111337
   108  C   -0.444845
   109  C   -0.530690
   110  H    0.244689
   111  H   -0.008818
   112  H   -0.160333
   113  H    0.040485
   114  H    0.005373
   115  H    0.083740
   116  H    0.093186
   117  H    0.098851
   118  H    0.102024
   119  H    0.146976
   120  H    0.117996
   121  N   -0.692215
   122  C    0.307070
   123  C    0.583444
   124  O   -0.557553
   125  C    0.281810
   126  O   -0.598839
   127  H    0.280968
   128  H    0.044146
   129  H   -0.016880
   130  H   -0.046770
   131  H    0.383288
   132  N   -0.881602
   133  C    0.648041
   134  C    0.629180
   135  O   -0.547146
   136  C   -0.497251
   137  H    0.376651
   138  H   -0.069572
   139  H    0.091772
   140  H    0.150420
   141  H    0.130657
   142  N   -0.678472
   143  C    0.450063
   144  C    0.524963
   145  O   -0.516447
   146  C   -0.384123
   147  H    0.278994
   148  H    0.000015
   149  H    0.128017
   150  H    0.084111
   151  H    0.087013
   152  N   -0.761447
   153  C    0.319503
   154  C    0.517282
   155  O   -0.548184
   156  C   -0.532036
   157  C    0.373370
   158  C    0.760653
   159  O   -0.825669
   160  O   -0.781134
   161  H    0.264395
   162  H    0.065904
   163  H    0.117132
   164  H    0.100119
   165  H   -0.131052
   166  H    0.022848
   167  N   -0.350614
   168  C   -0.078629
   169  H    0.057925
   170  H    0.085958
   171  H    0.060592
   172  H    0.276865
   173  Ca   1.594762
   174  O   -0.831653
   175  H    0.446641
   176  H    0.400478
 Sum of ESP charges =   0.00000

 Normal termination of Gaussian 16 at Wed Sep 18 14:34:21 2019.
