 Gaussian 16, Revision A.03,
 Gaussian 16:  ES64L-G16RevA.03 25-Dec-2016

 ----------------------------------------------------------------------
 #b3lyp/svp scf=(tight,noincore) Test #IOP(5/87=12) Density=Current Pop
 =(MK,readradii) iop(6/33=2) iop(6/42=6)
 ----------------------------------------------------------------------

 ----------------
 Ng-31_loop3_32.0
 ----------------
 Symbolic Z-matrix:
 Charge =  0 Multiplicity = 1

                         Standard orientation:
 ---------------------------------------------------------------------
 Center     Atomic      Atomic             Coordinates (Angstroms)
 Number     Number       Type             X           Y           Z
 ---------------------------------------------------------------------
      1          6           0        5.007018   -3.218737    5.432861
      2          6           0        4.955496   -3.075913    3.920166
      3          8           0        3.888355   -3.188379    3.341409
      4          1           0        4.313383   -3.998348    5.747478
      5          1           0        6.018467   -3.487064    5.738650
      6          1           0        4.724937   -2.273790    5.898040
      7          7           0        6.094895   -2.706385    3.315665
      8          6           0        6.331571   -2.868509    1.897568
      9          6           0        5.150457   -3.095069    0.954677
     10          8           0        4.637923   -2.146720    0.367020
     11          6           0        7.489226   -3.810831    1.606941
     12          6           0        7.395060   -5.175840    2.298088
     13          8           0        7.717488   -5.257886    3.498508
     14          8           0        6.959840   -6.134328    1.617732
     15          1           0        6.874771   -2.377561    3.860245
     16          1           0        6.744082   -1.890883    1.646410
     17          1           0        8.323150   -3.274769    2.052369
     18          1           0        7.540425   -3.968228    0.531299
     19          7           0        4.793910   -4.365666    0.762172
     20          6           0        3.500513   -4.665986    0.187862
     21          6           0        3.614399   -4.476290   -1.318241
     22          8           0        4.467034   -5.057007   -1.987555
     23          6           0        3.007056   -6.010318    0.708602
     24          6           0        1.666673   -6.499225    0.166345
     25          6           0        1.473116   -7.917149    0.693721
     26          6           0        0.429483   -8.732279   -0.060001
     27          7           0        0.455852  -10.139628    0.365292
     28          1           0        5.376288   -5.044324    1.229461
     29          1           0        2.767581   -4.004001    0.643479
     30          1           0        3.016777   -5.954247    1.795276
     31          1           0        3.741297   -6.767080    0.408599
     32          1           0        1.792841   -6.543872   -0.922227
     33          1           0        0.888413   -5.809030    0.496863
     34          1           0        1.244116   -7.869439    1.761889
     35          1           0        2.455492   -8.391814    0.626419
     36          1           0        0.684702   -8.643627   -1.117311
     37          1           0       -0.548717   -8.265388    0.048799
     38          1           0       -0.019596  -10.767793   -0.258774
     39          1           0        1.368218  -10.469863    0.633309
     40          1           0       -0.074765  -10.260222    1.217819
     41          7           0        2.758379   -3.643296   -1.902579
     42          6           0        2.715619   -3.179346   -3.278886
     43          6           0        2.627731   -1.663717   -3.294556
     44          8           0        1.913998   -1.091161   -4.110684
     45          6           0        1.616039   -3.903378   -4.065335
     46          6           0        0.348752   -4.081902   -3.248320
     47          8           0       -0.524137   -3.191943   -3.116648
     48          8           0        0.091079   -5.197035   -2.749338
     49          1           0        2.134319   -3.169330   -1.264217
     50          1           0        3.661943   -3.472758   -3.730307
     51          1           0        2.070579   -4.855354   -4.332794
     52          1           0        1.382172   -3.442619   -5.022992
     53          7           0        3.245531   -0.998524   -2.318830
     54          6           0        3.501300    0.425170   -2.203169
     55          6           0        4.871184    0.793047   -2.754064
     56          8           0        5.660992   -0.114162   -2.984225
     57          1           0        3.637600   -1.617292   -1.628390
     58          1           0        3.470452    0.696596   -1.144360
     59          1           0        2.691216    0.965818   -2.680625
     60          7           0        5.304906    2.038418   -2.983705
     61          6           0        4.617278    3.196783   -2.461347
     62          6           0        5.530335    4.105228   -1.643266
     63          8           0        6.301242    4.895159   -2.180121
     64          6           0        3.889210    3.853649   -3.638565
     65          6           0        3.252904    5.177183   -3.242242
     66          7           0        2.599718    5.720134   -4.274837
     67          8           0        3.388806    5.809099   -2.195335
     68          1           0        6.264824    2.076504   -3.311740
     69          1           0        3.819894    2.987495   -1.747990
     70          1           0        3.142997    3.209640   -4.091356
     71          1           0        4.576565    4.133484   -4.428841
     72          1           0        2.652660    5.345579   -5.215425
     73          1           0        2.109670    6.574352   -4.029347
     74          7           0        5.524424    4.290034   -0.321256
     75          6           0        4.843893    3.419351    0.615488
     76          6           0        3.557718    4.075475    1.099178
     77          8           0        3.032300    3.555631    2.081216
     78          1           0        6.276164    4.841408    0.075069
     79          1           0        5.530014    3.380459    1.454848
     80          1           0        4.567911    2.456111    0.190515
     81          7           0        2.900405    5.049778    0.470710
     82          6           0        1.497705    5.342450    0.698032
     83          6           0        0.632880    4.371644   -0.098029
     84          8           0        1.035786    3.936177   -1.164769
     85          6           0        1.199380    6.803172    0.406497
     86          6           0        1.477844    7.804291    1.500992
     87          6           0        0.366105    8.449309    2.025289
     88          6           0        2.797279    8.110362    1.866522
     89          6           0        0.538876    9.497558    2.948881
     90          6           0        2.903295    9.050915    2.894734
     91          6           0        1.829411    9.841946    3.372692
     92          8           0        1.983644   10.846250    4.285098
     93          1           0        3.307535    5.559664   -0.294052
     94          1           0        1.243918    5.264532    1.764438
     95          1           0        0.168065    6.898473    0.060654
     96          1           0        1.849898    7.075068   -0.434573
     97          1           0       -0.628781    8.215875    1.676850
     98          1           0        3.635353    7.549187    1.484271
     99          1           0       -0.337330    9.953924    3.394855
    100          1           0        3.894919    9.264109    3.256577
    101          1           0        2.900217   10.851100    4.552813
    102          7           0       -0.496694    3.941683    0.477294
    103          6           0       -1.239741    2.753349    0.083665
    104          6           0       -2.534990    3.033648   -0.658807
    105          8           0       -3.243427    3.988576   -0.321867
    106          6           0       -1.417577    1.715945    1.181967
    107          6           0       -0.119464    1.457114    1.942631
    108          6           0       -2.570184    2.017478    2.140025
    109          6           0       -0.014745    0.298490    2.941593
    110          1           0       -0.723951    4.367320    1.363064
    111          1           0       -0.535703    2.260751   -0.578284
    112          1           0       -1.605087    0.763457    0.675403
    113          1           0        0.116792    2.320454    2.557714
    114          1           0        0.669241    1.440870    1.199947
    115          1           0       -2.553125    1.314619    2.977759
    116          1           0       -2.460680    3.043039    2.506678
    117          1           0       -3.522638    1.986591    1.622843
    118          1           0       -0.452768   -0.590830    2.476894
    119          1           0        1.018123    0.253899    3.282321
    120          1           0       -0.554259    0.613751    3.830882
    121          7           0       -2.810128    2.208940   -1.665164
    122          6           0       -4.026222    2.195736   -2.458537
    123          6           0       -5.269944    1.869198   -1.635476
    124          8           0       -5.140991    1.654988   -0.435524
    125          6           0       -4.140666    3.449810   -3.315743
    126          8           0       -3.128715    3.348186   -4.289668
    127          1           0       -2.214402    1.433703   -1.877577
    128          1           0       -3.907580    1.316875   -3.100196
    129          1           0       -3.960079    4.363044   -2.750773
    130          1           0       -5.105965    3.539066   -3.818765
    131          1           0       -2.306593    3.617875   -3.868855
    132          7           0       -6.494073    1.916017   -2.168594
    133          6           0       -7.701649    1.765960   -1.383582
    134          6           0       -8.063575    0.310214   -1.125875
    135          8           0       -7.357224   -0.608060   -1.549717
    136          6           0       -8.792754    2.397818   -2.254240
    137          1           0       -6.526844    1.981173   -3.174815
    138          1           0       -7.725368    2.277743   -0.422637
    139          1           0       -9.576698    2.666742   -1.546630
    140          1           0       -8.476410    3.398387   -2.561303
    141          1           0       -9.131616    1.743604   -3.055974
    142          7           0       -9.075155    0.133286   -0.274052
    143          6           0       -9.489765   -1.069827    0.419430
    144          6           0       -8.341359   -1.812108    1.092545
    145          8           0       -8.430007   -3.012568    1.324788
    146          6           0      -10.143931   -1.986495   -0.616614
    147          1           0       -9.642535    0.952612   -0.085150
    148          1           0      -10.272137   -0.810771    1.127443
    149          1           0      -10.659629   -2.808619   -0.125933
    150          1           0      -10.863850   -1.404986   -1.189469
    151          1           0       -9.395391   -2.252625   -1.365922
    152          7           0       -7.270182   -1.157265    1.536348
    153          6           0       -6.058181   -1.711537    2.098519
    154          6           0       -5.869446   -1.468744    3.585304
    155          8           0       -5.480826   -2.369433    4.334125
    156          6           0       -4.883650   -1.172531    1.288488
    157          6           0       -3.598915   -1.894698    1.674531
    158          6           0       -3.215039   -2.871913    0.568461
    159          8           0       -2.037732   -3.133186    0.251627
    160          8           0       -3.964576   -3.626797   -0.104774
    161          1           0       -7.239858   -0.191286    1.249180
    162          1           0       -6.141453   -2.792383    2.012857
    163          1           0       -4.696654   -0.127721    1.576245
    164          1           0       -5.043382   -1.211793    0.205601
    165          1           0       -3.720962   -2.412474    2.623590
    166          1           0       -2.821192   -1.155842    1.845522
    167          7           0       -6.251182   -0.256126    3.995471
    168          6           0       -6.629531    0.033370    5.362528
    169          1           0       -7.367990   -0.694839    5.696105
    170          1           0       -5.749251   -0.022255    6.003062
    171          1           0       -7.056962    1.034712    5.417944
    172          1           0       -6.658730    0.203367    3.187591
    173         20           0       -2.376888   -4.573520   -1.931126
    174          8           0       -2.303436   -6.200828    0.120574
    175          1           0       -2.661604   -7.072996    0.260713
    176          1           0       -1.974134   -5.930821    0.981420
 ---------------------------------------------------------------------

 SCF Done:  E(RB3LYP) =  -5333.34083224     A.U. after   31 cycles

 The electronic state is 1-A.
 Alpha  occ. eigenvalues -- -145.45334 -19.23354 -19.15805 -19.13188 -19.12041
 Alpha  occ. eigenvalues --  -19.10472 -19.10148 -19.09178 -19.09157 -19.09084
 Alpha  occ. eigenvalues --  -19.08766 -19.07960 -19.07331 -19.06941 -19.06507
 Alpha  occ. eigenvalues --  -19.06460 -19.05976 -19.05885 -19.05782 -19.05076
 Alpha  occ. eigenvalues --  -19.04854 -19.04298 -18.96716 -18.96379 -15.51289
 Alpha  occ. eigenvalues --  -14.58183 -14.38562 -14.37458 -14.36230 -14.35623
 Alpha  occ. eigenvalues --  -14.35270 -14.34824 -14.34542 -14.34020 -14.33886
 Alpha  occ. eigenvalues --  -14.32843 -14.32559 -14.31456 -14.29907 -14.28972
 Alpha  occ. eigenvalues --  -12.64890 -12.64876 -12.64772 -10.34313 -10.30622
 Alpha  occ. eigenvalues --  -10.29221 -10.28631 -10.28622 -10.27963 -10.27159
 Alpha  occ. eigenvalues --  -10.27066 -10.26902 -10.26641 -10.26376 -10.26058
 Alpha  occ. eigenvalues --  -10.25924 -10.25813 -10.25701 -10.25614 -10.24972
 Alpha  occ. eigenvalues --  -10.24734 -10.24600 -10.24463 -10.24298 -10.23626
 Alpha  occ. eigenvalues --  -10.23162 -10.23144 -10.22652 -10.22330 -10.22015
 Alpha  occ. eigenvalues --  -10.21869 -10.21836 -10.21562 -10.21552 -10.21382
 Alpha  occ. eigenvalues --  -10.21114 -10.20302 -10.19527 -10.18930 -10.18506
 Alpha  occ. eigenvalues --  -10.18463 -10.18366 -10.18015 -10.17962 -10.17885
 Alpha  occ. eigenvalues --  -10.17843 -10.17839 -10.17441 -10.17213 -10.17158
 Alpha  occ. eigenvalues --  -10.16792 -10.16180 -10.15824 -10.15290 -10.15156
 Alpha  occ. eigenvalues --  -10.14231 -10.10509  -1.88053  -1.15596  -1.15419
 Alpha  occ. eigenvalues --   -1.14786  -1.13627  -1.09173  -1.05264  -1.04531
 Alpha  occ. eigenvalues --   -1.04070  -1.02937  -1.02891  -1.02741  -1.02372
 Alpha  occ. eigenvalues --   -1.02184  -1.02061  -1.01642  -1.01500  -1.01245
 Alpha  occ. eigenvalues --   -1.00673  -1.00035  -0.99692  -0.98703  -0.97955
 Alpha  occ. eigenvalues --   -0.96898  -0.95360  -0.93969  -0.92979  -0.92596
 Alpha  occ. eigenvalues --   -0.91416  -0.91229  -0.91132  -0.91125  -0.90829
 Alpha  occ. eigenvalues --   -0.90330  -0.89968  -0.89915  -0.89168  -0.88355
 Alpha  occ. eigenvalues --   -0.88127  -0.87700  -0.87226  -0.86858  -0.84105
 Alpha  occ. eigenvalues --   -0.82107  -0.81469  -0.80320  -0.80308  -0.79271
 Alpha  occ. eigenvalues --   -0.77993  -0.77342  -0.77312  -0.76458  -0.76199
 Alpha  occ. eigenvalues --   -0.74588  -0.73576  -0.73258  -0.73024  -0.72947
 Alpha  occ. eigenvalues --   -0.71945  -0.71755  -0.71264  -0.70902  -0.70247
 Alpha  occ. eigenvalues --   -0.69691  -0.68796  -0.68543  -0.68458  -0.67346
 Alpha  occ. eigenvalues --   -0.66582  -0.66312  -0.65838  -0.64387  -0.63824
 Alpha  occ. eigenvalues --   -0.62860  -0.62789  -0.62325  -0.61895  -0.61370
 Alpha  occ. eigenvalues --   -0.61311  -0.60956  -0.60210  -0.59996  -0.59376
 Alpha  occ. eigenvalues --   -0.58986  -0.58794  -0.58458  -0.58406  -0.57834
 Alpha  occ. eigenvalues --   -0.57394  -0.57335  -0.56681  -0.56638  -0.56581
 Alpha  occ. eigenvalues --   -0.55471  -0.55328  -0.55130  -0.54643  -0.54247
 Alpha  occ. eigenvalues --   -0.54136  -0.54063  -0.53656  -0.52979  -0.52582
 Alpha  occ. eigenvalues --   -0.52390  -0.52105  -0.51897  -0.51727  -0.50592
 Alpha  occ. eigenvalues --   -0.50563  -0.50321  -0.50144  -0.50041  -0.49812
 Alpha  occ. eigenvalues --   -0.49603  -0.49590  -0.49323  -0.49242  -0.48614
 Alpha  occ. eigenvalues --   -0.48301  -0.47924  -0.47740  -0.47593  -0.46905
 Alpha  occ. eigenvalues --   -0.46866  -0.46765  -0.46472  -0.46381  -0.46019
 Alpha  occ. eigenvalues --   -0.45725  -0.45693  -0.45523  -0.45344  -0.45175
 Alpha  occ. eigenvalues --   -0.44739  -0.44666  -0.44607  -0.44400  -0.44262
 Alpha  occ. eigenvalues --   -0.44181  -0.44021  -0.43607  -0.43575  -0.43399
 Alpha  occ. eigenvalues --   -0.42984  -0.42807  -0.42643  -0.42342  -0.42231
 Alpha  occ. eigenvalues --   -0.42072  -0.42014  -0.41941  -0.41861  -0.41818
 Alpha  occ. eigenvalues --   -0.41728  -0.41558  -0.41304  -0.41241  -0.41091
 Alpha  occ. eigenvalues --   -0.40991  -0.40836  -0.40771  -0.40669  -0.40491
 Alpha  occ. eigenvalues --   -0.40454  -0.40399  -0.40315  -0.40245  -0.39983
 Alpha  occ. eigenvalues --   -0.39940  -0.39409  -0.39356  -0.38926  -0.38769
 Alpha  occ. eigenvalues --   -0.38576  -0.38511  -0.38389  -0.38261  -0.37957
 Alpha  occ. eigenvalues --   -0.37695  -0.37681  -0.37526  -0.37426  -0.37419
 Alpha  occ. eigenvalues --   -0.37358  -0.37038  -0.36831  -0.36705  -0.36536
 Alpha  occ. eigenvalues --   -0.36504  -0.36270  -0.36179  -0.35889  -0.35725
 Alpha  occ. eigenvalues --   -0.35678  -0.35602  -0.35559  -0.35087  -0.35040
 Alpha  occ. eigenvalues --   -0.34898  -0.34799  -0.34583  -0.34512  -0.34390
 Alpha  occ. eigenvalues --   -0.34270  -0.34120  -0.33973  -0.33952  -0.33865
 Alpha  occ. eigenvalues --   -0.33558  -0.33225  -0.32946  -0.32711  -0.32099
 Alpha  occ. eigenvalues --   -0.31911  -0.31766  -0.31254  -0.30078  -0.29991
 Alpha  occ. eigenvalues --   -0.29897  -0.29454  -0.29178  -0.28355  -0.28156
 Alpha  occ. eigenvalues --   -0.27694  -0.27366  -0.27336  -0.27318  -0.27097
 Alpha  occ. eigenvalues --   -0.26645  -0.26510  -0.26414  -0.26087  -0.25610
 Alpha  occ. eigenvalues --   -0.25321  -0.25202  -0.25193  -0.25078  -0.25027
 Alpha  occ. eigenvalues --   -0.24816  -0.24345  -0.24125  -0.23906  -0.23474
 Alpha  occ. eigenvalues --   -0.23273  -0.23041  -0.22989  -0.22754  -0.22560
 Alpha  occ. eigenvalues --   -0.22378  -0.22259  -0.21480  -0.21357  -0.21308
 Alpha  occ. eigenvalues --   -0.21195  -0.20613  -0.19869  -0.19554  -0.19215
 Alpha  occ. eigenvalues --   -0.14425  -0.13523  -0.11873
 Alpha virt. eigenvalues --   -0.10695  -0.09585  -0.05769  -0.04288  -0.02688
 Alpha virt. eigenvalues --   -0.01436  -0.00925  -0.00506   0.00693   0.01055
 Alpha virt. eigenvalues --    0.01297   0.01367   0.01792   0.01996   0.02058

 Mulliken charges:
               1
     1  C    0.052961
     2  C    0.037789
     3  O   -0.297542
     4  H    0.014634
     5  H    0.021330
     6  H    0.021569
     7  N   -0.106075
     8  C    0.096429
     9  C    0.099566
    10  O   -0.303835
    11  C    0.093029
    12  C    0.043869
    13  O   -0.366238
    14  O   -0.396236
    15  H    0.110441
    16  H   -0.025276
    17  H   -0.040598
    18  H    0.000250
    19  N   -0.112233
    20  C    0.171261
    21  C    0.067399
    22  O   -0.274032
    23  C   -0.055861
    24  C    0.031144
    25  C   -0.087193
    26  C    0.076485
    27  N    0.119000
    28  H    0.115925
    29  H   -0.005894
    30  H    0.031279
    31  H    0.028535
    32  H    0.046527
    33  H    0.018134
    34  H    0.020338
    35  H    0.027046
    36  H    0.079047
    37  H    0.003949
    38  H    0.159514
    39  H    0.178208
    40  H    0.151907
    41  N   -0.158760
    42  C    0.086234
    43  C    0.029098
    44  O   -0.273742
    45  C    0.210923
    46  C    0.073236
    47  O   -0.426308
    48  O   -0.456030
    49  H    0.129729
    50  H    0.044393
    51  H   -0.016068
    52  H    0.015462
    53  N   -0.123937
    54  C    0.203453
    55  C   -0.012899
    56  O   -0.253430
    57  H    0.128235
    58  H    0.039527
    59  H    0.027665
    60  N   -0.092878
    61  C    0.050491
    62  C    0.067180
    63  O   -0.287339
    64  C    0.075354
    65  C    0.084545
    66  N   -0.056459
    67  O   -0.286544
    68  H    0.134649
    69  H    0.023549
    70  H    0.035075
    71  H    0.024945
    72  H    0.123702
    73  H    0.125867
    74  N   -0.138699
    75  C    0.194143
    76  C    0.015565
    77  O   -0.297249
    78  H    0.129831
    79  H    0.024244
    80  H    0.064489
    81  N   -0.118248
    82  C    0.105169
    83  C    0.080291
    84  O   -0.284628
    85  C    0.111348
    86  C   -0.032076
    87  C   -0.003879
    88  C    0.030319
    89  C   -0.036150
    90  C   -0.044507
    91  C    0.171572
    92  O   -0.187410
    93  H    0.148944
    94  H    0.005165
    95  H   -0.011115
    96  H    0.010319
    97  H   -0.030463
    98  H   -0.027433
    99  H   -0.026330
   100  H   -0.048210
   101  H    0.168704
   102  N   -0.116084
   103  C    0.130388
   104  C    0.113480
   105  O   -0.289221
   106  C   -0.120677
   107  C    0.006746
   108  C    0.060730
   109  C    0.042116
   110  H    0.119965
   111  H   -0.010911
   112  H   -0.009549
   113  H   -0.017874
   114  H   -0.004006
   115  H    0.010333
   116  H   -0.021001
   117  H    0.048573
   118  H    0.033799
   119  H    0.032555
   120  H   -0.005010
   121  N   -0.114184
   122  C    0.066781
   123  C    0.082185
   124  O   -0.265707
   125  C    0.256910
   126  O   -0.326359
   127  H    0.132594
   128  H    0.019698
   129  H    0.027264
   130  H   -0.018500
   131  H    0.166459
   132  N   -0.115839
   133  C    0.060275
   134  C    0.065898
   135  O   -0.251149
   136  C    0.043784
   137  H    0.121440
   138  H    0.022352
   139  H   -0.000298
   140  H    0.031983
   141  H    0.036528
   142  N   -0.149501
   143  C    0.058109
   144  C    0.061951
   145  O   -0.270071
   146  C    0.076526
   147  H    0.114814
   148  H    0.026520
   149  H    0.033451
   150  H   -0.019375
   151  H    0.030332
   152  N   -0.113649
   153  C    0.094887
   154  C    0.038700
   155  O   -0.270644
   156  C    0.050713
   157  C    0.075747
   158  C    0.088944
   159  O   -0.440200
   160  O   -0.478112
   161  H    0.115775
   162  H    0.019312
   163  H   -0.008832
   164  H    0.030413
   165  H    0.029903
   166  H    0.002773
   167  N   -0.134515
   168  C    0.141699
   169  H    0.024980
   170  H    0.041107
   171  H    0.014114
   172  H    0.094973
   173  Ca   1.356808
   174  O   -0.278402
   175  H    0.174380
   176  H    0.210723
 Sum of Mulliken charges =  -0.00000

 Dipole moment (field-independent basis, Debye):
    X=            -32.2308    Y=            -15.5850    Z=             -7.1853  Tot=             36.5150
 Quadrupole moment (field-independent basis, Debye-Ang):
   XX=           -650.7809   YY=           -259.6226   ZZ=           -570.4018
   XY=            115.2826   XZ=              9.8048   YZ=             32.6789

 ESP charges:
               1
     1  C   -0.450700
     2  C    0.770354
     3  O   -0.596487
     4  H    0.119353
     5  H    0.110887
     6  H    0.104939
     7  N   -0.709077
     8  C    0.392379
     9  C    0.444788
    10  O   -0.598009
    11  C   -0.431386
    12  C    0.807595
    13  O   -0.700522
    14  O   -0.708871
    15  H    0.368041
    16  H   -0.006649
    17  H    0.080829
    18  H    0.082017
    19  N   -0.122348
    20  C   -0.275110
    21  C    0.509701
    22  O   -0.524058
    23  C    0.103297
    24  C   -0.169962
    25  C   -0.141964
    26  C    0.249739
    27  N   -0.360777
    28  H    0.138601
    29  H    0.144381
    30  H    0.041123
    31  H    0.064208
    32  H    0.115364
    33  H    0.074025
    34  H    0.048151
    35  H    0.044943
    36  H    0.061214
    37  H   -0.056533
    38  H    0.297061
    39  H    0.314656
    40  H    0.289760
    41  N   -0.232032
    42  C   -0.011171
    43  C    0.596603
    44  O   -0.554300
    45  C   -0.074483
    46  C    0.762328
    47  O   -0.768492
    48  O   -0.878011
    49  H    0.200499
    50  H    0.083045
    51  H    0.050666
    52  H    0.032241
    53  N   -0.505754
    54  C   -0.006632
    55  C    0.646399
    56  O   -0.547923
    57  H    0.302584
    58  H    0.113930
    59  H    0.080415
    60  N   -0.692727
    61  C    0.460937
    62  C    0.427707
    63  O   -0.568735
    64  C   -0.343241
    65  C    0.671457
    66  N   -0.799822
    67  O   -0.504102
    68  H    0.355826
    69  H   -0.037908
    70  H    0.112361
    71  H    0.103941
    72  H    0.380217
    73  H    0.358470
    74  N   -0.339111
    75  C   -0.263697
    76  C    0.711232
    77  O   -0.614844
    78  H    0.309866
    79  H    0.141224
    80  H    0.110155
    81  N   -0.605137
    82  C    0.256737
    83  C    0.745701
    84  O   -0.589479
    85  C   -0.264694
    86  C    0.211550
    87  C   -0.280057
    88  C   -0.146756
    89  C   -0.192462
    90  C   -0.315991
    91  C    0.340576
    92  O   -0.532912
    93  H    0.277846
    94  H    0.012714
    95  H    0.063242
    96  H    0.063777
    97  H    0.160105
    98  H    0.152082
    99  H    0.148122
   100  H    0.134342
   101  H    0.402656
   102  N   -0.767133
   103  C   -0.037200
   104  C    0.942198
   105  O   -0.593691
   106  C    0.204478
   107  C    0.225978
   108  C   -0.406576
   109  C   -0.388926
   110  H    0.344289
   111  H    0.039385
   112  H   -0.053768
   113  H   -0.006691
   114  H   -0.018509
   115  H    0.077962
   116  H    0.090947
   117  H    0.111247
   118  H    0.069857
   119  H    0.128673
   120  H    0.090994
   121  N   -0.881391
   122  C    0.193791
   123  C    0.598203
   124  O   -0.471201
   125  C    0.228606
   126  O   -0.630737
   127  H    0.411338
   128  H    0.069584
   129  H    0.020507
   130  H    0.029136
   131  H    0.409028
   132  N   -1.038559
   133  C    0.820249
   134  C    0.423797
   135  O   -0.467884
   136  C   -0.460599
   137  H    0.413731
   138  H   -0.063754
   139  H    0.066669
   140  H    0.128058
   141  H    0.117829
   142  N   -0.562073
   143  C    0.247496
   144  C    0.435338
   145  O   -0.494324
   146  C   -0.244219
   147  H    0.273324
   148  H    0.058615
   149  H    0.065228
   150  H    0.055895
   151  H    0.098243
   152  N   -0.530762
   153  C    0.355022
   154  C    0.459117
   155  O   -0.528736
   156  C    0.202195
   157  C   -0.243165
   158  C    0.783613
   159  O   -0.790352
   160  O   -0.831374
   161  H    0.158086
   162  H   -0.006391
   163  H   -0.143322
   164  H    0.003004
   165  H    0.051452
   166  H    0.106090
   167  N   -0.296576
   168  C   -0.266422
   169  H    0.118670
   170  H    0.136222
   171  H    0.113334
   172  H    0.262156
   173  Ca   1.685703
   174  O   -0.823072
   175  H    0.423230
   176  H    0.462804
 Sum of ESP charges =  -0.00000

 Normal termination of Gaussian 16 at Wed Sep 18 16:56:23 2019.
