 Gaussian 16, Revision A.03,
 Gaussian 16:  ES64L-G16RevA.03 25-Dec-2016

 ----------------------------------------------------------------------
 #b3lyp/svp scf=(tight,noincore) Test #IOP(5/87=12) Density=Current Pop
 =(MK,readradii) iop(6/33=2) iop(6/42=6)
 ----------------------------------------------------------------------

 ----------------
 Ng-31_loop3_39.0
 ----------------
 Symbolic Z-matrix:
 Charge =  0 Multiplicity = 1

                         Standard orientation:
 ---------------------------------------------------------------------
 Center     Atomic      Atomic             Coordinates (Angstroms)
 Number     Number       Type             X           Y           Z
 ---------------------------------------------------------------------
      1          6           0        1.288748    6.178350   -5.185185
      2          6           0        1.630872    5.546698   -3.848485
      3          8           0        1.308287    4.365713   -3.729690
      4          1           0        0.206864    6.265063   -5.279064
      5          1           0        1.738941    7.169107   -5.244996
      6          1           0        1.673094    5.554226   -5.991681
      7          7           0        2.397798    6.263025   -3.013679
      8          6           0        3.141415    5.709040   -1.898048
      9          6           0        2.207593    5.180297   -0.806028
     10          8           0        2.292354    4.013341   -0.426518
     11          6           0        4.273051    6.519323   -1.275278
     12          6           0        3.988307    7.991264   -1.004333
     13          8           0        3.289929    8.739384   -1.721260
     14          8           0        4.429882    8.510478    0.045633
     15          1           0        2.510362    7.239128   -3.186458
     16          1           0        3.627023    4.863741   -2.381531
     17          1           0        5.130269    6.407663   -1.933919
     18          1           0        4.460494    6.112169   -0.275883
     19          7           0        1.249036    6.043115   -0.475553
     20          6           0        0.150950    5.514248    0.313123
     21          6           0        0.549580    4.898092    1.641635
     22          8           0        1.470419    5.353720    2.300240
     23          6           0       -0.892091    6.633226    0.435405
     24          6           0       -1.552513    6.877488   -0.912066
     25          6           0       -2.430707    8.120576   -0.785149
     26          6           0       -3.635059    8.087351   -1.721596
     27          7           0       -4.485472    9.280458   -1.546406
     28          1           0        1.252802    6.999865   -0.812918
     29          1           0       -0.282944    4.687916   -0.251333
     30          1           0       -0.448426    7.522712    0.881471
     31          1           0       -1.664021    6.263886    1.102123
     32          1           0       -2.231668    6.048538   -1.097787
     33          1           0       -0.961510    7.031947   -1.817305
     34          1           0       -1.782932    8.917759   -1.157019
     35          1           0       -2.693878    8.344353    0.252620
     36          1           0       -4.203634    7.168267   -1.571239
     37          1           0       -3.335852    8.058439   -2.764783
     38          1           0       -4.011929   10.055520   -1.990067
     39          1           0       -5.346103    9.142165   -2.056102
     40          1           0       -4.584448    9.390996   -0.554648
     41          7           0       -0.261329    3.941203    2.124325
     42          6           0       -0.068308    3.277897    3.398047
     43          6           0        0.716000    1.971825    3.334522
     44          8           0        0.676125    1.148301    4.236641
     45          6           0       -1.407697    3.173926    4.131618
     46          6           0       -2.472923    2.294509    3.494343
     47          8           0       -2.423858    1.044572    3.568173
     48          8           0       -3.457283    2.862670    2.966965
     49          1           0       -1.006601    3.607781    1.528506
     50          1           0        0.546919    3.989333    3.933916
     51          1           0       -1.816075    4.168277    4.306526
     52          1           0       -1.278009    2.817918    5.146773
     53          7           0        1.728807    1.998690    2.472895
     54          6           0        2.761803    0.991814    2.273592
     55          6           0        3.893156    1.128243    3.280184
     56          8           0        3.833046    1.846961    4.274383
     57          1           0        1.685658    2.729851    1.775657
     58          1           0        3.331588    1.169027    1.362692
     59          1           0        2.289498    0.023063    2.163825
     60          7           0        5.043802    0.449345    3.145606
     61          6           0        5.263867   -0.755177    2.372561
     62          6           0        6.747637   -1.076528    2.196893
     63          8           0        7.405909   -1.323083    3.207630
     64          6           0        4.558149   -1.888032    3.113845
     65          6           0        4.835554   -3.302003    2.608837
     66          7           0        4.145713   -4.309668    3.122578
     67          8           0        5.670020   -3.637091    1.773384
     68          1           0        5.745028    0.722930    3.824968
     69          1           0        4.709423   -0.597315    1.446402
     70          1           0        3.490861   -1.853999    3.311677
     71          1           0        4.961701   -1.901117    4.127588
     72          1           0        3.561828   -3.992755    3.882016
     73          1           0        4.408310   -5.265923    2.905281
     74          7           0        7.219655   -1.169616    0.954663
     75          6           0        6.651556   -0.546685   -0.223734
     76          6           0        5.576805   -1.296638   -1.011503
     77          8           0        5.084546   -0.791570   -2.011697
     78          1           0        8.173393   -1.492620    0.904148
     79          1           0        7.402703   -0.303957   -0.968154
     80          1           0        6.278362    0.446340    0.008274
     81          7           0        5.165789   -2.528667   -0.695796
     82          6           0        4.099076   -3.233235   -1.366622
     83          6           0        2.892513   -2.619624   -0.666702
     84          8           0        2.984735   -2.086538    0.441231
     85          6           0        4.324399   -4.745690   -1.330438
     86          6           0        5.675445   -5.196762   -1.812631
     87          6           0        5.685051   -5.727999   -3.118117
     88          6           0        6.863217   -5.031049   -1.094065
     89          6           0        6.847550   -6.274296   -3.664978
     90          6           0        8.040202   -5.538557   -1.662961
     91          6           0        8.024320   -6.232248   -2.889966
     92          8           0        9.272183   -6.477586   -3.377355
     93          1           0        5.470181   -2.898453    0.192125
     94          1           0        3.896578   -2.935491   -2.396060
     95          1           0        3.556499   -5.202861   -1.950215
     96          1           0        4.114912   -5.167196   -0.349496
     97          1           0        4.761770   -5.876774   -3.664759
     98          1           0        6.835223   -4.618766   -0.091748
     99          1           0        6.798663   -6.603439   -4.698552
    100          1           0        8.953740   -5.459778   -1.096180
    101          1           0        9.974328   -6.449472   -2.716521
    102          7           0        1.712780   -2.739951   -1.268324
    103          6           0        0.468088   -2.149929   -0.802903
    104          6           0       -0.522421   -3.154668   -0.245686
    105          8           0       -0.699607   -4.244806   -0.783554
    106          6           0       -0.222792   -1.253372   -1.834489
    107          6           0        0.668975   -0.072524   -2.214688
    108          6           0       -0.849648   -1.971631   -3.025352
    109          6           0        0.050194    1.026403   -3.074088
    110          1           0        1.742242   -3.199932   -2.167574
    111          1           0        0.669827   -1.440770    0.001706
    112          1           0       -1.067807   -0.770179   -1.353372
    113          1           0        1.586146   -0.367031   -2.720121
    114          1           0        0.996412    0.394766   -1.281239
    115          1           0       -1.536735   -2.799652   -2.824374
    116          1           0       -1.386879   -1.213985   -3.601422
    117          1           0        0.018270   -2.325814   -3.568374
    118          1           0       -0.289798    0.684190   -4.040677
    119          1           0       -0.833715    1.276028   -2.485113
    120          1           0        0.674925    1.909305   -3.174073
    121          7           0       -1.185959   -2.807107    0.864773
    122          6           0       -1.972487   -3.742890    1.641163
    123          6           0       -3.146312   -4.495564    1.019458
    124          8           0       -3.374809   -4.444580   -0.180079
    125          6           0       -1.048182   -4.716067    2.355508
    126          8           0        0.149872   -4.222377    2.922992
    127          1           0       -1.147007   -1.844945    1.159098
    128          1           0       -2.430077   -3.236296    2.495315
    129          1           0       -0.837008   -5.426624    1.552131
    130          1           0       -1.620988   -5.332382    3.049661
    131          1           0        0.213734   -3.288694    3.115492
    132          7           0       -4.000244   -5.163161    1.801580
    133          6           0       -5.163654   -5.735641    1.140866
    134          6           0       -6.248386   -4.789049    0.673618
    135          8           0       -6.638204   -3.890575    1.418055
    136          6           0       -5.745672   -6.832569    2.022175
    137          1           0       -3.913986   -5.274609    2.796637
    138          1           0       -4.901694   -6.327595    0.252909
    139          1           0       -5.024041   -7.587256    2.325319
    140          1           0       -6.228995   -6.500530    2.942419
    141          1           0       -6.535073   -7.392555    1.511333
    142          7           0       -6.832967   -5.030421   -0.507696
    143          6           0       -7.885640   -4.196063   -1.051597
    144          6           0       -7.500747   -2.755448   -1.384891
    145          8           0       -8.377038   -1.896677   -1.520265
    146          6           0       -9.197155   -4.430749   -0.311968
    147          1           0       -6.568109   -5.831236   -1.062534
    148          1           0       -7.900025   -4.757039   -1.980466
    149          1           0       -9.381204   -5.485340   -0.133743
    150          1           0       -9.163295   -3.850090    0.605359
    151          1           0      -10.044030   -4.078480   -0.897553
    152          7           0       -6.184268   -2.526287   -1.441186
    153          6           0       -5.623648   -1.305345   -1.991191
    154          6           0       -5.509629   -1.433519   -3.498762
    155          8           0       -5.712485   -0.384968   -4.123494
    156          6           0       -4.368321   -0.947213   -1.211707
    157          6           0       -3.890877    0.456301   -1.599388
    158          6           0       -4.670836    1.452450   -0.748888
    159          8           0       -4.537048    1.503219    0.490355
    160          8           0       -5.603359    2.113732   -1.255256
    161          1           0       -5.556097   -3.245863   -1.105908
    162          1           0       -6.341897   -0.487854   -1.895657
    163          1           0       -3.605545   -1.620456   -1.618544
    164          1           0       -4.342583   -1.126952   -0.140665
    165          1           0       -3.951978    0.551373   -2.683882
    166          1           0       -2.871183    0.527935   -1.229533
    167          7           0       -5.211404   -2.607412   -4.053054
    168          6           0       -5.218983   -2.822481   -5.489469
    169          1           0       -6.221344   -2.641357   -5.878143
    170          1           0       -4.516549   -2.137345   -5.963646
    171          1           0       -4.926820   -3.849988   -5.704747
    172          1           0       -5.121956   -3.424121   -3.466892
    173         20           0       -5.456684    1.396095    2.905680
    174          8           0       -4.829056    1.609008    5.453866
    175          1           0       -5.152418    2.304355    6.016031
    176          1           0       -4.252959    1.091773    6.020328
 ---------------------------------------------------------------------

 SCF Done:  E(RB3LYP) =  -5333.26436982     A.U. after   55 cycles

 The electronic state is 1-A.
 Alpha  occ. eigenvalues -- -145.46550 -19.21680 -19.14270 -19.13507 -19.11112
 Alpha  occ. eigenvalues --  -19.11108 -19.08954 -19.08764 -19.08635 -19.08432
 Alpha  occ. eigenvalues --  -19.08377 -19.07074 -19.07009 -19.06862 -19.05814
 Alpha  occ. eigenvalues --  -19.05736 -19.05598 -19.05222 -19.05033 -19.04735
 Alpha  occ. eigenvalues --  -19.04098 -19.01022 -18.99672 -18.98426 -15.52515
 Alpha  occ. eigenvalues --  -14.58955 -14.37938 -14.37465 -14.36031 -14.34712
 Alpha  occ. eigenvalues --  -14.34707 -14.34593 -14.34354 -14.34186 -14.33410
 Alpha  occ. eigenvalues --  -14.33129 -14.31791 -14.31457 -14.31131 -14.30737
 Alpha  occ. eigenvalues --  -12.66132 -12.66045 -12.66034 -10.34847 -10.30160
 Alpha  occ. eigenvalues --  -10.29730 -10.27959 -10.27761 -10.27385 -10.27378
 Alpha  occ. eigenvalues --  -10.27319 -10.26786 -10.25919 -10.25859 -10.25449
 Alpha  occ. eigenvalues --  -10.25170 -10.25001 -10.24858 -10.24760 -10.24750
 Alpha  occ. eigenvalues --  -10.24418 -10.24280 -10.23996 -10.23927 -10.23729
 Alpha  occ. eigenvalues --  -10.23553 -10.22388 -10.22002 -10.21933 -10.21915
 Alpha  occ. eigenvalues --  -10.21850 -10.21601 -10.21578 -10.21578 -10.21102
 Alpha  occ. eigenvalues --  -10.20497 -10.20275 -10.20273 -10.18822 -10.18529
 Alpha  occ. eigenvalues --  -10.18518 -10.18214 -10.18110 -10.17581 -10.17532
 Alpha  occ. eigenvalues --  -10.17521 -10.17472 -10.17316 -10.17257 -10.16926
 Alpha  occ. eigenvalues --  -10.16645 -10.16028 -10.15671 -10.14896 -10.14577
 Alpha  occ. eigenvalues --  -10.13653 -10.13420  -1.89236  -1.16868  -1.16259
 Alpha  occ. eigenvalues --   -1.16041  -1.14363  -1.07717  -1.05352  -1.04035
 Alpha  occ. eigenvalues --   -1.03078  -1.02904  -1.02248  -1.01581  -1.01217
 Alpha  occ. eigenvalues --   -1.01179  -1.00960  -1.00784  -0.99926  -0.99793
 Alpha  occ. eigenvalues --   -0.99395  -0.99273  -0.99119  -0.98267  -0.98005
 Alpha  occ. eigenvalues --   -0.97638  -0.94302  -0.94089  -0.93802  -0.92132
 Alpha  occ. eigenvalues --   -0.91380  -0.91292  -0.91035  -0.90642  -0.90244
 Alpha  occ. eigenvalues --   -0.90077  -0.89449  -0.89382  -0.88804  -0.88797
 Alpha  occ. eigenvalues --   -0.88294  -0.88280  -0.87327  -0.86306  -0.83162
 Alpha  occ. eigenvalues --   -0.82627  -0.81532  -0.81239  -0.80008  -0.78186
 Alpha  occ. eigenvalues --   -0.77086  -0.76830  -0.76747  -0.76109  -0.75949
 Alpha  occ. eigenvalues --   -0.75382  -0.74507  -0.73713  -0.72989  -0.72749
 Alpha  occ. eigenvalues --   -0.72556  -0.71854  -0.71357  -0.71177  -0.69906
 Alpha  occ. eigenvalues --   -0.69485  -0.68555  -0.68523  -0.67763  -0.67718
 Alpha  occ. eigenvalues --   -0.67465  -0.66421  -0.65045  -0.64350  -0.64043
 Alpha  occ. eigenvalues --   -0.63472  -0.62674  -0.61526  -0.61094  -0.60869
 Alpha  occ. eigenvalues --   -0.60811  -0.60715  -0.60456  -0.60096  -0.59563
 Alpha  occ. eigenvalues --   -0.59200  -0.58564  -0.58050  -0.57727  -0.57675
 Alpha  occ. eigenvalues --   -0.57338  -0.57139  -0.56923  -0.56377  -0.56245
 Alpha  occ. eigenvalues --   -0.56102  -0.55744  -0.55266  -0.54720  -0.53934
 Alpha  occ. eigenvalues --   -0.53778  -0.53424  -0.53403  -0.53336  -0.52373
 Alpha  occ. eigenvalues --   -0.52315  -0.52038  -0.51772  -0.51571  -0.50859
 Alpha  occ. eigenvalues --   -0.50352  -0.50157  -0.49840  -0.49789  -0.49461
 Alpha  occ. eigenvalues --   -0.49243  -0.48947  -0.48800  -0.48532  -0.48202
 Alpha  occ. eigenvalues --   -0.48084  -0.47797  -0.47405  -0.47222  -0.46916
 Alpha  occ. eigenvalues --   -0.46828  -0.46681  -0.46146  -0.45838  -0.45476
 Alpha  occ. eigenvalues --   -0.45374  -0.45152  -0.44978  -0.44954  -0.44789
 Alpha  occ. eigenvalues --   -0.44432  -0.44110  -0.43825  -0.43734  -0.43645
 Alpha  occ. eigenvalues --   -0.43345  -0.43239  -0.43012  -0.42905  -0.42765
 Alpha  occ. eigenvalues --   -0.42662  -0.42576  -0.42477  -0.42431  -0.42293
 Alpha  occ. eigenvalues --   -0.42186  -0.41668  -0.41506  -0.41432  -0.41345
 Alpha  occ. eigenvalues --   -0.41210  -0.41163  -0.41029  -0.40899  -0.40501
 Alpha  occ. eigenvalues --   -0.40242  -0.40161  -0.40032  -0.39981  -0.39923
 Alpha  occ. eigenvalues --   -0.39796  -0.39606  -0.39514  -0.39385  -0.39282
 Alpha  occ. eigenvalues --   -0.39180  -0.39077  -0.38900  -0.38795  -0.38776
 Alpha  occ. eigenvalues --   -0.38657  -0.38476  -0.38369  -0.38012  -0.37847
 Alpha  occ. eigenvalues --   -0.37836  -0.37812  -0.37570  -0.37432  -0.37204
 Alpha  occ. eigenvalues --   -0.36775  -0.36634  -0.36547  -0.36399  -0.36268
 Alpha  occ. eigenvalues --   -0.36226  -0.36136  -0.36010  -0.35850  -0.35575
 Alpha  occ. eigenvalues --   -0.35423  -0.35187  -0.35177  -0.34891  -0.34737
 Alpha  occ. eigenvalues --   -0.34674  -0.34306  -0.34214  -0.34085  -0.33979
 Alpha  occ. eigenvalues --   -0.33619  -0.33450  -0.33239  -0.33219  -0.33040
 Alpha  occ. eigenvalues --   -0.32939  -0.32502  -0.32375  -0.32147  -0.31925
 Alpha  occ. eigenvalues --   -0.31656  -0.31174  -0.31049  -0.30985  -0.30248
 Alpha  occ. eigenvalues --   -0.29731  -0.29359  -0.28972  -0.28967  -0.28637
 Alpha  occ. eigenvalues --   -0.28369  -0.27584  -0.26923  -0.26385  -0.26287
 Alpha  occ. eigenvalues --   -0.26209  -0.26043  -0.25416  -0.24900  -0.24723
 Alpha  occ. eigenvalues --   -0.24679  -0.24648  -0.24467  -0.24384  -0.24259
 Alpha  occ. eigenvalues --   -0.24168  -0.24140  -0.23789  -0.23141  -0.23008
 Alpha  occ. eigenvalues --   -0.22884  -0.22290  -0.22090  -0.21912  -0.21477
 Alpha  occ. eigenvalues --   -0.21454  -0.21393  -0.21297  -0.20920  -0.20880
 Alpha  occ. eigenvalues --   -0.20703  -0.20540  -0.20098  -0.19614  -0.17140
 Alpha  occ. eigenvalues --   -0.16409  -0.16042  -0.12719
 Alpha virt. eigenvalues --   -0.11922  -0.10903  -0.05028  -0.04370  -0.01999
 Alpha virt. eigenvalues --   -0.00955  -0.00869  -0.00705  -0.00102   0.00050
 Alpha virt. eigenvalues --    0.00901   0.00946   0.01451   0.01781   0.02203

 Mulliken charges:
               1
     1  C    0.066719
     2  C    0.007664
     3  O   -0.286619
     4  H    0.001959
     5  H   -0.009443
     6  H    0.043712
     7  N   -0.126997
     8  C    0.093584
     9  C    0.105407
    10  O   -0.280203
    11  C    0.084892
    12  C    0.020609
    13  O   -0.372377
    14  O   -0.318545
    15  H    0.097151
    16  H   -0.007047
    17  H    0.010847
    18  H    0.027882
    19  N   -0.130641
    20  C    0.116210
    21  C    0.075636
    22  O   -0.249004
    23  C    0.029630
    24  C    0.017772
    25  C   -0.041769
    26  C   -0.026026
    27  N    0.091701
    28  H    0.131025
    29  H   -0.003547
    30  H    0.033149
    31  H    0.003772
    32  H    0.025183
    33  H    0.038211
    34  H    0.037482
    35  H    0.029050
    36  H    0.095427
    37  H    0.074408
    38  H    0.197696
    39  H    0.198077
    40  H    0.196606
    41  N   -0.189864
    42  C    0.075509
    43  C    0.093080
    44  O   -0.271323
    45  C    0.171382
    46  C    0.074732
    47  O   -0.388995
    48  O   -0.489706
    49  H    0.126053
    50  H    0.042513
    51  H   -0.038157
    52  H   -0.007356
    53  N   -0.125207
    54  C    0.165251
    55  C    0.013619
    56  O   -0.251373
    57  H    0.136456
    58  H    0.044230
    59  H    0.038831
    60  N   -0.127004
    61  C    0.042961
    62  C    0.088003
    63  O   -0.263266
    64  C    0.104923
    65  C    0.023001
    66  N   -0.004394
    67  O   -0.322410
    68  H    0.124175
    69  H    0.032293
    70  H    0.022528
    71  H    0.028180
    72  H    0.110275
    73  H    0.135632
    74  N   -0.104528
    75  C    0.174561
    76  C    0.018472
    77  O   -0.294854
    78  H    0.124401
    79  H    0.033948
    80  H    0.042382
    81  N   -0.142285
    82  C    0.093133
    83  C    0.074551
    84  O   -0.305431
    85  C    0.208138
    86  C   -0.027098
    87  C   -0.019282
    88  C    0.003697
    89  C   -0.046279
    90  C   -0.057910
    91  C    0.214225
    92  O   -0.216393
    93  H    0.163251
    94  H    0.001992
    95  H   -0.028809
    96  H   -0.015410
    97  H   -0.030305
    98  H   -0.014804
    99  H   -0.022765
   100  H   -0.045652
   101  H    0.177193
   102  N   -0.088806
   103  C    0.174089
   104  C    0.101427
   105  O   -0.272184
   106  C   -0.121518
   107  C    0.013820
   108  C    0.059483
   109  C    0.030491
   110  H    0.120587
   111  H   -0.012362
   112  H   -0.029118
   113  H    0.002732
   114  H   -0.001154
   115  H    0.034234
   116  H    0.015204
   117  H   -0.020207
   118  H   -0.002002
   119  H   -0.018954
   120  H    0.052813
   121  N   -0.114022
   122  C    0.047140
   123  C    0.113038
   124  O   -0.253947
   125  C    0.259771
   126  O   -0.315123
   127  H    0.142443
   128  H    0.008118
   129  H    0.008041
   130  H   -0.034608
   131  H    0.171657
   132  N   -0.120784
   133  C    0.111079
   134  C    0.074804
   135  O   -0.284067
   136  C    0.027182
   137  H    0.118826
   138  H   -0.007610
   139  H    0.025700
   140  H    0.014874
   141  H    0.007539
   142  N   -0.185430
   143  C    0.077767
   144  C    0.082172
   145  O   -0.259255
   146  C    0.091278
   147  H    0.121778
   148  H   -0.014900
   149  H   -0.011017
   150  H    0.031985
   151  H    0.021702
   152  N   -0.166322
   153  C    0.135595
   154  C    0.024724
   155  O   -0.270390
   156  C    0.018697
   157  C    0.096231
   158  C    0.050615
   159  O   -0.455685
   160  O   -0.349504
   161  H    0.137890
   162  H    0.039050
   163  H   -0.015290
   164  H   -0.018250
   165  H    0.012948
   166  H    0.000988
   167  N   -0.143732
   168  C    0.138640
   169  H    0.027282
   170  H    0.037610
   171  H    0.007971
   172  H    0.106193
   173  Ca   1.235226
   174  O   -0.299418
   175  H    0.178637
   176  H    0.203635
 Sum of Mulliken charges =  -0.00000

 Dipole moment (field-independent basis, Debye):
    X=            -34.7279    Y=              3.7613    Z=              4.5788  Tot=             35.2298
 Quadrupole moment (field-independent basis, Debye-Ang):
   XX=           -521.1576   YY=           -362.2981   ZZ=           -535.4935
   XY=           -227.9213   XZ=            -74.0814   YZ=            -55.1688

 ESP charges:
               1
     1  C   -0.453065
     2  C    0.656384
     3  O   -0.589176
     4  H    0.101574
     5  H    0.082706
     6  H    0.151021
     7  N   -0.401586
     8  C    0.240520
     9  C    0.606186
    10  O   -0.595080
    11  C   -0.521853
    12  C    0.798420
    13  O   -0.687837
    14  O   -0.632044
    15  H    0.223702
    16  H    0.034529
    17  H    0.138131
    18  H    0.143234
    19  N   -0.558927
    20  C    0.012501
    21  C    0.729716
    22  O   -0.537065
    23  C    0.018553
    24  C    0.091018
    25  C   -0.062120
    26  C    0.180549
    27  N   -0.584501
    28  H    0.307942
    29  H    0.050264
    30  H    0.043944
    31  H    0.002597
    32  H   -0.001379
    33  H   -0.008335
    34  H    0.033346
    35  H    0.008235
    36  H    0.064653
    37  H    0.059990
    38  H    0.379285
    39  H    0.388575
    40  H    0.385118
    41  N   -0.786650
    42  C    0.387293
    43  C    0.464631
    44  O   -0.536784
    45  C   -0.353885
    46  C    0.764627
    47  O   -0.671802
    48  O   -0.725874
    49  H    0.357620
    50  H    0.053259
    51  H    0.067977
    52  H    0.080207
    53  N   -0.570815
    54  C    0.106242
    55  C    0.647899
    56  O   -0.523740
    57  H    0.345180
    58  H    0.084126
    59  H    0.077563
    60  N   -0.796024
    61  C    0.579467
    62  C    0.454737
    63  O   -0.545448
    64  C   -0.295264
    65  C    0.678210
    66  N   -0.798846
    67  O   -0.572808
    68  H    0.354616
    69  H   -0.058518
    70  H    0.099292
    71  H    0.072289
    72  H    0.354575
    73  H    0.398507
    74  N   -0.465947
    75  C   -0.031984
    76  C    0.461095
    77  O   -0.571809
    78  H    0.318450
    79  H    0.107205
    80  H    0.069680
    81  N   -0.331642
    82  C    0.258530
    83  C    0.686372
    84  O   -0.610651
    85  C   -0.249598
    86  C    0.112982
    87  C   -0.179674
    88  C   -0.242951
    89  C   -0.178426
    90  C   -0.146204
    91  C    0.227078
    92  O   -0.507036
    93  H    0.214904
    94  H    0.027419
    95  H    0.060741
    96  H    0.090394
    97  H    0.120782
    98  H    0.161675
    99  H    0.145937
   100  H    0.107500
   101  H    0.387492
   102  N   -0.808637
   103  C    0.132774
   104  C    0.743078
   105  O   -0.554819
   106  C    0.320793
   107  C    0.168898
   108  C   -0.500836
   109  C   -0.184367
   110  H    0.367130
   111  H    0.017663
   112  H   -0.149974
   113  H   -0.024956
   114  H   -0.035189
   115  H    0.135297
   116  H    0.146688
   117  H    0.076798
   118  H    0.027292
   119  H    0.004829
   120  H    0.093273
   121  N   -0.628273
   122  C   -0.014414
   123  C    0.705336
   124  O   -0.509946
   125  C    0.355989
   126  O   -0.644118
   127  H    0.351884
   128  H    0.054504
   129  H    0.017182
   130  H   -0.045068
   131  H    0.408674
   132  N   -0.772067
   133  C    0.335941
   134  C    0.529157
   135  O   -0.540831
   136  C   -0.185702
   137  H    0.363152
   138  H   -0.006198
   139  H    0.068637
   140  H    0.052892
   141  H    0.035320
   142  N   -0.596568
   143  C    0.368164
   144  C    0.261359
   145  O   -0.473327
   146  C   -0.280311
   147  H    0.325746
   148  H   -0.003321
   149  H    0.074797
   150  H    0.101087
   151  H    0.061679
   152  N   -0.196574
   153  C   -0.100083
   154  C    0.629294
   155  O   -0.539648
   156  C    0.255590
   157  C   -0.660118
   158  C    0.925081
   159  O   -0.851994
   160  O   -0.698906
   161  H    0.100326
   162  H    0.112522
   163  H   -0.074851
   164  H    0.010919
   165  H    0.179293
   166  H    0.196116
   167  N   -0.351284
   168  C   -0.225747
   169  H    0.100842
   170  H    0.110087
   171  H    0.109588
   172  H    0.271912
   173  Ca   1.396351
   174  O   -0.856190
   175  H    0.426261
   176  H    0.450220
 Sum of ESP charges =  -0.00000

 Normal termination of Gaussian 16 at Wed Sep 18 17:51:45 2019.
