 Gaussian 16, Revision A.03,
 Gaussian 16:  ES64L-G16RevA.03 25-Dec-2016

 ----------------------------------------------------------------------
 #b3lyp/svp scf=(tight,noincore) Test #IOP(5/87=12) Density=Current Pop
 =(MK,readradii) iop(6/33=2) iop(6/42=6)
 ----------------------------------------------------------------------

 ---------------
 Ng-31_loop3_6.0
 ---------------
 Symbolic Z-matrix:
 Charge =  0 Multiplicity = 1

                         Standard orientation:
 ---------------------------------------------------------------------
 Center     Atomic      Atomic             Coordinates (Angstroms)
 Number     Number       Type             X           Y           Z
 ---------------------------------------------------------------------
      1          6           0        6.549245   -2.907983    4.275119
      2          6           0        6.429053   -1.761593    3.281015
      3          8           0        5.770251   -0.770186    3.556863
      4          1           0        6.036588   -2.641372    5.199144
      5          1           0        6.094602   -3.804102    3.853033
      6          1           0        7.601629   -3.097803    4.486258
      7          7           0        7.097722   -1.927933    2.145359
      8          6           0        7.303505   -1.051240    1.005639
      9          6           0        6.616555   -1.543349   -0.251153
     10          8           0        6.180692   -2.687143   -0.389213
     11          6           0        8.805840   -0.868708    0.778988
     12          6           0        9.606610   -2.114216    0.416667
     13          8           0       10.359578   -2.672905    1.236122
     14          8           0        9.481088   -2.548468   -0.748738
     15          1           0        7.641606   -2.775992    2.167413
     16          1           0        6.907694   -0.088170    1.332795
     17          1           0        9.267650   -0.436633    1.665635
     18          1           0        8.843381   -0.156410   -0.039379
     19          7           0        6.414996   -0.590750   -1.163255
     20          6           0        5.871867   -0.855811   -2.482214
     21          6           0        4.369054   -1.114559   -2.544683
     22          8           0        3.842838   -1.622007   -3.530681
     23          6           0        6.337344    0.257016   -3.403760
     24          6           0        7.859577    0.235958   -3.497915
     25          6           0        8.361813    1.020371   -4.705456
     26          6           0        9.852965    0.694631   -4.826117
     27          7           0       10.418219    1.344684   -6.011832
     28          1           0        6.645910    0.366227   -0.923727
     29          1           0        6.214559   -1.854377   -2.769141
     30          1           0        5.950716    1.247682   -3.166904
     31          1           0        5.878846   -0.030210   -4.352116
     32          1           0        8.158373   -0.799989   -3.654551
     33          1           0        8.367938    0.715916   -2.661668
     34          1           0        8.107285    2.063153   -4.588741
     35          1           0        7.790472    0.674655   -5.573528
     36          1           0        9.931051   -0.377502   -4.953134
     37          1           0       10.486065    0.968739   -3.976970
     38          1           0       11.411308    1.205617   -5.996528
     39          1           0       10.051699    0.883939   -6.827783
     40          1           0       10.222052    2.337086   -5.984313
     41          7           0        3.750962   -0.952940   -1.368782
     42          6           0        2.391285   -1.177590   -0.961092
     43          6           0        1.501496    0.036756   -1.188775
     44          8           0        0.352192   -0.135943   -1.590989
     45          6           0        2.310462   -1.607928    0.503823
     46          6           0        3.108171   -0.796769    1.517224
     47          8           0        2.694945   -0.886777    2.696861
     48          8           0        3.934564    0.074470    1.149912
     49          1           0        4.302267   -0.539639   -0.631594
     50          1           0        1.942224   -1.935452   -1.603813
     51          1           0        2.652495   -2.633722    0.587245
     52          1           0        1.264555   -1.564028    0.829479
     53          7           0        2.040205    1.243411   -1.011079
     54          6           0        1.428381    2.554236   -0.828851
     55          6           0        1.583155    3.055499    0.595888
     56          8           0        2.108668    2.337123    1.446401
     57          1           0        3.049074    1.255915   -1.047517
     58          1           0        0.355686    2.600942   -1.013366
     59          1           0        1.909966    3.320166   -1.426201
     60          7           0        1.040362    4.221356    0.960102
     61          6           0        0.269259    5.162822    0.176047
     62          6           0       -0.656611    5.981484    1.053005
     63          8           0       -0.108494    6.658900    1.927062
     64          6           0        1.283788    6.024228   -0.570485
     65          6           0        0.727528    7.012014   -1.584316
     66          7           0        1.549654    7.585971   -2.468161
     67          8           0       -0.456553    7.346205   -1.592635
     68          1           0        1.283496    4.522644    1.897499
     69          1           0       -0.349771    4.665779   -0.560397
     70          1           0        2.135461    5.484569   -0.990988
     71          1           0        1.827296    6.649026    0.144166
     72          1           0        2.546655    7.424016   -2.522577
     73          1           0        1.169165    8.166562   -3.206498
     74          7           0       -1.978541    6.136859    0.896287
     75          6           0       -2.822762    5.248338    0.113650
     76          6           0       -2.960641    3.831239    0.639977
     77          8           0       -1.954534    3.199715    0.981190
     78          1           0       -2.443534    6.747968    1.547384
     79          1           0       -2.460951    5.209314   -0.914635
     80          1           0       -3.800525    5.706238    0.014617
     81          7           0       -4.168648    3.271306    0.502156
     82          6           0       -4.600990    1.910728    0.746708
     83          6           0       -5.436124    1.381720   -0.410185
     84          8           0       -6.505752    0.803743   -0.197256
     85          6           0       -5.330952    1.815574    2.085252
     86          6           0       -4.623793    2.405347    3.270957
     87          6           0       -3.765974    1.678558    4.122792
     88          6           0       -4.658514    3.789478    3.484442
     89          6           0       -2.884255    2.284691    5.028924
     90          6           0       -3.907904    4.447413    4.469483
     91          6           0       -3.001240    3.673077    5.222054
     92          8           0       -2.100747    4.303737    6.027957
     93          1           0       -4.928323    3.784133    0.093252
     94          1           0       -3.772839    1.206315    0.878114
     95          1           0       -5.469520    0.761650    2.297249
     96          1           0       -6.321184    2.266752    1.976253
     97          1           0       -3.685049    0.616334    4.025671
     98          1           0       -5.258426    4.407492    2.844861
     99          1           0       -2.121442    1.751465    5.578092
    100          1           0       -3.840495    5.516700    4.617071
    101          1           0       -2.317862    5.230208    6.136186
    102          7           0       -5.059980    1.586972   -1.671331
    103          6           0       -5.983823    1.483568   -2.783591
    104          6           0       -6.412772    0.053364   -3.078243
    105          8           0       -7.161565   -0.123302   -4.028978
    106          6           0       -5.427245    2.240845   -3.980609
    107          6           0       -5.036555    3.712329   -3.866601
    108          6           0       -4.216957    1.535994   -4.597849
    109          6           0       -4.659854    4.461602   -5.134191
    110          1           0       -4.142656    1.908052   -1.921779
    111          1           0       -6.898210    2.020160   -2.503293
    112          1           0       -6.245913    2.182511   -4.692985
    113          1           0       -4.300594    3.776340   -3.054588
    114          1           0       -5.907709    4.288434   -3.536609
    115          1           0       -3.829390    2.024246   -5.492278
    116          1           0       -3.335607    1.490396   -3.964017
    117          1           0       -4.455390    0.487366   -4.816317
    118          1           0       -4.344835    5.486156   -4.955160
    119          1           0       -3.754813    4.093089   -5.626532
    120          1           0       -5.530170    4.440787   -5.787198
    121          7           0       -5.898678   -0.977372   -2.404084
    122          6           0       -6.262558   -2.334336   -2.779371
    123          6           0       -5.079881   -3.287578   -2.953735
    124          8           0       -5.212517   -4.341548   -3.551779
    125          6           0       -7.323883   -2.833476   -1.807287
    126          8           0       -7.835179   -4.122709   -2.063910
    127          1           0       -5.335478   -0.828410   -1.573713
    128          1           0       -6.721370   -2.318294   -3.761325
    129          1           0       -8.217435   -2.201236   -1.768065
    130          1           0       -6.837776   -2.795260   -0.835876
    131          1           0       -8.409392   -4.303667   -1.313820
    132          7           0       -3.890968   -2.916947   -2.473715
    133          6           0       -2.601663   -3.527541   -2.761757
    134          6           0       -2.129213   -4.583852   -1.767423
    135          8           0       -0.955733   -4.638817   -1.402425
    136          6           0       -1.569178   -2.424765   -2.931039
    137          1           0       -3.867737   -2.049933   -1.963865
    138          1           0       -2.715074   -4.119725   -3.665226
    139          1           0       -1.845794   -1.677512   -3.680970
    140          1           0       -1.493357   -1.852156   -2.007474
    141          1           0       -0.653025   -2.889287   -3.272188
    142          7           0       -3.057312   -5.443869   -1.330613
    143          6           0       -2.860580   -6.477736   -0.327560
    144          6           0       -2.263423   -5.936544    0.968324
    145          8           0       -1.338957   -6.488070    1.538306
    146          6           0       -2.198966   -7.673351   -1.021009
    147          1           0       -3.995001   -5.198896   -1.586987
    148          1           0       -3.871313   -6.727793   -0.048294
    149          1           0       -1.932680   -8.385803   -0.251527
    150          1           0       -2.806675   -8.101275   -1.818236
    151          1           0       -1.212025   -7.469773   -1.439822
    152          7           0       -2.736824   -4.780360    1.452917
    153          6           0       -1.939858   -3.908109    2.285578
    154          6           0       -2.475791   -3.779750    3.702193
    155          8           0       -1.786454   -3.188226    4.537784
    156          6           0       -1.738749   -2.489602    1.759467
    157          6           0       -2.951750   -1.570572    1.774113
    158          6           0       -3.949395   -1.912713    0.674411
    159          8           0       -4.663526   -2.937802    0.663930
    160          8           0       -3.950416   -1.021709   -0.206220
    161          1           0       -3.626927   -4.520183    1.056528
    162          1           0       -0.899760   -4.195916    2.472830
    163          1           0       -1.333595   -2.489467    0.750879
    164          1           0       -0.999894   -2.113598    2.467784
    165          1           0       -2.613383   -0.546511    1.603209
    166          1           0       -3.390590   -1.476691    2.771462
    167          7           0       -3.654690   -4.301559    4.054066
    168          6           0       -4.156078   -4.435781    5.403915
    169          1           0       -3.721351   -3.656910    6.031333
    170          1           0       -5.241962   -4.335959    5.400736
    171          1           0       -3.882274   -5.414144    5.798548
    172          1           0       -4.229423   -4.655407    3.306086
    173         20           0        3.885243    1.389750    3.308309
    174          8           0        4.665036    1.227201    5.729292
    175          1           0        4.686093    2.052811    6.219623
    176          1           0        4.914902    0.560393    6.378164
 ---------------------------------------------------------------------

 SCF Done:  E(RB3LYP) =  -5333.36883734     A.U. after   25 cycles

 The electronic state is 1-A.
 Alpha  occ. eigenvalues -- -145.49043 -19.25259 -19.15458 -19.15402 -19.12528
 Alpha  occ. eigenvalues --  -19.11560 -19.11145 -19.10558 -19.09932 -19.08564
 Alpha  occ. eigenvalues --  -19.08253 -19.08080 -19.08065 -19.06432 -19.06011
 Alpha  occ. eigenvalues --  -19.03646 -19.02933 -19.02746 -19.02403 -19.02137
 Alpha  occ. eigenvalues --  -19.00459 -19.00382 -18.99210 -18.98954 -15.54926
 Alpha  occ. eigenvalues --  -14.60242 -14.39830 -14.38805 -14.37858 -14.36348
 Alpha  occ. eigenvalues --  -14.36073 -14.35643 -14.34737 -14.33054 -14.32583
 Alpha  occ. eigenvalues --  -14.29665 -14.28497 -14.28246 -14.27338 -14.27115
 Alpha  occ. eigenvalues --  -12.68539 -12.68494 -12.68444 -10.36539 -10.33388
 Alpha  occ. eigenvalues --  -10.32208 -10.31114 -10.29530 -10.29177 -10.29036
 Alpha  occ. eigenvalues --  -10.27893 -10.27525 -10.27446 -10.27014 -10.26807
 Alpha  occ. eigenvalues --  -10.26431 -10.25635 -10.25138 -10.25073 -10.24185
 Alpha  occ. eigenvalues --  -10.24078 -10.23729 -10.23352 -10.23065 -10.22625
 Alpha  occ. eigenvalues --  -10.21576 -10.21172 -10.21159 -10.21092 -10.20959
 Alpha  occ. eigenvalues --  -10.20922 -10.20024 -10.19485 -10.19134 -10.18858
 Alpha  occ. eigenvalues --  -10.18057 -10.17958 -10.17790 -10.17740 -10.17689
 Alpha  occ. eigenvalues --  -10.17491 -10.17428 -10.17374 -10.17307 -10.17114
 Alpha  occ. eigenvalues --  -10.16806 -10.16534 -10.16461 -10.16339 -10.16057
 Alpha  occ. eigenvalues --  -10.16012 -10.15971 -10.15042 -10.12163 -10.12139
 Alpha  occ. eigenvalues --  -10.11261 -10.10899  -1.91594  -1.19088  -1.18696
 Alpha  occ. eigenvalues --   -1.18568  -1.15952  -1.10839  -1.07993  -1.05629
 Alpha  occ. eigenvalues --   -1.04927  -1.04272  -1.03753  -1.03500  -1.02895
 Alpha  occ. eigenvalues --   -1.02066  -1.01129  -1.00439  -0.99970  -0.97301
 Alpha  occ. eigenvalues --   -0.96766  -0.96567  -0.96069  -0.95713  -0.95160
 Alpha  occ. eigenvalues --   -0.94706  -0.94303  -0.94032  -0.93644  -0.93632
 Alpha  occ. eigenvalues --   -0.93134  -0.93082  -0.92897  -0.92100  -0.92072
 Alpha  occ. eigenvalues --   -0.90606  -0.90115  -0.89395  -0.86180  -0.86080
 Alpha  occ. eigenvalues --   -0.85673  -0.85313  -0.84234  -0.83794  -0.83704
 Alpha  occ. eigenvalues --   -0.83301  -0.83298  -0.82035  -0.79515  -0.79182
 Alpha  occ. eigenvalues --   -0.77852  -0.77736  -0.77003  -0.75817  -0.75564
 Alpha  occ. eigenvalues --   -0.74529  -0.74362  -0.73253  -0.73105  -0.72906
 Alpha  occ. eigenvalues --   -0.72885  -0.71876  -0.71500  -0.70864  -0.69792
 Alpha  occ. eigenvalues --   -0.69387  -0.68397  -0.67132  -0.66816  -0.66189
 Alpha  occ. eigenvalues --   -0.65711  -0.64536  -0.64304  -0.64020  -0.63968
 Alpha  occ. eigenvalues --   -0.63882  -0.63305  -0.62405  -0.62139  -0.61755
 Alpha  occ. eigenvalues --   -0.61234  -0.61079  -0.60609  -0.59677  -0.58841
 Alpha  occ. eigenvalues --   -0.58438  -0.58348  -0.58178  -0.57871  -0.57563
 Alpha  occ. eigenvalues --   -0.57427  -0.57192  -0.56642  -0.56211  -0.55262
 Alpha  occ. eigenvalues --   -0.55115  -0.54946  -0.54608  -0.54119  -0.53746
 Alpha  occ. eigenvalues --   -0.53412  -0.52845  -0.52725  -0.52539  -0.52444
 Alpha  occ. eigenvalues --   -0.52263  -0.51841  -0.51641  -0.51595  -0.51445
 Alpha  occ. eigenvalues --   -0.51373  -0.50696  -0.50319  -0.50068  -0.49926
 Alpha  occ. eigenvalues --   -0.49441  -0.49230  -0.49071  -0.48753  -0.48531
 Alpha  occ. eigenvalues --   -0.48273  -0.47949  -0.47722  -0.47496  -0.46824
 Alpha  occ. eigenvalues --   -0.46685  -0.46538  -0.46103  -0.46068  -0.45719
 Alpha  occ. eigenvalues --   -0.45444  -0.45155  -0.45079  -0.44846  -0.44784
 Alpha  occ. eigenvalues --   -0.44610  -0.44525  -0.44322  -0.44047  -0.43897
 Alpha  occ. eigenvalues --   -0.43439  -0.43381  -0.43100  -0.42883  -0.42682
 Alpha  occ. eigenvalues --   -0.42499  -0.42331  -0.42151  -0.42009  -0.41810
 Alpha  occ. eigenvalues --   -0.41793  -0.41734  -0.41449  -0.41403  -0.41311
 Alpha  occ. eigenvalues --   -0.41201  -0.41035  -0.41012  -0.40793  -0.40635
 Alpha  occ. eigenvalues --   -0.40619  -0.40228  -0.40177  -0.40100  -0.39906
 Alpha  occ. eigenvalues --   -0.39818  -0.39674  -0.39383  -0.39270  -0.38993
 Alpha  occ. eigenvalues --   -0.38859  -0.38701  -0.38542  -0.38386  -0.38314
 Alpha  occ. eigenvalues --   -0.37876  -0.37730  -0.37459  -0.37373  -0.36999
 Alpha  occ. eigenvalues --   -0.36895  -0.36734  -0.36631  -0.36592  -0.36471
 Alpha  occ. eigenvalues --   -0.36343  -0.35930  -0.35504  -0.35309  -0.35146
 Alpha  occ. eigenvalues --   -0.35046  -0.34875  -0.34781  -0.34741  -0.34621
 Alpha  occ. eigenvalues --   -0.34208  -0.34067  -0.33830  -0.33739  -0.33656
 Alpha  occ. eigenvalues --   -0.33433  -0.33127  -0.33091  -0.32971  -0.32614
 Alpha  occ. eigenvalues --   -0.32359  -0.31825  -0.31638  -0.31524  -0.31477
 Alpha  occ. eigenvalues --   -0.31287  -0.31104  -0.30829  -0.30745  -0.30725
 Alpha  occ. eigenvalues --   -0.30404  -0.30335  -0.30304  -0.30261  -0.29795
 Alpha  occ. eigenvalues --   -0.29119  -0.29037  -0.28917  -0.28310  -0.28202
 Alpha  occ. eigenvalues --   -0.27945  -0.27637  -0.27608  -0.27513  -0.26862
 Alpha  occ. eigenvalues --   -0.26775  -0.26700  -0.26601  -0.26392  -0.26341
 Alpha  occ. eigenvalues --   -0.26160  -0.25855  -0.25291  -0.24426  -0.24298
 Alpha  occ. eigenvalues --   -0.24258  -0.24020  -0.23391  -0.22668  -0.22131
 Alpha  occ. eigenvalues --   -0.21249  -0.21083  -0.21025  -0.20751  -0.20502
 Alpha  occ. eigenvalues --   -0.19928  -0.19819  -0.19287  -0.18399  -0.17759
 Alpha  occ. eigenvalues --   -0.17493  -0.17254  -0.17032  -0.16879  -0.16509
 Alpha  occ. eigenvalues --   -0.16440  -0.15955  -0.14082
 Alpha virt. eigenvalues --   -0.12780  -0.12398  -0.06303  -0.06064  -0.04121
 Alpha virt. eigenvalues --   -0.02979  -0.02520  -0.01692  -0.01193  -0.00642
 Alpha virt. eigenvalues --   -0.00215  -0.00169   0.00493   0.00686   0.00844

 Mulliken charges:
               1
     1  C    0.030173
     2  C    0.054380
     3  O   -0.373791
     4  H    0.007621
     5  H    0.066732
     6  H    0.047554
     7  N   -0.093794
     8  C    0.084276
     9  C    0.124798
    10  O   -0.240042
    11  C    0.130416
    12  C    0.006043
    13  O   -0.353205
    14  O   -0.381442
    15  H    0.135759
    16  H   -0.044963
    17  H   -0.030201
    18  H   -0.071373
    19  N   -0.177752
    20  C    0.105835
    21  C    0.062151
    22  O   -0.265985
    23  C    0.034958
    24  C    0.020904
    25  C   -0.043337
    26  C    0.003329
    27  N    0.103301
    28  H    0.101953
    29  H    0.054764
    30  H   -0.019060
    31  H    0.019566
    32  H    0.044781
    33  H    0.018021
    34  H    0.012934
    35  H    0.023744
    36  H    0.087719
    37  H    0.085612
    38  H    0.186649
    39  H    0.195149
    40  H    0.193342
    41  N   -0.146793
    42  C    0.125470
    43  C    0.033496
    44  O   -0.234398
    45  C    0.075638
    46  C    0.169604
    47  O   -0.415129
    48  O   -0.495498
    49  H    0.138509
    50  H    0.041090
    51  H    0.058028
    52  H    0.060469
    53  N   -0.113047
    54  C    0.212017
    55  C    0.038738
    56  O   -0.350534
    57  H    0.093714
    58  H    0.075260
    59  H   -0.002332
    60  N   -0.078090
    61  C    0.112692
    62  C    0.099979
    63  O   -0.302646
    64  C    0.074981
    65  C    0.024000
    66  N   -0.050467
    67  O   -0.260325
    68  H    0.114636
    69  H    0.003641
    70  H   -0.020382
    71  H    0.023201
    72  H    0.105575
    73  H    0.134876
    74  N   -0.085509
    75  C    0.161975
    76  C    0.074178
    77  O   -0.284378
    78  H    0.131615
    79  H    0.054860
    80  H   -0.003987
    81  N   -0.125807
    82  C    0.103287
    83  C    0.085980
    84  O   -0.275704
    85  C    0.166890
    86  C    0.001287
    87  C    0.005679
    88  C   -0.014237
    89  C   -0.010019
    90  C   -0.025157
    91  C    0.127620
    92  O   -0.211352
    93  H    0.115805
    94  H    0.059616
    95  H    0.022135
    96  H   -0.016551
    97  H   -0.025694
    98  H   -0.062027
    99  H   -0.027643
   100  H   -0.062478
   101  H    0.166154
   102  N   -0.137397
   103  C    0.188045
   104  C    0.069135
   105  O   -0.298111
   106  C   -0.096788
   107  C    0.039231
   108  C    0.034099
   109  C    0.034271
   110  H    0.116415
   111  H    0.000457
   112  H    0.003637
   113  H   -0.048951
   114  H   -0.021223
   115  H   -0.005972
   116  H   -0.013269
   117  H    0.039479
   118  H   -0.007476
   119  H    0.002494
   120  H    0.020832
   121  N   -0.161804
   122  C    0.135144
   123  C    0.044856
   124  O   -0.290128
   125  C    0.204264
   126  O   -0.302287
   127  H    0.169447
   128  H    0.019509
   129  H   -0.021155
   130  H   -0.000921
   131  H    0.150987
   132  N   -0.141200
   133  C    0.090631
   134  C    0.061425
   135  O   -0.287053
   136  C    0.060299
   137  H    0.118306
   138  H    0.005688
   139  H   -0.022525
   140  H    0.043495
   141  H    0.015118
   142  N   -0.128312
   143  C    0.100439
   144  C    0.034463
   145  O   -0.261008
   146  C    0.095748
   147  H    0.124419
   148  H   -0.009846
   149  H   -0.004432
   150  H    0.001274
   151  H    0.020231
   152  N   -0.148203
   153  C    0.189827
   154  C    0.008016
   155  O   -0.313427
   156  C   -0.017930
   157  C    0.037848
   158  C    0.145824
   159  O   -0.383603
   160  O   -0.436389
   161  H    0.121222
   162  H    0.026301
   163  H    0.031775
   164  H    0.010218
   165  H   -0.016743
   166  H    0.007862
   167  N   -0.135276
   168  C    0.135843
   169  H    0.027051
   170  H    0.008065
   171  H    0.015990
   172  H    0.106726
   173  Ca   1.369982
   174  O   -0.323868
   175  H    0.185526
   176  H    0.223350
 Sum of Mulliken charges =  -0.00000

 Dipole moment (field-independent basis, Debye):
    X=             42.3716    Y=             44.5184    Z=             -8.6869  Tot=             62.0701
 Quadrupole moment (field-independent basis, Debye-Ang):
   XX=           -402.2007   YY=           -584.3119   ZZ=           -384.6803
   XY=            160.3718   XZ=           -244.9442   YZ=            -46.1039

 ESP charges:
               1
     1  C   -0.514738
     2  C    0.882888
     3  O   -0.705894
     4  H    0.135551
     5  H    0.159449
     6  H    0.133670
     7  N   -0.813978
     8  C    0.565019
     9  C    0.449481
    10  O   -0.465364
    11  C   -0.426586
    12  C    0.780183
    13  O   -0.677294
    14  O   -0.704357
    15  H    0.374680
    16  H   -0.062681
    17  H    0.073741
    18  H    0.020793
    19  N   -0.572552
    20  C   -0.021098
    21  C    0.309033
    22  O   -0.498582
    23  C   -0.050427
    24  C   -0.054058
    25  C   -0.009203
    26  C    0.086698
    27  N   -0.507055
    28  H    0.300725
    29  H    0.195604
    30  H    0.048592
    31  H    0.042565
    32  H    0.056851
    33  H    0.042621
    34  H    0.014243
    35  H    0.032715
    36  H    0.100055
    37  H    0.085292
    38  H    0.370109
    39  H    0.360645
    40  H    0.355178
    41  N   -0.127377
    42  C    0.088051
    43  C    0.520765
    44  O   -0.505603
    45  C   -0.295116
    46  C    0.910841
    47  O   -0.731151
    48  O   -0.889312
    49  H    0.225936
    50  H    0.088610
    51  H    0.102012
    52  H    0.100192
    53  N   -0.532378
    54  C    0.290702
    55  C    0.706895
    56  O   -0.670126
    57  H    0.233260
    58  H    0.026226
    59  H   -0.047423
    60  N   -0.721839
    61  C    0.353146
    62  C    0.584525
    63  O   -0.575167
    64  C   -0.607388
    65  C    0.833952
    66  N   -0.883905
    67  O   -0.565242
    68  H    0.342539
    69  H    0.032025
    70  H    0.148404
    71  H    0.176170
    72  H    0.376856
    73  H    0.388754
    74  N   -0.505072
    75  C    0.039655
    76  C    0.507258
    77  O   -0.444354
    78  H    0.341147
    79  H    0.061367
    80  H    0.060359
    81  N   -0.583004
    82  C    0.485948
    83  C    0.583420
    84  O   -0.554745
    85  C   -0.270418
    86  C    0.157584
    87  C   -0.260051
    88  C   -0.145868
    89  C   -0.196893
    90  C   -0.334101
    91  C    0.351793
    92  O   -0.563744
    93  H    0.255870
    94  H   -0.084966
    95  H    0.096812
    96  H    0.046411
    97  H    0.202726
    98  H    0.121854
    99  H    0.153729
   100  H    0.136107
   101  H    0.406532
   102  N   -0.466304
   103  C   -0.383278
   104  C    0.825583
   105  O   -0.609680
   106  C    0.238603
   107  C    0.230523
   108  C   -0.235127
   109  C   -0.289283
   110  H    0.282960
   111  H    0.145370
   112  H   -0.002536
   113  H   -0.105172
   114  H   -0.047521
   115  H    0.028593
   116  H    0.070934
   117  H    0.067509
   118  H    0.063351
   119  H    0.072423
   120  H    0.069854
   121  N   -0.785645
   122  C    0.342843
   123  C    0.472011
   124  O   -0.572535
   125  C    0.171389
   126  O   -0.631000
   127  H    0.422278
   128  H    0.044115
   129  H    0.009333
   130  H    0.010961
   131  H    0.391946
   132  N   -0.494737
   133  C    0.263381
   134  C    0.459644
   135  O   -0.496158
   136  C   -0.380094
   137  H    0.306303
   138  H    0.037250
   139  H    0.082552
   140  H    0.123152
   141  H    0.094640
   142  N   -0.523764
   143  C    0.294187
   144  C    0.489137
   145  O   -0.516078
   146  C   -0.393424
   147  H    0.330406
   148  H    0.023934
   149  H    0.069155
   150  H    0.101951
   151  H    0.141370
   152  N   -0.714007
   153  C    0.223985
   154  C    0.402006
   155  O   -0.547081
   156  C    0.193632
   157  C   -0.351824
   158  C    0.796422
   159  O   -0.714471
   160  O   -0.726046
   161  H    0.369888
   162  H    0.068615
   163  H   -0.003252
   164  H   -0.044386
   165  H    0.110456
   166  H    0.024597
   167  N   -0.225348
   168  C   -0.096360
   169  H    0.072118
   170  H    0.057162
   171  H    0.059228
   172  H    0.225605
   173  Ca   1.612411
   174  O   -0.869665
   175  H    0.424600
   176  H    0.470708
 Sum of ESP charges =   0.00000

 Normal termination of Gaussian 16 at Thu Sep 19 10:01:54 2019.
