 Gaussian 16, Revision A.03,
 Gaussian 16:  ES64L-G16RevA.03 25-Dec-2016

 ----------------------------------------------------------------------
 #b3lyp/svp scf=(tight,noincore) Test #IOP(5/87=12) Density=Current Pop
 =(MK,readradii) iop(6/33=2) iop(6/42=6)
 ----------------------------------------------------------------------

 ----------------
 Ng-31_loop3_36.0
 ----------------
 Symbolic Z-matrix:
 Charge =  0 Multiplicity = 1

                         Standard orientation:
 ---------------------------------------------------------------------
 Center     Atomic      Atomic             Coordinates (Angstroms)
 Number     Number       Type             X           Y           Z
 ---------------------------------------------------------------------
      1          6           0        9.129228   -0.258016    3.478084
      2          6           0        7.982356   -0.066078    2.507340
      3          8           0        6.899681    0.369073    2.893552
      4          1           0       10.031350   -0.522260    2.926366
      5          1           0        9.298633    0.667252    4.027887
      6          1           0        8.884470   -1.057508    4.177716
      7          7           0        8.239286   -0.090305    1.193073
      8          6           0        7.296673    0.148977    0.120168
      9          6           0        6.276577   -0.965672   -0.051478
     10          8           0        5.124418   -0.757071   -0.437760
     11          6           0        8.039744    0.527775   -1.151231
     12          6           0        9.140263   -0.432460   -1.580656
     13          8           0        9.806568   -1.173530   -0.818978
     14          8           0        9.572920   -0.236216   -2.742894
     15          1           0        9.145527   -0.445600    0.902226
     16          1           0        6.844337    1.097058    0.430388
     17          1           0        8.456697    1.532392   -1.108858
     18          1           0        7.341341    0.569601   -1.991816
     19          7           0        6.575511   -2.192080    0.392889
     20          6           0        5.519469   -3.174722    0.425894
     21          6           0        5.011293   -3.533848   -0.960175
     22          8           0        5.750378   -3.856540   -1.899016
     23          6           0        5.962213   -4.361485    1.274052
     24          6           0        5.955197   -4.030105    2.768320
     25          6           0        6.455959   -5.210719    3.586543
     26          6           0        6.837369   -4.933607    5.037452
     27          7           0        5.661637   -4.428931    5.755336
     28          1           0        7.483175   -2.305929    0.815836
     29          1           0        4.652045   -2.744140    0.931043
     30          1           0        6.904146   -4.768262    0.901499
     31          1           0        5.347187   -5.253117    1.181668
     32          1           0        4.941036   -3.829653    3.088784
     33          1           0        6.536027   -3.136780    3.031958
     34          1           0        7.359406   -5.605714    3.115097
     35          1           0        5.716320   -6.018912    3.530348
     36          1           0        7.598246   -4.146600    5.063646
     37          1           0        7.251187   -5.860913    5.458590
     38          1           0        5.795332   -4.077005    6.694737
     39          1           0        5.249779   -3.621268    5.310079
     40          1           0        4.963125   -5.161127    5.847912
     41          7           0        3.672430   -3.576010   -1.021557
     42          6           0        2.939369   -3.654857   -2.261438
     43          6           0        2.354599   -2.303703   -2.659592
     44          8           0        1.503700   -2.056678   -3.506380
     45          6           0        1.872347   -4.743351   -2.268119
     46          6           0        1.105029   -5.034670   -0.988995
     47          8           0        1.762887   -5.336997    0.033512
     48          8           0       -0.139780   -4.885150   -1.035829
     49          1           0        3.180359   -3.336688   -0.175631
     50          1           0        3.596063   -3.855958   -3.101148
     51          1           0        2.415448   -5.652823   -2.484685
     52          1           0        1.139818   -4.491135   -3.048112
     53          7           0        2.859718   -1.247231   -2.021453
     54          6           0        2.613649    0.152774   -2.310998
     55          6           0        3.500018    0.656707   -3.449331
     56          8           0        4.300532   -0.045781   -4.049821
     57          1           0        3.605258   -1.304542   -1.336554
     58          1           0        2.746768    0.648101   -1.353277
     59          1           0        1.586644    0.375675   -2.608784
     60          7           0        3.496512    1.957124   -3.726828
     61          6           0        3.030790    3.097694   -2.958713
     62          6           0        4.118354    3.999855   -2.382596
     63          8           0        4.659556    4.882883   -3.033028
     64          6           0        2.108357    3.803472   -3.943444
     65          6           0        0.827468    3.051015   -4.245490
     66          7           0        0.829836    2.227275   -5.292031
     67          8           0       -0.171353    3.248217   -3.555224
     68          1           0        3.954946    2.158229   -4.604265
     69          1           0        2.549133    2.737527   -2.048721
     70          1           0        2.749701    3.838945   -4.817755
     71          1           0        1.857424    4.817109   -3.626941
     72          1           0        1.317928    2.476199   -6.138910
     73          1           0        0.224027    1.421862   -5.322115
     74          7           0        4.562365    3.834700   -1.125028
     75          6           0        4.524445    2.705566   -0.224517
     76          6           0        3.267769    2.682262    0.638919
     77          8           0        3.144215    1.738161    1.414810
     78          1           0        5.115411    4.626293   -0.819218
     79          1           0        5.441799    2.874689    0.325446
     80          1           0        4.506979    1.727906   -0.716427
     81          7           0        2.299878    3.564447    0.400723
     82          6           0        0.950566    3.439787    0.930174
     83          6           0        0.016481    2.675839    0.008454
     84          8           0        0.362711    2.307820   -1.106484
     85          6           0        0.313710    4.793497    1.219975
     86          6           0        0.961691    5.612770    2.300072
     87          6           0        0.985913    5.185472    3.642246
     88          6           0        1.291823    6.947093    2.051489
     89          6           0        1.338043    6.026059    4.704517
     90          6           0        1.807318    7.761879    3.064301
     91          6           0        1.739302    7.337943    4.415468
     92          8           0        2.263094    8.145334    5.382712
     93          1           0        2.424322    4.418932   -0.121262
     94          1           0        1.054863    2.931289    1.889732
     95          1           0       -0.769736    4.703684    1.283056
     96          1           0        0.438292    5.374396    0.301315
     97          1           0        0.741677    4.159909    3.900257
     98          1           0        1.436583    7.303510    1.045650
     99          1           0        1.327700    5.678966    5.728929
    100          1           0        2.169463    8.745827    2.819152
    101          1           0        2.398001    9.000114    4.967921
    102          7           0       -1.173841    2.293487    0.485779
    103          6           0       -1.967062    1.269856   -0.172841
    104          6           0       -3.329258    1.757597   -0.638276
    105          8           0       -3.862610    1.010241   -1.448026
    106          6           0       -2.108956    0.046485    0.730614
    107          6           0       -0.863788   -0.831424    0.742096
    108          6           0       -2.441272    0.362030    2.185776
    109          6           0       -0.413842   -1.407950   -0.598823
    110          1           0       -1.515016    2.717552    1.331397
    111          1           0       -1.509502    0.978443   -1.119740
    112          1           0       -3.002779   -0.484107    0.412569
    113          1           0       -1.063346   -1.749543    1.295843
    114          1           0       -0.031427   -0.295313    1.206059
    115          1           0       -1.790227    1.098201    2.650094
    116          1           0       -3.478383    0.663888    2.088400
    117          1           0       -2.415560   -0.573886    2.754900
    118          1           0        0.416636   -2.083221   -0.390696
    119          1           0       -1.179986   -2.029523   -1.052222
    120          1           0       -0.124433   -0.661499   -1.334386
    121          7           0       -3.828451    2.940529   -0.273751
    122          6           0       -4.981099    3.534512   -0.909194
    123          6           0       -6.276542    2.920354   -0.389254
    124          8           0       -6.282916    2.626050    0.800681
    125          6           0       -4.882712    5.047969   -0.755030
    126          8           0       -5.762727    5.652624   -1.678321
    127          1           0       -3.453787    3.466147    0.503585
    128          1           0       -4.936026    3.403333   -1.987924
    129          1           0       -3.860769    5.425543   -0.878201
    130          1           0       -5.115926    5.344634    0.266978
    131          1           0       -5.606953    5.566041   -2.616851
    132          7           0       -7.315269    2.695671   -1.195891
    133          6           0       -8.594862    2.224922   -0.722671
    134          6           0       -8.731099    0.714156   -0.598877
    135          8           0       -8.125704   -0.117052   -1.273258
    136          6           0       -9.609376    2.769320   -1.735287
    137          1           0       -7.241858    2.913910   -2.181326
    138          1           0       -8.713791    2.664198    0.272866
    139          1           0      -10.648489    2.549937   -1.502659
    140          1           0       -9.474077    3.845480   -1.639499
    141          1           0       -9.244950    2.687548   -2.759497
    142          7           0       -9.647010    0.279905    0.266011
    143          6           0      -10.171533   -1.066911    0.382474
    144          6           0       -9.206651   -2.190512    0.769024
    145          8           0       -9.582844   -3.348330    0.557039
    146          6           0      -11.052063   -1.375453   -0.816262
    147          1           0      -10.203250    1.034735    0.639145
    148          1           0      -10.798749   -0.953141    1.268057
    149          1           0      -11.452188   -2.392007   -0.748297
    150          1           0      -11.862355   -0.658058   -0.933186
    151          1           0      -10.500857   -1.346578   -1.756388
    152          7           0       -8.083798   -1.943309    1.429320
    153          6           0       -7.210315   -3.020868    1.861980
    154          6           0       -6.806631   -2.861537    3.318501
    155          8           0       -6.474140   -3.888325    3.898979
    156          6           0       -5.973951   -2.999425    0.968813
    157          6           0       -5.054105   -4.117502    1.436241
    158          6           0       -4.179085   -4.564036    0.281101
    159          8           0       -3.929549   -5.751376   -0.040386
    160          8           0       -3.519345   -3.690613   -0.328632
    161          1           0       -7.815396   -0.980597    1.609449
    162          1           0       -7.777424   -3.944055    1.772469
    163          1           0       -5.492825   -2.011560    0.975116
    164          1           0       -6.310323   -3.206503   -0.046358
    165          1           0       -5.724734   -4.971458    1.571208
    166          1           0       -4.506522   -3.868767    2.344857
    167          7           0       -7.075507   -1.714742    3.934916
    168          6           0       -6.640933   -1.435754    5.285475
    169          1           0       -7.501624   -1.452523    5.954637
    170          1           0       -5.922342   -2.192672    5.599715
    171          1           0       -6.173092   -0.452035    5.321632
    172          1           0       -7.494273   -0.992587    3.361829
    173         20           0       -2.448897   -5.104450   -2.175604
    174          8           0       -3.916898   -3.900659   -3.871559
    175          1           0       -3.623204   -3.047635   -4.169373
    176          1           0       -4.125386   -4.379095   -4.674574
 ---------------------------------------------------------------------

 SCF Done:  E(RB3LYP) =  -5333.30771418     A.U. after   40 cycles

 The electronic state is 1-A.
 Alpha  occ. eigenvalues -- -145.45642 -19.23925 -19.17276 -19.14733 -19.10514
 Alpha  occ. eigenvalues --  -19.10093 -19.09130 -19.08783 -19.08671 -19.08141
 Alpha  occ. eigenvalues --  -19.08087 -19.08029 -19.07909 -19.07238 -19.05832
 Alpha  occ. eigenvalues --  -19.05831 -19.05674 -19.05613 -19.05215 -19.05152
 Alpha  occ. eigenvalues --  -19.04726 -19.02411 -18.97293 -18.95166 -15.51593
 Alpha  occ. eigenvalues --  -14.57454 -14.37243 -14.36809 -14.36238 -14.35708
 Alpha  occ. eigenvalues --  -14.35522 -14.35285 -14.35270 -14.33962 -14.33403
 Alpha  occ. eigenvalues --  -14.32805 -14.31874 -14.31777 -14.30490 -14.29123
 Alpha  occ. eigenvalues --  -12.65196 -12.65135 -12.65121 -10.34586 -10.29187
 Alpha  occ. eigenvalues --  -10.28870 -10.28303 -10.27693 -10.27441 -10.27132
 Alpha  occ. eigenvalues --  -10.26997 -10.26714 -10.26598 -10.26263 -10.26084
 Alpha  occ. eigenvalues --  -10.25967 -10.25958 -10.25675 -10.24974 -10.24811
 Alpha  occ. eigenvalues --  -10.24700 -10.24503 -10.24298 -10.24170 -10.23881
 Alpha  occ. eigenvalues --  -10.23563 -10.23320 -10.23042 -10.22472 -10.22243
 Alpha  occ. eigenvalues --  -10.21865 -10.21684 -10.21681 -10.21479 -10.21473
 Alpha  occ. eigenvalues --  -10.21095 -10.20987 -10.20353 -10.20258 -10.20159
 Alpha  occ. eigenvalues --  -10.19973 -10.19864 -10.19632 -10.19059 -10.18488
 Alpha  occ. eigenvalues --  -10.18130 -10.18088 -10.17601 -10.17005 -10.16842
 Alpha  occ. eigenvalues --  -10.16775 -10.16177 -10.15549 -10.14956 -10.14396
 Alpha  occ. eigenvalues --  -10.13341 -10.12280  -1.88357  -1.15881  -1.15465
 Alpha  occ. eigenvalues --   -1.15386  -1.12801  -1.09935  -1.06157  -1.04424
 Alpha  occ. eigenvalues --   -1.03571  -1.02939  -1.02641  -1.02340  -1.01961
 Alpha  occ. eigenvalues --   -1.01712  -1.01456  -1.01334  -1.01001  -1.00783
 Alpha  occ. eigenvalues --   -0.99686  -0.99079  -0.98919  -0.98416  -0.97751
 Alpha  occ. eigenvalues --   -0.97603  -0.94106  -0.93445  -0.92862  -0.92758
 Alpha  occ. eigenvalues --   -0.92109  -0.91681  -0.91201  -0.91007  -0.90381
 Alpha  occ. eigenvalues --   -0.90250  -0.89362  -0.89285  -0.89145  -0.88346
 Alpha  occ. eigenvalues --   -0.88193  -0.87826  -0.87443  -0.85944  -0.85484
 Alpha  occ. eigenvalues --   -0.81541  -0.80797  -0.80498  -0.80230  -0.78961
 Alpha  occ. eigenvalues --   -0.78538  -0.77270  -0.76343  -0.76278  -0.75796
 Alpha  occ. eigenvalues --   -0.75498  -0.74299  -0.74150  -0.73491  -0.72644
 Alpha  occ. eigenvalues --   -0.72255  -0.71769  -0.70758  -0.70193  -0.69785
 Alpha  occ. eigenvalues --   -0.69760  -0.69159  -0.69028  -0.68721  -0.68197
 Alpha  occ. eigenvalues --   -0.67113  -0.67044  -0.65977  -0.64848  -0.64075
 Alpha  occ. eigenvalues --   -0.63075  -0.62716  -0.62678  -0.62237  -0.61104
 Alpha  occ. eigenvalues --   -0.60735  -0.60655  -0.60554  -0.60235  -0.60227
 Alpha  occ. eigenvalues --   -0.60160  -0.59474  -0.59011  -0.58673  -0.58570
 Alpha  occ. eigenvalues --   -0.58025  -0.57717  -0.57021  -0.56802  -0.56268
 Alpha  occ. eigenvalues --   -0.56112  -0.55710  -0.55547  -0.54768  -0.54670
 Alpha  occ. eigenvalues --   -0.54542  -0.54285  -0.53590  -0.53127  -0.52530
 Alpha  occ. eigenvalues --   -0.52367  -0.52286  -0.51569  -0.51262  -0.51096
 Alpha  occ. eigenvalues --   -0.50768  -0.50580  -0.50345  -0.50254  -0.49840
 Alpha  occ. eigenvalues --   -0.49602  -0.49287  -0.49180  -0.48956  -0.48673
 Alpha  occ. eigenvalues --   -0.48553  -0.47994  -0.47785  -0.47671  -0.47561
 Alpha  occ. eigenvalues --   -0.47468  -0.46726  -0.46533  -0.46132  -0.46085
 Alpha  occ. eigenvalues --   -0.45682  -0.45430  -0.45299  -0.45245  -0.45094
 Alpha  occ. eigenvalues --   -0.44796  -0.44531  -0.44465  -0.44390  -0.43949
 Alpha  occ. eigenvalues --   -0.43729  -0.43403  -0.43385  -0.43266  -0.43068
 Alpha  occ. eigenvalues --   -0.42962  -0.42954  -0.42572  -0.42490  -0.42416
 Alpha  occ. eigenvalues --   -0.42264  -0.42114  -0.42029  -0.41779  -0.41743
 Alpha  occ. eigenvalues --   -0.41611  -0.41464  -0.41358  -0.41313  -0.41264
 Alpha  occ. eigenvalues --   -0.41070  -0.40570  -0.40436  -0.40325  -0.40213
 Alpha  occ. eigenvalues --   -0.40120  -0.40003  -0.39946  -0.39729  -0.39544
 Alpha  occ. eigenvalues --   -0.39501  -0.39453  -0.39437  -0.39299  -0.39045
 Alpha  occ. eigenvalues --   -0.39028  -0.38714  -0.38636  -0.38484  -0.38405
 Alpha  occ. eigenvalues --   -0.38338  -0.37985  -0.37737  -0.37601  -0.37573
 Alpha  occ. eigenvalues --   -0.37358  -0.37208  -0.37132  -0.37116  -0.36851
 Alpha  occ. eigenvalues --   -0.36550  -0.36479  -0.36235  -0.36087  -0.36008
 Alpha  occ. eigenvalues --   -0.35643  -0.35476  -0.35376  -0.35343  -0.35092
 Alpha  occ. eigenvalues --   -0.34968  -0.34957  -0.34661  -0.34568  -0.34240
 Alpha  occ. eigenvalues --   -0.34017  -0.33974  -0.33764  -0.33513  -0.33480
 Alpha  occ. eigenvalues --   -0.33469  -0.33062  -0.32500  -0.32239  -0.32175
 Alpha  occ. eigenvalues --   -0.32098  -0.31803  -0.31298  -0.30698  -0.30435
 Alpha  occ. eigenvalues --   -0.30227  -0.28829  -0.28209  -0.27666  -0.27543
 Alpha  occ. eigenvalues --   -0.27314  -0.26955  -0.26894  -0.26862  -0.26373
 Alpha  occ. eigenvalues --   -0.26312  -0.26029  -0.25945  -0.25710  -0.25493
 Alpha  occ. eigenvalues --   -0.25451  -0.25119  -0.25038  -0.24923  -0.24889
 Alpha  occ. eigenvalues --   -0.24653  -0.24509  -0.23972  -0.23335  -0.23289
 Alpha  occ. eigenvalues --   -0.23007  -0.22609  -0.22399  -0.22389  -0.21998
 Alpha  occ. eigenvalues --   -0.21884  -0.21830  -0.21579  -0.21363  -0.21177
 Alpha  occ. eigenvalues --   -0.20904  -0.20455  -0.20306  -0.19675  -0.18354
 Alpha  occ. eigenvalues --   -0.14483  -0.13455  -0.10664
 Alpha virt. eigenvalues --   -0.09857  -0.09535  -0.03940  -0.02900  -0.02750
 Alpha virt. eigenvalues --   -0.01913  -0.01581  -0.01147  -0.00223   0.00455
 Alpha virt. eigenvalues --    0.00859   0.01142   0.01459   0.01760   0.02180

 Mulliken charges:
               1
     1  C    0.082582
     2  C   -0.026284
     3  O   -0.314745
     4  H    0.019374
     5  H    0.041379
     6  H   -0.025092
     7  N   -0.162379
     8  C    0.152944
     9  C    0.169759
    10  O   -0.312681
    11  C    0.006274
    12  C    0.064900
    13  O   -0.387068
    14  O   -0.357736
    15  H    0.108570
    16  H   -0.012228
    17  H    0.007838
    18  H    0.022897
    19  N   -0.108893
    20  C    0.147784
    21  C    0.081823
    22  O   -0.261610
    23  C    0.032867
    24  C   -0.020675
    25  C   -0.056479
    26  C    0.060203
    27  N    0.082843
    28  H    0.110254
    29  H   -0.022413
    30  H    0.028289
    31  H    0.015212
    32  H   -0.002269
    33  H    0.021099
    34  H    0.051777
    35  H    0.033991
    36  H    0.076566
    37  H    0.080867
    38  H    0.165271
    39  H    0.181751
    40  H    0.177276
    41  N   -0.129501
    42  C    0.115627
    43  C    0.057131
    44  O   -0.307698
    45  C    0.112100
    46  C    0.113719
    47  O   -0.370922
    48  O   -0.473767
    49  H    0.125603
    50  H    0.040020
    51  H   -0.008270
    52  H   -0.052396
    53  N   -0.143184
    54  C    0.135590
    55  C    0.014129
    56  O   -0.239145
    57  H    0.121478
    58  H    0.039389
    59  H    0.045560
    60  N   -0.126718
    61  C    0.073749
    62  C    0.055722
    63  O   -0.255839
    64  C    0.115950
    65  C    0.029788
    66  N   -0.078368
    67  O   -0.247693
    68  H    0.115250
    69  H    0.014047
    70  H   -0.020133
    71  H   -0.004132
    72  H    0.121805
    73  H    0.130060
    74  N   -0.166903
    75  C    0.174312
    76  C    0.033460
    77  O   -0.273818
    78  H    0.124355
    79  H    0.059084
    80  H    0.080257
    81  N   -0.105785
    82  C    0.085359
    83  C    0.103599
    84  O   -0.229194
    85  C    0.087038
    86  C    0.012579
    87  C   -0.004237
    88  C   -0.006774
    89  C   -0.019946
    90  C   -0.047913
    91  C    0.155210
    92  O   -0.188448
    93  H    0.117397
    94  H    0.023275
    95  H   -0.001974
    96  H   -0.015125
    97  H   -0.021150
    98  H   -0.021247
    99  H   -0.021149
   100  H   -0.037239
   101  H    0.172952
   102  N   -0.164512
   103  C    0.142437
   104  C    0.070795
   105  O   -0.278574
   106  C   -0.076677
   107  C    0.017250
   108  C    0.041540
   109  C    0.025038
   110  H    0.111916
   111  H    0.052539
   112  H    0.016400
   113  H    0.005492
   114  H   -0.003913
   115  H   -0.013811
   116  H   -0.002595
   117  H    0.010046
   118  H    0.017059
   119  H   -0.020387
   120  H    0.023736
   121  N   -0.099523
   122  C    0.052997
   123  C    0.114231
   124  O   -0.300428
   125  C    0.267368
   126  O   -0.337978
   127  H    0.104747
   128  H   -0.015089
   129  H    0.010741
   130  H    0.002901
   131  H    0.171197
   132  N   -0.096898
   133  C    0.052088
   134  C    0.081553
   135  O   -0.259971
   136  C    0.056157
   137  H    0.116760
   138  H    0.010120
   139  H    0.025712
   140  H    0.016746
   141  H    0.020931
   142  N   -0.147495
   143  C    0.087175
   144  C    0.085425
   145  O   -0.291572
   146  C    0.060882
   147  H    0.105932
   148  H    0.010017
   149  H    0.036227
   150  H   -0.014252
   151  H    0.027080
   152  N   -0.129267
   153  C    0.074240
   154  C    0.045397
   155  O   -0.276735
   156  C    0.027760
   157  C    0.127186
   158  C    0.104682
   159  O   -0.430680
   160  O   -0.464820
   161  H    0.125487
   162  H    0.046858
   163  H    0.010663
   164  H    0.011480
   165  H    0.000572
   166  H    0.036552
   167  N   -0.133652
   168  C    0.130021
   169  H    0.023204
   170  H    0.045649
   171  H    0.018789
   172  H    0.093477
   173  Ca   1.347164
   174  O   -0.302014
   175  H    0.211313
   176  H    0.188351
 Sum of Mulliken charges =  -0.00000

 Dipole moment (field-independent basis, Debye):
    X=            -18.2932    Y=             -2.7358    Z=             19.7831  Tot=             27.0832
 Quadrupole moment (field-independent basis, Debye-Ang):
   XX=           -687.1861   YY=           -455.1621   ZZ=           -403.8402
   XY=           -108.9034   XZ=            254.7335   YZ=            -41.7434

 ESP charges:
               1
     1  C   -0.556565
     2  C    0.757498
     3  O   -0.637870
     4  H    0.132205
     5  H    0.165815
     6  H    0.113791
     7  N   -0.432306
     8  C   -0.003409
     9  C    0.629520
    10  O   -0.546831
    11  C   -0.177710
    12  C    0.716739
    13  O   -0.682865
    14  O   -0.656160
    15  H    0.232043
    16  H    0.078470
    17  H    0.072534
    18  H    0.051833
    19  N   -0.626264
    20  C    0.238035
    21  C    0.727390
    22  O   -0.563046
    23  C   -0.339838
    24  C    0.333151
    25  C   -0.082896
    26  C   -0.000112
    27  N   -0.308775
    28  H    0.295869
    29  H    0.025855
    30  H    0.117607
    31  H    0.082788
    32  H   -0.060305
    33  H   -0.073335
    34  H    0.054166
    35  H    0.038034
    36  H    0.086808
    37  H    0.092442
    38  H    0.299725
    39  H    0.302405
    40  H    0.305758
    41  N   -0.770901
    42  C    0.532927
    43  C    0.508218
    44  O   -0.595622
    45  C   -0.372608
    46  C    0.761995
    47  O   -0.646243
    48  O   -0.793784
    49  H    0.323863
    50  H    0.022655
    51  H    0.081246
    52  H   -0.019939
    53  N   -0.762426
    54  C    0.384253
    55  C    0.565830
    56  O   -0.511916
    57  H    0.348052
    58  H    0.045784
    59  H    0.020899
    60  N   -0.680744
    61  C    0.789911
    62  C    0.354428
    63  O   -0.545846
    64  C   -0.538684
    65  C    0.869319
    66  N   -0.970986
    67  O   -0.597963
    68  H    0.305194
    69  H   -0.285446
    70  H    0.095443
    71  H    0.105022
    72  H    0.403323
    73  H    0.408762
    74  N   -0.255781
    75  C   -0.338948
    76  C    0.615110
    77  O   -0.524060
    78  H    0.258916
    79  H    0.202785
    80  H    0.116118
    81  N   -0.534523
    82  C    0.318628
    83  C    0.381346
    84  O   -0.317427
    85  C   -0.354114
    86  C    0.233649
    87  C   -0.265244
    88  C   -0.251416
    89  C   -0.145426
    90  C   -0.217833
    91  C    0.264623
    92  O   -0.494950
    93  H    0.254856
    94  H    0.024461
    95  H    0.093741
    96  H    0.100799
    97  H    0.151579
    98  H    0.153663
    99  H    0.145650
   100  H    0.134405
   101  H    0.386449
   102  N   -0.441886
   103  C   -0.272672
   104  C    0.892461
   105  O   -0.618707
   106  C    0.465147
   107  C   -0.322977
   108  C   -0.322856
   109  C   -0.091281
   110  H    0.281818
   111  H    0.125369
   112  H   -0.043003
   113  H    0.097756
   114  H    0.062105
   115  H    0.044749
   116  H    0.035916
   117  H    0.078102
   118  H    0.124812
   119  H    0.025145
   120  H    0.027360
   121  N   -0.669212
   122  C   -0.020730
   123  C    0.773902
   124  O   -0.585775
   125  C    0.423729
   126  O   -0.706294
   127  H    0.297116
   128  H    0.054725
   129  H   -0.022752
   130  H    0.001565
   131  H    0.423143
   132  N   -0.774478
   133  C    0.428131
   134  C    0.483502
   135  O   -0.487734
   136  C   -0.455955
   137  H    0.356183
   138  H   -0.008962
   139  H    0.125080
   140  H    0.113789
   141  H    0.142563
   142  N   -0.642349
   143  C    0.339779
   144  C    0.548134
   145  O   -0.529059
   146  C   -0.285098
   147  H    0.311524
   148  H    0.009998
   149  H    0.062321
   150  H    0.065996
   151  H    0.110618
   152  N   -0.760920
   153  C    0.386874
   154  C    0.337297
   155  O   -0.513669
   156  C   -0.074817
   157  C   -0.282842
   158  C    0.784355
   159  O   -0.759685
   160  O   -0.754459
   161  H    0.340074
   162  H    0.065473
   163  H    0.059009
   164  H    0.069493
   165  H    0.047572
   166  H    0.136863
   167  N   -0.239243
   168  C   -0.058568
   169  H    0.052958
   170  H    0.088218
   171  H    0.047846
   172  H    0.217568
   173  Ca   1.548171
   174  O   -0.785554
   175  H    0.435341
   176  H    0.408628
 Sum of ESP charges =   0.00000

 Normal termination of Gaussian 16 at Wed Sep 18 17:17:31 2019.
