 Gaussian 16, Revision A.03,
 Gaussian 16:  ES64L-G16RevA.03 25-Dec-2016

 ----------------------------------------------------------------------
 #b3lyp/svp scf=(tight,noincore) Test #IOP(5/87=12) Density=Current Pop
 =(MK,readradii) iop(6/33=2) iop(6/42=6)
 ----------------------------------------------------------------------

 ----------------
 Ng-31_loop3_15.0
 ----------------
 Symbolic Z-matrix:
 Charge =  0 Multiplicity = 1

                         Standard orientation:
 ---------------------------------------------------------------------
 Center     Atomic      Atomic             Coordinates (Angstroms)
 Number     Number       Type             X           Y           Z
 ---------------------------------------------------------------------
      1          6           0        6.422579    0.586220    5.277815
      2          6           0        5.702330    0.810197    3.956310
      3          8           0        4.577746    1.293002    3.848567
      4          1           0        7.362127    0.065114    5.095392
      5          1           0        6.626771    1.547673    5.748221
      6          1           0        5.795915   -0.015128    5.936258
      7          7           0        6.242007    0.276253    2.862942
      8          6           0        5.621385    0.346176    1.553347
      9          6           0        5.023315   -0.949278    1.017146
     10          8           0        4.028400   -0.797260    0.306770
     11          6           0        6.631987    0.804759    0.509179
     12          6           0        8.070050    0.297587    0.551058
     13          8           0        8.603170   -0.126118    1.593294
     14          8           0        8.723532    0.204552   -0.509934
     15          1           0        7.096199   -0.239283    2.995519
     16          1           0        4.838381    1.106168    1.535547
     17          1           0        6.726195    1.882312    0.619654
     18          1           0        6.365925    0.678087   -0.549341
     19          7           0        5.577452   -2.119588    1.336374
     20          6           0        4.964396   -3.400128    1.051277
     21          6           0        4.878713   -3.647498   -0.449279
     22          8           0        5.723117   -3.195182   -1.225418
     23          6           0        5.673191   -4.534783    1.780639
     24          6           0        5.531452   -4.493755    3.295408
     25          6           0        6.201850   -5.652472    4.017934
     26          6           0        5.347146   -6.913677    4.115110
     27          7           0        4.153260   -6.619214    4.913251
     28          1           0        6.392623   -2.061310    1.921183
     29          1           0        3.927206   -3.399655    1.404314
     30          1           0        6.696827   -4.644039    1.418519
     31          1           0        5.311092   -5.487945    1.405850
     32          1           0        4.483058   -4.478809    3.601916
     33          1           0        5.905419   -3.511335    3.588324
     34          1           0        6.436111   -5.302406    5.024649
     35          1           0        7.189543   -5.873693    3.608149
     36          1           0        5.916585   -7.664390    4.670780
     37          1           0        5.176840   -7.377056    3.148014
     38          1           0        3.467056   -6.247435    4.269975
     39          1           0        3.831256   -7.464137    5.351221
     40          1           0        4.383904   -5.925559    5.608625
     41          7           0        3.694934   -4.001370   -0.951315
     42          6           0        3.304630   -4.018367   -2.356297
     43          6           0        2.865661   -2.746070   -3.066978
     44          8           0        2.337907   -2.735659   -4.176738
     45          6           0        2.285193   -5.132383   -2.554075
     46          6           0        1.043031   -5.085393   -1.681593
     47          8           0        0.074046   -4.407277   -2.092721
     48          8           0        1.026565   -5.533217   -0.510234
     49          1           0        3.036821   -4.320142   -0.258009
     50          1           0        4.184756   -4.406714   -2.860941
     51          1           0        2.813538   -6.038542   -2.288316
     52          1           0        2.032204   -5.224393   -3.617857
     53          7           0        2.965026   -1.622711   -2.356774
     54          6           0        2.572197   -0.302455   -2.807895
     55          6           0        3.406712    0.283925   -3.941846
     56          8           0        4.331222   -0.351213   -4.441528
     57          1           0        3.377766   -1.719633   -1.437507
     58          1           0        2.661095    0.390795   -1.973209
     59          1           0        1.546416   -0.415755   -3.157087
     60          7           0        3.180646    1.523928   -4.374266
     61          6           0        2.376682    2.555948   -3.754366
     62          6           0        3.352726    3.657004   -3.369641
     63          8           0        3.330824    4.756829   -3.914164
     64          6           0        1.167257    2.859894   -4.643077
     65          6           0        0.359714    1.643335   -5.084958
     66          7           0        0.772208    0.907501   -6.113791
     67          8           0       -0.572005    1.168973   -4.442946
     68          1           0        3.869400    1.877317   -5.010452
     69          1           0        1.928173    2.261055   -2.801067
     70          1           0        1.465780    3.450617   -5.502629
     71          1           0        0.493824    3.579120   -4.181990
     72          1           0        1.308662    1.350819   -6.840074
     73          1           0        0.404414   -0.014034   -6.275348
     74          7           0        4.057024    3.641110   -2.237469
     75          6           0        4.035096    2.736010   -1.108172
     76          6           0        2.870582    2.846789   -0.135682
     77          8           0        2.385026    1.861241    0.413981
     78          1           0        4.770761    4.358616   -2.218373
     79          1           0        4.879984    2.960143   -0.440243
     80          1           0        4.174579    1.712198   -1.462368
     81          7           0        2.143557    3.958472   -0.111293
     82          6           0        0.811786    4.089121    0.443429
     83          6           0       -0.222346    3.415227   -0.445636
     84          8           0       -0.267744    3.571052   -1.660691
     85          6           0        0.508794    5.577134    0.579493
     86          6           0        1.265401    6.371296    1.609325
     87          6           0        1.385361    5.897048    2.926594
     88          6           0        1.573918    7.682460    1.244408
     89          6           0        2.000031    6.718869    3.881001
     90          6           0        2.244049    8.502370    2.171972
     91          6           0        2.406046    8.001813    3.477383
     92          8           0        2.996091    8.813708    4.400245
     93          1           0        2.443923    4.664913   -0.774107
     94          1           0        0.844381    3.689212    1.463140
     95          1           0       -0.538769    5.655940    0.890620
     96          1           0        0.559010    6.049859   -0.400971
     97          1           0        0.881145    5.022652    3.306855
     98          1           0        1.348999    7.956261    0.227479
     99          1           0        2.206917    6.338862    4.875683
    100          1           0        2.609567    9.479092    1.874128
    101          1           0        3.341890    9.604698    3.989199
    102          7           0       -1.029510    2.523056    0.148181
    103          6           0       -1.790138    1.512375   -0.550437
    104          6           0       -3.136393    1.986172   -1.078276
    105          8           0       -3.629026    1.325087   -1.981980
    106          6           0       -1.882854    0.237782    0.287547
    107          6           0       -0.529823   -0.362687    0.681938
    108          6           0       -2.705494    0.386524    1.561336
    109          6           0        0.417694   -0.872917   -0.401241
    110          1           0       -1.026217    2.522054    1.157185
    111          1           0       -1.220106    1.254600   -1.440558
    112          1           0       -2.449348   -0.466817   -0.326069
    113          1           0       -0.761212   -1.241736    1.272304
    114          1           0       -0.058957    0.419267    1.282465
    115          1           0       -3.774221    0.398643    1.304480
    116          1           0       -2.443631   -0.431643    2.238854
    117          1           0       -2.484767    1.280825    2.147429
    118          1           0        0.725597   -0.082386   -1.080546
    119          1           0        1.335511   -1.161507    0.111135
    120          1           0        0.039496   -1.670254   -1.043908
    121          7           0       -3.740425    3.081488   -0.589986
    122          6           0       -5.131560    3.418671   -0.779857
    123          6           0       -6.017981    2.600735    0.144123
    124          8           0       -5.732949    2.326511    1.307634
    125          6           0       -5.279210    4.935551   -0.637830
    126          8           0       -4.363153    5.738573   -1.339326
    127          1           0       -3.315566    3.558457    0.186799
    128          1           0       -5.408217    3.121242   -1.792229
    129          1           0       -5.177432    5.006379    0.442876
    130          1           0       -6.292649    5.303823   -0.805811
    131          1           0       -4.870168    5.970511   -2.116526
    132          7           0       -7.214719    2.328714   -0.383062
    133          6           0       -8.247100    1.663329    0.384956
    134          6           0       -8.171956    0.142203    0.357928
    135          8           0       -7.589345   -0.482704   -0.524770
    136          6           0       -9.618313    2.105335   -0.110227
    137          1           0       -7.310340    2.350900   -1.386887
    138          1           0       -8.158041    2.032970    1.406932
    139          1           0      -10.284228    2.255632    0.745908
    140          1           0       -9.499598    3.055584   -0.625526
    141          1           0      -10.098837    1.349059   -0.717634
    142          7           0       -8.874033   -0.428355    1.335962
    143          6           0       -9.184401   -1.839173    1.476902
    144          6           0       -8.045955   -2.846675    1.583583
    145          8           0       -8.144250   -4.030625    1.256168
    146          6           0      -10.342539   -2.168042    0.538039
    147          1           0       -9.276276    0.110308    2.079631
    148          1           0       -9.585299   -1.930324    2.484261
    149          1           0      -10.674629   -3.176183    0.787972
    150          1           0      -11.105056   -1.389746    0.501658
    151          1           0       -9.917147   -2.151350   -0.461842
    152          7           0       -6.979897   -2.314116    2.191036
    153          6           0       -5.737742   -3.009474    2.445062
    154          6           0       -4.947287   -2.745309    3.716675
    155          8           0       -3.928394   -3.343779    4.035251
    156          6           0       -4.830330   -2.509433    1.322581
    157          6           0       -4.993940   -3.298644    0.031157
    158          6           0       -3.890418   -3.014347   -0.979989
    159          8           0       -2.701692   -3.278730   -0.699394
    160          8           0       -4.173828   -2.891885   -2.188948
    161          1           0       -6.985204   -1.309734    2.313458
    162          1           0       -5.927195   -4.084190    2.420728
    163          1           0       -3.812200   -2.596737    1.718675
    164          1           0       -4.852217   -1.423346    1.162780
    165          1           0       -5.963279   -2.954003   -0.315980
    166          1           0       -5.026316   -4.361352    0.267173
    167          7           0       -5.453241   -1.796862    4.507471
    168          6           0       -5.050448   -1.608165    5.896230
    169          1           0       -5.931626   -1.635655    6.536341
    170          1           0       -4.365595   -2.404086    6.188040
    171          1           0       -4.554172   -0.643503    6.003517
    172          1           0       -6.276764   -1.313290    4.183485
    173         20           0       -2.036876   -3.721478   -3.313987
    174          8           0       -1.183519   -5.767772   -4.620187
    175          1           0       -1.094897   -6.655020   -4.277057
    176          1           0       -0.618261   -5.765356   -5.404584
 ---------------------------------------------------------------------

 SCF Done:  E(RB3LYP) =  -5333.29416693     A.U. after   33 cycles

 The electronic state is 1-A.
 Alpha  occ. eigenvalues -- -145.45508 -19.22533 -19.14660 -19.14282 -19.11282
 Alpha  occ. eigenvalues --  -19.10846 -19.09777 -19.08354 -19.08006 -19.07845
 Alpha  occ. eigenvalues --  -19.06960 -19.06932 -19.06759 -19.06521 -19.06098
 Alpha  occ. eigenvalues --  -19.05617 -19.05172 -19.05125 -19.04334 -19.04233
 Alpha  occ. eigenvalues --  -19.03600 -19.02286 -18.96426 -18.95166 -15.51425
 Alpha  occ. eigenvalues --  -14.56915 -14.37901 -14.36600 -14.35650 -14.35033
 Alpha  occ. eigenvalues --  -14.34205 -14.33837 -14.33464 -14.33424 -14.33269
 Alpha  occ. eigenvalues --  -14.33003 -14.32727 -14.32522 -14.30109 -14.29354
 Alpha  occ. eigenvalues --  -12.65062 -12.64993 -12.64915 -10.34301 -10.29847
 Alpha  occ. eigenvalues --  -10.28846 -10.28840 -10.27329 -10.27322 -10.27165
 Alpha  occ. eigenvalues --  -10.26383 -10.26362 -10.25946 -10.25365 -10.25261
 Alpha  occ. eigenvalues --  -10.24988 -10.24830 -10.24674 -10.24645 -10.24537
 Alpha  occ. eigenvalues --  -10.24516 -10.24005 -10.23969 -10.23875 -10.23640
 Alpha  occ. eigenvalues --  -10.23286 -10.22884 -10.22828 -10.22618 -10.22114
 Alpha  occ. eigenvalues --  -10.22059 -10.22049 -10.21962 -10.21659 -10.21036
 Alpha  occ. eigenvalues --  -10.20420 -10.19658 -10.19138 -10.18699 -10.18305
 Alpha  occ. eigenvalues --  -10.18230 -10.18210 -10.18138 -10.17919 -10.17761
 Alpha  occ. eigenvalues --  -10.17670 -10.17316 -10.16546 -10.15798 -10.15707
 Alpha  occ. eigenvalues --  -10.15438 -10.15323 -10.15091 -10.14817 -10.13351
 Alpha  occ. eigenvalues --  -10.11761 -10.11469  -1.88043  -1.15795  -1.15172
 Alpha  occ. eigenvalues --   -1.14798  -1.12798  -1.08152  -1.04526  -1.03697
 Alpha  occ. eigenvalues --   -1.03501  -1.02700  -1.02346  -1.02080  -1.01590
 Alpha  occ. eigenvalues --   -1.01419  -1.00482  -1.00409  -1.00383  -1.00307
 Alpha  occ. eigenvalues --   -0.99711  -0.99144  -0.98925  -0.97850  -0.97546
 Alpha  occ. eigenvalues --   -0.97300  -0.94969  -0.93464  -0.92850  -0.91219
 Alpha  occ. eigenvalues --   -0.90909  -0.90744  -0.90682  -0.90657  -0.90007
 Alpha  occ. eigenvalues --   -0.89851  -0.89368  -0.89072  -0.88938  -0.88240
 Alpha  occ. eigenvalues --   -0.87417  -0.87224  -0.86463  -0.86095  -0.83937
 Alpha  occ. eigenvalues --   -0.81720  -0.81168  -0.80022  -0.78639  -0.78337
 Alpha  occ. eigenvalues --   -0.77134  -0.77054  -0.76682  -0.75634  -0.75401
 Alpha  occ. eigenvalues --   -0.74814  -0.73719  -0.73253  -0.72821  -0.72292
 Alpha  occ. eigenvalues --   -0.72245  -0.71581  -0.70897  -0.70070  -0.69172
 Alpha  occ. eigenvalues --   -0.68963  -0.68871  -0.68086  -0.67899  -0.67571
 Alpha  occ. eigenvalues --   -0.67284  -0.66427  -0.64597  -0.64231  -0.63784
 Alpha  occ. eigenvalues --   -0.63047  -0.62389  -0.61269  -0.60948  -0.60869
 Alpha  occ. eigenvalues --   -0.60741  -0.60219  -0.60071  -0.59060  -0.58767
 Alpha  occ. eigenvalues --   -0.58453  -0.58240  -0.58171  -0.57856  -0.57716
 Alpha  occ. eigenvalues --   -0.57596  -0.57449  -0.56592  -0.56491  -0.55931
 Alpha  occ. eigenvalues --   -0.55632  -0.54479  -0.54263  -0.54090  -0.53543
 Alpha  occ. eigenvalues --   -0.53510  -0.53329  -0.53085  -0.52614  -0.52415
 Alpha  occ. eigenvalues --   -0.52216  -0.51903  -0.51882  -0.51321  -0.50938
 Alpha  occ. eigenvalues --   -0.50435  -0.50205  -0.49974  -0.49709  -0.49465
 Alpha  occ. eigenvalues --   -0.49197  -0.49093  -0.48820  -0.48648  -0.48181
 Alpha  occ. eigenvalues --   -0.47905  -0.47749  -0.47453  -0.46822  -0.46488
 Alpha  occ. eigenvalues --   -0.46256  -0.46112  -0.45868  -0.45839  -0.45809
 Alpha  occ. eigenvalues --   -0.45502  -0.45151  -0.44553  -0.44360  -0.44022
 Alpha  occ. eigenvalues --   -0.43953  -0.43761  -0.43485  -0.43405  -0.43392
 Alpha  occ. eigenvalues --   -0.43111  -0.42964  -0.42883  -0.42854  -0.42800
 Alpha  occ. eigenvalues --   -0.42491  -0.42364  -0.42231  -0.42145  -0.41962
 Alpha  occ. eigenvalues --   -0.41789  -0.41697  -0.41509  -0.41470  -0.41122
 Alpha  occ. eigenvalues --   -0.41012  -0.40742  -0.40710  -0.40633  -0.40396
 Alpha  occ. eigenvalues --   -0.40372  -0.40252  -0.40229  -0.39831  -0.39701
 Alpha  occ. eigenvalues --   -0.39638  -0.39526  -0.39319  -0.39245  -0.39057
 Alpha  occ. eigenvalues --   -0.39015  -0.38773  -0.38655  -0.38592  -0.38409
 Alpha  occ. eigenvalues --   -0.38233  -0.38152  -0.38029  -0.37900  -0.37878
 Alpha  occ. eigenvalues --   -0.37586  -0.37491  -0.37301  -0.37166  -0.36963
 Alpha  occ. eigenvalues --   -0.36869  -0.36850  -0.36631  -0.36281  -0.36262
 Alpha  occ. eigenvalues --   -0.36163  -0.36078  -0.35891  -0.35634  -0.35507
 Alpha  occ. eigenvalues --   -0.35309  -0.35211  -0.34736  -0.34623  -0.34305
 Alpha  occ. eigenvalues --   -0.34138  -0.33980  -0.33691  -0.33549  -0.33417
 Alpha  occ. eigenvalues --   -0.33352  -0.33255  -0.33110  -0.32892  -0.32581
 Alpha  occ. eigenvalues --   -0.32525  -0.32481  -0.32004  -0.31424  -0.31401
 Alpha  occ. eigenvalues --   -0.31298  -0.31067  -0.30191  -0.29259  -0.28888
 Alpha  occ. eigenvalues --   -0.28676  -0.28438  -0.28269  -0.27728  -0.27405
 Alpha  occ. eigenvalues --   -0.26799  -0.26672  -0.26127  -0.26122  -0.25993
 Alpha  occ. eigenvalues --   -0.25910  -0.25252  -0.25211  -0.25185  -0.24820
 Alpha  occ. eigenvalues --   -0.24783  -0.24720  -0.24665  -0.24378  -0.24146
 Alpha  occ. eigenvalues --   -0.23860  -0.23689  -0.23112  -0.23033  -0.22660
 Alpha  occ. eigenvalues --   -0.22397  -0.22353  -0.22078  -0.21872  -0.21661
 Alpha  occ. eigenvalues --   -0.21241  -0.21216  -0.21005  -0.20856  -0.20516
 Alpha  occ. eigenvalues --   -0.19996  -0.19935  -0.19700  -0.19296  -0.18021
 Alpha  occ. eigenvalues --   -0.14110  -0.13199  -0.10338
 Alpha virt. eigenvalues --   -0.09179  -0.07838  -0.03601  -0.03476  -0.01247
 Alpha virt. eigenvalues --   -0.01092  -0.00701  -0.00598   0.00348   0.01024
 Alpha virt. eigenvalues --    0.01038   0.01246   0.01769   0.02167   0.02223

 Mulliken charges:
               1
     1  C    0.068991
     2  C   -0.015990
     3  O   -0.302974
     4  H    0.003487
     5  H    0.032712
     6  H    0.011741
     7  N   -0.118565
     8  C    0.156767
     9  C    0.092698
    10  O   -0.286997
    11  C   -0.000774
    12  C    0.023416
    13  O   -0.384993
    14  O   -0.341919
    15  H    0.097890
    16  H    0.012139
    17  H   -0.004319
    18  H    0.014618
    19  N   -0.094024
    20  C    0.136324
    21  C    0.055187
    22  O   -0.254665
    23  C   -0.004328
    24  C    0.031427
    25  C   -0.006065
    26  C    0.017695
    27  N    0.115633
    28  H    0.116997
    29  H   -0.003884
    30  H    0.034460
    31  H   -0.020777
    32  H   -0.047383
    33  H    0.026201
    34  H    0.018407
    35  H    0.054052
    36  H    0.054949
    37  H    0.091233
    38  H    0.189686
    39  H    0.152462
    40  H    0.163235
    41  N   -0.163539
    42  C    0.140175
    43  C    0.101882
    44  O   -0.312605
    45  C    0.075662
    46  C    0.101156
    47  O   -0.473518
    48  O   -0.363867
    49  H    0.108067
    50  H    0.023730
    51  H   -0.037957
    52  H   -0.033363
    53  N   -0.137728
    54  C    0.136979
    55  C    0.014825
    56  O   -0.242430
    57  H    0.152557
    58  H    0.064622
    59  H    0.028807
    60  N   -0.113819
    61  C    0.017962
    62  C    0.063585
    63  O   -0.265967
    64  C    0.163157
    65  C   -0.014660
    66  N   -0.035767
    67  O   -0.262555
    68  H    0.115696
    69  H    0.062949
    70  H   -0.020501
    71  H    0.027251
    72  H    0.107045
    73  H    0.113884
    74  N   -0.128461
    75  C    0.153615
    76  C    0.030182
    77  O   -0.269313
    78  H    0.135919
    79  H    0.047602
    80  H    0.071491
    81  N   -0.110387
    82  C    0.122340
    83  C    0.104200
    84  O   -0.271913
    85  C    0.068785
    86  C    0.008941
    87  C   -0.005940
    88  C   -0.009648
    89  C   -0.024787
    90  C   -0.027262
    91  C    0.162838
    92  O   -0.200444
    93  H    0.117327
    94  H    0.002996
    95  H    0.006312
    96  H    0.004690
    97  H   -0.014506
    98  H   -0.028113
    99  H   -0.015203
   100  H   -0.037453
   101  H    0.166278
   102  N   -0.148078
   103  C    0.167040
   104  C    0.078627
   105  O   -0.270875
   106  C   -0.130126
   107  C    0.045412
   108  C    0.031089
   109  C    0.016364
   110  H    0.119305
   111  H    0.027655
   112  H    0.011803
   113  H    0.006923
   114  H   -0.016574
   115  H    0.040847
   116  H    0.013000
   117  H   -0.037362
   118  H   -0.004701
   119  H    0.016058
   120  H    0.004040
   121  N   -0.099871
   122  C    0.089902
   123  C    0.090843
   124  O   -0.289134
   125  C    0.233076
   126  O   -0.263676
   127  H    0.101948
   128  H   -0.012732
   129  H   -0.015339
   130  H   -0.016192
   131  H    0.162242
   132  N   -0.122301
   133  C    0.045809
   134  C    0.096759
   135  O   -0.236165
   136  C    0.062388
   137  H    0.132238
   138  H    0.007281
   139  H    0.010612
   140  H    0.020480
   141  H    0.027409
   142  N   -0.152121
   143  C    0.006004
   144  C    0.111570
   145  O   -0.264737
   146  C    0.082572
   147  H    0.117420
   148  H    0.011037
   149  H    0.033380
   150  H   -0.004449
   151  H    0.031760
   152  N   -0.154641
   153  C    0.091918
   154  C    0.067746
   155  O   -0.262962
   156  C   -0.051484
   157  C    0.143844
   158  C    0.113964
   159  O   -0.394130
   160  O   -0.461487
   161  H    0.121470
   162  H    0.031575
   163  H    0.034329
   164  H   -0.003844
   165  H    0.009729
   166  H    0.009691
   167  N   -0.156831
   168  C    0.125828
   169  H    0.011372
   170  H    0.045714
   171  H    0.027396
   172  H    0.087632
   173  Ca   1.423724
   174  O   -0.326507
   175  H    0.204123
   176  H    0.206826
 Sum of Mulliken charges =  -0.00000

 Dipole moment (field-independent basis, Debye):
    X=            -19.5518    Y=            -18.0000    Z=             12.2299  Tot=             29.2548
 Quadrupole moment (field-independent basis, Debye-Ang):
   XX=           -637.9616   YY=           -346.9348   ZZ=           -411.4163
   XY=           -134.2629   XZ=             93.2729   YZ=            -73.7621

 ESP charges:
               1
     1  C   -0.460860
     2  C    0.732305
     3  O   -0.620806
     4  H    0.107213
     5  H    0.133815
     6  H    0.107350
     7  N   -0.669952
     8  C    0.439998
     9  C    0.397031
    10  O   -0.502857
    11  C   -0.195106
    12  C    0.691409
    13  O   -0.700991
    14  O   -0.650301
    15  H    0.299870
    16  H   -0.005840
    17  H    0.018879
    18  H    0.029823
    19  N   -0.396619
    20  C   -0.045796
    21  C    0.564645
    22  O   -0.511522
    23  C   -0.052433
    24  C    0.067253
    25  C   -0.124902
    26  C    0.082768
    27  N   -0.416338
    28  H    0.272238
    29  H    0.112125
    30  H    0.079709
    31  H    0.011662
    32  H   -0.040474
    33  H    0.027961
    34  H    0.046455
    35  H    0.081236
    36  H    0.059005
    37  H    0.088515
    38  H    0.344027
    39  H    0.314767
    40  H    0.324111
    41  N   -0.623020
    42  C    0.485548
    43  C    0.302221
    44  O   -0.541387
    45  C   -0.452135
    46  C    0.764094
    47  O   -0.788358
    48  O   -0.655561
    49  H    0.268074
    50  H    0.039070
    51  H    0.074091
    52  H    0.071371
    53  N   -0.407751
    54  C    0.451064
    55  C    0.408684
    56  O   -0.501611
    57  H    0.281880
    58  H   -0.075637
    59  H   -0.022138
    60  N   -0.457494
    61  C    0.139563
    62  C    0.579911
    63  O   -0.562908
    64  C   -0.282894
    65  C    0.679224
    66  N   -0.809898
    67  O   -0.566652
    68  H    0.287647
    69  H    0.127601
    70  H    0.061814
    71  H    0.121254
    72  H    0.345886
    73  H    0.382093
    74  N   -0.586078
    75  C   -0.041987
    76  C    0.681451
    77  O   -0.540666
    78  H    0.343145
    79  H    0.096591
    80  H    0.104449
    81  N   -0.622880
    82  C    0.124377
    83  C    0.696481
    84  O   -0.568535
    85  C   -0.429793
    86  C    0.108998
    87  C   -0.109068
    88  C   -0.077359
    89  C   -0.304449
    90  C   -0.403780
    91  C    0.438751
    92  O   -0.569670
    93  H    0.337746
    94  H    0.109716
    95  H    0.120074
    96  H    0.143455
    97  H    0.130733
    98  H    0.129466
    99  H    0.182024
   100  H    0.169765
   101  H    0.408382
   102  N   -0.530346
   103  C   -0.360032
   104  C    0.809019
   105  O   -0.564016
   106  C    0.570852
   107  C   -0.339316
   108  C   -0.518855
   109  C    0.168102
   110  H    0.255600
   111  H    0.115339
   112  H   -0.095891
   113  H    0.089293
   114  H    0.068151
   115  H    0.070086
   116  H    0.122081
   117  H    0.115153
   118  H   -0.032728
   119  H    0.005432
   120  H   -0.035776
   121  N   -0.528877
   122  C    0.056777
   123  C    0.614927
   124  O   -0.554134
   125  C    0.223403
   126  O   -0.574832
   127  H    0.310277
   128  H    0.045140
   129  H    0.020074
   130  H   -0.017130
   131  H    0.397294
   132  N   -0.790101
   133  C    0.674685
   134  C    0.384777
   135  O   -0.465880
   136  C   -0.408708
   137  H    0.340669
   138  H   -0.048112
   139  H    0.068900
   140  H    0.107785
   141  H    0.109832
   142  N   -0.552413
   143  C    0.356750
   144  C    0.502692
   145  O   -0.512410
   146  C   -0.405626
   147  H    0.277668
   148  H    0.011579
   149  H    0.096039
   150  H    0.104492
   151  H    0.125622
   152  N   -0.494327
   153  C   -0.174720
   154  C    0.483621
   155  O   -0.518591
   156  C    0.043688
   157  C   -0.231325
   158  C    0.797661
   159  O   -0.736532
   160  O   -0.831065
   161  H    0.201517
   162  H    0.193128
   163  H    0.030291
   164  H    0.132469
   165  H    0.087263
   166  H    0.077910
   167  N   -0.265628
   168  C   -0.097415
   169  H    0.051238
   170  H    0.100438
   171  H    0.060233
   172  H    0.251893
   173  Ca   1.689829
   174  O   -0.861364
   175  H    0.448169
   176  H    0.443949
 Sum of ESP charges =  -0.00000

 Normal termination of Gaussian 16 at Wed Sep 18 14:31:19 2019.
