 Gaussian 16, Revision A.03,
 Gaussian 16:  ES64L-G16RevA.03 25-Dec-2016

 ----------------------------------------------------------------------
 #b3lyp/svp scf=(tight,noincore) Test #IOP(5/87=12) Density=Current Pop
 =(MK,readradii) iop(6/33=2) iop(6/42=6)
 ----------------------------------------------------------------------

 ---------------
 Ng-31_loop3_1.0
 ---------------
 Symbolic Z-matrix:
 Charge =  0 Multiplicity = 1

                         Standard orientation:
 ---------------------------------------------------------------------
 Center     Atomic      Atomic             Coordinates (Angstroms)
 Number     Number       Type             X           Y           Z
 ---------------------------------------------------------------------
      1          6           0       -6.506951   -3.587597   -4.522193
      2          6           0       -6.753868   -2.555134   -3.435247
      3          8           0       -6.398544   -1.399826   -3.615825
      4          1           0       -6.043433   -3.104536   -5.382524
      5          1           0       -5.843722   -4.364835   -4.141684
      6          1           0       -7.455563   -4.033436   -4.822701
      7          7           0       -7.233548   -2.864688   -2.229518
      8          6           0       -7.364225   -2.063800   -1.019848
      9          6           0       -6.175491   -2.203412   -0.065741
     10          8           0       -5.297144   -3.033214   -0.268309
     11          6           0       -8.657493   -2.360795   -0.271413
     12          6           0       -8.825593   -3.753779    0.310858
     13          8           0       -9.117670   -4.761805   -0.376727
     14          8           0       -8.662260   -3.870547    1.544304
     15          1           0       -7.524552   -3.824014   -2.194728
     16          1           0       -7.349394   -0.988213   -1.210880
     17          1           0       -9.536377   -2.255732   -0.914394
     18          1           0       -8.780221   -1.598661    0.496629
     19          7           0       -6.135939   -1.360921    0.964233
     20          6           0       -5.217689   -1.397359    2.078319
     21          6           0       -3.863046   -0.831949    1.664977
     22          8           0       -2.927798   -0.651950    2.430687
     23          6           0       -5.900416   -0.705162    3.252946
     24          6           0       -7.246740   -1.311030    3.646439
     25          6           0       -7.768899   -0.743459    4.961017
     26          6           0       -9.262775   -1.037761    5.106004
     27          7           0       -9.947149   -0.110965    6.018408
     28          1           0       -6.939707   -0.752423    1.094952
     29          1           0       -4.960655   -2.423244    2.352533
     30          1           0       -6.031847    0.348441    3.000072
     31          1           0       -5.182073   -0.688503    4.064183
     32          1           0       -7.256596   -2.399199    3.618344
     33          1           0       -8.021668   -1.081266    2.913776
     34          1           0       -7.624454    0.336695    4.971179
     35          1           0       -7.310818   -1.185503    5.847448
     36          1           0       -9.317554   -2.046750    5.497208
     37          1           0       -9.764258   -1.084837    4.140344
     38          1           0      -10.794720   -0.532442    6.381149
     39          1           0       -9.313395    0.108806    6.773163
     40          1           0      -10.202569    0.733551    5.525100
     41          7           0       -3.786468   -0.443879    0.382153
     42          6           0       -2.585491   -0.191258   -0.369936
     43          6           0       -1.776022    1.033323    0.027633
     44          8           0       -0.628665    1.209463   -0.384492
     45          6           0       -2.949410   -0.123865   -1.848794
     46          6           0       -3.984023    0.913329   -2.270461
     47          8           0       -3.746154    1.473002   -3.361875
     48          8           0       -5.060358    0.975172   -1.643581
     49          1           0       -4.664347   -0.382058   -0.116852
     50          1           0       -1.966320   -1.085167   -0.308653
     51          1           0       -3.431330   -1.066409   -2.094485
     52          1           0       -2.010644   -0.101195   -2.408352
     53          7           0       -2.275841    1.952281    0.862077
     54          6           0       -1.630621    3.228090    1.091425
     55          6           0       -1.794804    4.165450   -0.096977
     56          8           0       -2.784673    4.051124   -0.827996
     57          1           0       -3.122698    1.728703    1.375932
     58          1           0       -0.558218    3.131523    1.259139
     59          1           0       -1.916962    3.702020    2.020618
     60          7           0       -1.087011    5.287087   -0.232479
     61          6           0       -0.040409    5.932920    0.547343
     62          6           0        1.071975    6.411223   -0.379441
     63          8           0        0.779851    7.156258   -1.310078
     64          6           0       -0.642798    7.127620    1.280568
     65          6           0        0.347209    8.021037    2.015681
     66          7           0        0.727360    7.580604    3.208746
     67          8           0        0.880700    8.981954    1.474732
     68          1           0       -1.345168    5.872693   -1.015371
     69          1           0        0.213740    5.270973    1.373318
     70          1           0       -1.478651    6.880153    1.943448
     71          1           0       -1.078190    7.723269    0.473452
     72          1           0        0.474728    6.731985    3.693949
     73          1           0        1.461089    8.143726    3.617936
     74          7           0        2.338899    6.081508   -0.158783
     75          6           0        2.905521    5.209566    0.853371
     76          6           0        3.033156    3.747700    0.440507
     77          8           0        2.071211    3.189099   -0.088669
     78          1           0        2.965579    6.558875   -0.793522
     79          1           0        2.288282    5.231511    1.754001
     80          1           0        3.871752    5.654272    1.097574
     81          7           0        4.242073    3.218284    0.610620
     82          6           0        4.635580    1.912852    0.121336
     83          6           0        5.504409    1.248782    1.184090
     84          8           0        6.711457    1.485451    1.293285
     85          6           0        5.188855    2.141513   -1.276592
     86          6           0        4.365050    3.013263   -2.194633
     87          6           0        3.436386    2.441490   -3.075972
     88          6           0        4.470244    4.409401   -2.129577
     89          6           0        2.634239    3.264842   -3.871177
     90          6           0        3.681433    5.274559   -2.893566
     91          6           0        2.733776    4.670583   -3.752494
     92          8           0        1.848334    5.412664   -4.467343
     93          1           0        4.894861    3.813253    1.117454
     94          1           0        3.700990    1.391098   -0.068438
     95          1           0        5.382202    1.176000   -1.741566
     96          1           0        6.126766    2.687462   -1.245575
     97          1           0        3.399872    1.367458   -3.204513
     98          1           0        5.185657    4.894136   -1.482648
     99          1           0        1.922487    2.756337   -4.513463
    100          1           0        3.837868    6.339069   -2.886796
    101          1           0        1.967771    6.371268   -4.456701
    102          7           0        4.893991    0.345726    1.952712
    103          6           0        5.482680   -0.183578    3.172500
    104          6           0        6.188699   -1.504668    2.916650
    105          8           0        6.660753   -2.095682    3.890902
    106          6           0        4.400397   -0.069393    4.244380
    107          6           0        3.917934    1.363353    4.421770
    108          6           0        3.227859   -0.993454    3.948633
    109          6           0        4.983893    2.338160    4.932146
    110          1           0        3.918814    0.131091    1.795036
    111          1           0        6.317355    0.434989    3.505956
    112          1           0        4.902474   -0.406849    5.157749
    113          1           0        3.108795    1.443000    5.144509
    114          1           0        3.439524    1.764329    3.534954
    115          1           0        2.713517   -1.244309    4.879130
    116          1           0        2.444978   -0.575700    3.323191
    117          1           0        3.624438   -1.888959    3.466455
    118          1           0        5.599550    2.742247    4.124755
    119          1           0        4.474366    3.195025    5.370168
    120          1           0        5.617538    1.924593    5.718248
    121          7           0        6.091214   -2.058693    1.707703
    122          6           0        6.763596   -3.316903    1.455693
    123          6           0        5.886900   -4.519862    1.781874
    124          8           0        6.431398   -5.629145    1.747042
    125          6           0        7.376788   -3.361378    0.055187
    126          8           0        6.482225   -3.164252   -1.008719
    127          1           0        5.800737   -1.498510    0.927820
    128          1           0        7.594515   -3.408557    2.162074
    129          1           0        7.855672   -4.332514   -0.082164
    130          1           0        8.208445   -2.662250    0.006543
    131          1           0        5.694438   -2.691717   -0.725165
    132          7           0        4.628339   -4.284996    2.145967
    133          6           0        3.624720   -5.327878    2.228701
    134          6           0        2.817039   -5.412761    0.944744
    135          8           0        1.658070   -5.030081    0.802445
    136          6           0        2.792658   -5.166502    3.495677
    137          1           0        4.281023   -3.340225    2.044582
    138          1           0        4.118948   -6.293947    2.299049
    139          1           0        1.787811   -5.584911    3.524270
    140          1           0        3.338031   -5.549265    4.358325
    141          1           0        2.785538   -4.098690    3.734480
    142          7           0        3.516145   -5.848724   -0.115533
    143          6           0        2.974599   -6.213812   -1.407020
    144          6           0        2.258432   -5.193710   -2.275004
    145          8           0        1.659610   -5.562343   -3.280997
    146          6           0        2.076242   -7.417539   -1.153847
    147          1           0        4.500926   -5.957768    0.035848
    148          1           0        3.800022   -6.572814   -2.022076
    149          1           0        2.614191   -8.188278   -0.591733
    150          1           0        1.156845   -7.162142   -0.628985
    151          1           0        2.004770   -7.943002   -2.107829
    152          7           0        2.370294   -3.900743   -1.946488
    153          6           0        1.862331   -2.922127   -2.889506
    154          6           0        2.612853   -2.616797   -4.179658
    155          8           0        1.979766   -2.683190   -5.226603
    156          6           0        1.458178   -1.692258   -2.089454
    157          6           0        2.616731   -0.816468   -1.620576
    158          6           0        3.308369   -1.326485   -0.361681
    159          8           0        4.471295   -1.776255   -0.544471
    160          8           0        2.726152   -1.165379    0.728442
    161          1           0        2.708900   -3.648401   -1.029171
    162          1           0        0.932408   -3.312492   -3.314896
    163          1           0        1.015103   -2.090282   -1.171706
    164          1           0        0.700658   -1.103170   -2.589991
    165          1           0        2.277786    0.181530   -1.348335
    166          1           0        3.345597   -0.760635   -2.426391
    167          7           0        3.935487   -2.468932   -4.077800
    168          6           0        4.767303   -2.195410   -5.228742
    169          1           0        4.289413   -1.438499   -5.850854
    170          1           0        5.739058   -1.830721   -4.896716
    171          1           0        4.900116   -3.109676   -5.807924
    172          1           0        4.369297   -2.638548   -3.177444
    173         20           0       -6.139616    3.080565   -3.080790
    174          8           0       -6.257839    4.002891   -0.677597
    175          1           0       -5.613117    4.103347    0.017631
    176          1           0       -6.981981    4.568355   -0.420752
 ---------------------------------------------------------------------

 SCF Done:  E(RB3LYP) =  -5333.28281679     A.U. after   62 cycles

 The electronic state is 1-A.
 Alpha  occ. eigenvalues -- -145.52379 -19.25522 -19.13288 -19.10645 -19.10259
 Alpha  occ. eigenvalues --  -19.09990 -19.09862 -19.09182 -19.09065 -19.08899
 Alpha  occ. eigenvalues --  -19.08195 -19.06633 -19.06567 -19.06253 -19.05228
 Alpha  occ. eigenvalues --  -19.04805 -19.04556 -19.04440 -19.04346 -19.03918
 Alpha  occ. eigenvalues --  -19.03733 -19.03542 -19.02979 -19.02820 -15.58356
 Alpha  occ. eigenvalues --  -14.61445 -14.37473 -14.36692 -14.36103 -14.36072
 Alpha  occ. eigenvalues --  -14.34648 -14.34172 -14.33057 -14.33019 -14.31122
 Alpha  occ. eigenvalues --  -14.30940 -14.30451 -14.29729 -14.29726 -14.29446
 Alpha  occ. eigenvalues --  -12.71949 -12.71900 -12.71883 -10.36483 -10.30011
 Alpha  occ. eigenvalues --  -10.29840 -10.29421 -10.28929 -10.27737 -10.27537
 Alpha  occ. eigenvalues --  -10.27487 -10.27012 -10.26139 -10.25764 -10.25728
 Alpha  occ. eigenvalues --  -10.25388 -10.24954 -10.24950 -10.24151 -10.23870
 Alpha  occ. eigenvalues --  -10.23540 -10.23530 -10.23526 -10.23400 -10.23303
 Alpha  occ. eigenvalues --  -10.23060 -10.22635 -10.22373 -10.21754 -10.21607
 Alpha  occ. eigenvalues --  -10.21423 -10.21105 -10.20300 -10.18844 -10.18585
 Alpha  occ. eigenvalues --  -10.18481 -10.18350 -10.17441 -10.17302 -10.17130
 Alpha  occ. eigenvalues --  -10.17127 -10.16869 -10.16620 -10.16576 -10.15952
 Alpha  occ. eigenvalues --  -10.15919 -10.15901 -10.15821 -10.15774 -10.15653
 Alpha  occ. eigenvalues --  -10.15501 -10.15486 -10.14002 -10.13478 -10.12875
 Alpha  occ. eigenvalues --  -10.12746 -10.11350  -1.94970  -1.22412  -1.22162
 Alpha  occ. eigenvalues --   -1.21895  -1.16536  -1.11576  -1.03975  -1.03789
 Alpha  occ. eigenvalues --   -1.03477  -1.03082  -1.02867  -1.01796  -1.01781
 Alpha  occ. eigenvalues --   -1.01027  -1.00360  -0.99905  -0.99023  -0.98567
 Alpha  occ. eigenvalues --   -0.98557  -0.97802  -0.97137  -0.96926  -0.96838
 Alpha  occ. eigenvalues --   -0.96071  -0.94240  -0.94029  -0.93123  -0.92804
 Alpha  occ. eigenvalues --   -0.92357  -0.92074  -0.91369  -0.91040  -0.90528
 Alpha  occ. eigenvalues --   -0.89551  -0.89371  -0.88761  -0.88467  -0.88141
 Alpha  occ. eigenvalues --   -0.87901  -0.87454  -0.86553  -0.86161  -0.85498
 Alpha  occ. eigenvalues --   -0.83550  -0.81887  -0.79684  -0.79396  -0.78135
 Alpha  occ. eigenvalues --   -0.77198  -0.76637  -0.76587  -0.75899  -0.75128
 Alpha  occ. eigenvalues --   -0.74291  -0.73508  -0.73221  -0.73103  -0.71930
 Alpha  occ. eigenvalues --   -0.71675  -0.71185  -0.71093  -0.70430  -0.69847
 Alpha  occ. eigenvalues --   -0.69605  -0.69346  -0.67017  -0.66729  -0.66342
 Alpha  occ. eigenvalues --   -0.65751  -0.64718  -0.64708  -0.64038  -0.63309
 Alpha  occ. eigenvalues --   -0.63031  -0.62368  -0.62263  -0.61480  -0.61126
 Alpha  occ. eigenvalues --   -0.60383  -0.59820  -0.59754  -0.59315  -0.58548
 Alpha  occ. eigenvalues --   -0.58354  -0.57661  -0.57518  -0.56797  -0.56669
 Alpha  occ. eigenvalues --   -0.56660  -0.56378  -0.56177  -0.55820  -0.55770
 Alpha  occ. eigenvalues --   -0.54605  -0.54313  -0.54122  -0.53839  -0.53792
 Alpha  occ. eigenvalues --   -0.53384  -0.52945  -0.52700  -0.52690  -0.52555
 Alpha  occ. eigenvalues --   -0.52105  -0.51937  -0.51621  -0.51598  -0.50867
 Alpha  occ. eigenvalues --   -0.50638  -0.50237  -0.50170  -0.49727  -0.49449
 Alpha  occ. eigenvalues --   -0.49009  -0.48758  -0.48623  -0.47837  -0.47643
 Alpha  occ. eigenvalues --   -0.47164  -0.46831  -0.46735  -0.46651  -0.46090
 Alpha  occ. eigenvalues --   -0.45897  -0.45719  -0.45331  -0.45262  -0.45121
 Alpha  occ. eigenvalues --   -0.44710  -0.44375  -0.44219  -0.44166  -0.43906
 Alpha  occ. eigenvalues --   -0.43593  -0.43541  -0.43454  -0.43441  -0.43128
 Alpha  occ. eigenvalues --   -0.43052  -0.42973  -0.42758  -0.42701  -0.42595
 Alpha  occ. eigenvalues --   -0.42417  -0.42085  -0.41950  -0.41855  -0.41664
 Alpha  occ. eigenvalues --   -0.41363  -0.41293  -0.41055  -0.40957  -0.40866
 Alpha  occ. eigenvalues --   -0.40736  -0.40466  -0.40246  -0.40133  -0.39961
 Alpha  occ. eigenvalues --   -0.39741  -0.39622  -0.39446  -0.39337  -0.39332
 Alpha  occ. eigenvalues --   -0.39189  -0.38848  -0.38824  -0.38559  -0.38458
 Alpha  occ. eigenvalues --   -0.38421  -0.38200  -0.38156  -0.38034  -0.37854
 Alpha  occ. eigenvalues --   -0.37637  -0.37619  -0.37508  -0.37178  -0.37117
 Alpha  occ. eigenvalues --   -0.36727  -0.36689  -0.36625  -0.36440  -0.36383
 Alpha  occ. eigenvalues --   -0.36170  -0.35917  -0.35890  -0.35864  -0.35742
 Alpha  occ. eigenvalues --   -0.35532  -0.35404  -0.35110  -0.35071  -0.34963
 Alpha  occ. eigenvalues --   -0.34863  -0.34806  -0.34541  -0.34479  -0.34011
 Alpha  occ. eigenvalues --   -0.33942  -0.33617  -0.33413  -0.33386  -0.33268
 Alpha  occ. eigenvalues --   -0.32977  -0.32930  -0.32629  -0.32145  -0.31975
 Alpha  occ. eigenvalues --   -0.31792  -0.31527  -0.31101  -0.30950  -0.30573
 Alpha  occ. eigenvalues --   -0.30262  -0.29949  -0.29804  -0.29579  -0.29028
 Alpha  occ. eigenvalues --   -0.28710  -0.28630  -0.28373  -0.28054  -0.27203
 Alpha  occ. eigenvalues --   -0.26935  -0.26915  -0.26847  -0.26364  -0.25835
 Alpha  occ. eigenvalues --   -0.25623  -0.25485  -0.25307  -0.24937  -0.24854
 Alpha  occ. eigenvalues --   -0.24667  -0.24259  -0.23858  -0.23746  -0.23596
 Alpha  occ. eigenvalues --   -0.23463  -0.23387  -0.22876  -0.22650  -0.22573
 Alpha  occ. eigenvalues --   -0.22407  -0.21912  -0.21844  -0.21365  -0.21192
 Alpha  occ. eigenvalues --   -0.21159  -0.21086  -0.20029  -0.20009  -0.19801
 Alpha  occ. eigenvalues --   -0.19666  -0.19371  -0.19002  -0.18809  -0.18628
 Alpha  occ. eigenvalues --   -0.18323  -0.18214  -0.17986
 Alpha virt. eigenvalues --   -0.17049  -0.13232  -0.07340  -0.06717  -0.05932
 Alpha virt. eigenvalues --   -0.04794  -0.02953  -0.00962  -0.00675  -0.00412
 Alpha virt. eigenvalues --   -0.00166   0.00076   0.00893   0.00921   0.01283

 Mulliken charges:
               1
     1  C    0.057934
     2  C   -0.012450
     3  O   -0.312962
     4  H    0.031296
     5  H    0.054561
     6  H    0.022760
     7  N   -0.090485
     8  C    0.141883
     9  C    0.061241
    10  O   -0.231404
    11  C    0.072269
    12  C    0.071794
    13  O   -0.310247
    14  O   -0.352364
    15  H    0.113779
    16  H   -0.018145
    17  H   -0.001560
    18  H   -0.075717
    19  N   -0.173869
    20  C    0.164562
    21  C    0.034161
    22  O   -0.269275
    23  C    0.013025
    24  C    0.031270
    25  C   -0.025735
    26  C   -0.012689
    27  N    0.084068
    28  H    0.102634
    29  H    0.047261
    30  H   -0.029371
    31  H    0.023998
    32  H    0.059772
    33  H   -0.011169
    34  H   -0.002707
    35  H    0.044236
    36  H    0.089905
    37  H    0.084932
    38  H    0.201353
    39  H    0.195273
    40  H    0.195661
    41  N   -0.151309
    42  C    0.123623
    43  C    0.096176
    44  O   -0.247667
    45  C    0.036001
    46  C    0.142822
    47  O   -0.363341
    48  O   -0.428916
    49  H    0.143185
    50  H    0.045675
    51  H    0.053090
    52  H    0.048247
    53  N   -0.113394
    54  C    0.153108
    55  C    0.070055
    56  O   -0.338820
    57  H    0.100556
    58  H    0.045342
    59  H   -0.002205
    60  N   -0.089125
    61  C    0.067068
    62  C    0.125851
    63  O   -0.278358
    64  C    0.075832
    65  C   -0.000597
    66  N   -0.057243
    67  O   -0.237998
    68  H    0.124322
    69  H   -0.019550
    70  H   -0.010936
    71  H    0.010387
    72  H    0.119414
    73  H    0.126832
    74  N   -0.093161
    75  C    0.195066
    76  C    0.058149
    77  O   -0.250415
    78  H    0.128739
    79  H    0.007072
    80  H   -0.004676
    81  N   -0.160328
    82  C    0.129102
    83  C    0.095271
    84  O   -0.289134
    85  C    0.183412
    86  C   -0.046644
    87  C    0.021089
    88  C   -0.025234
    89  C   -0.007682
    90  C   -0.059794
    91  C    0.183555
    92  O   -0.213315
    93  H    0.119308
    94  H    0.033592
    95  H    0.008676
    96  H   -0.018223
    97  H   -0.033198
    98  H   -0.058082
    99  H   -0.019402
   100  H   -0.046709
   101  H    0.175127
   102  N   -0.169405
   103  C    0.150278
   104  C    0.044745
   105  O   -0.297263
   106  C   -0.071523
   107  C    0.043033
   108  C    0.066533
   109  C    0.015527
   110  H    0.151524
   111  H    0.014810
   112  H   -0.006770
   113  H   -0.025889
   114  H   -0.026796
   115  H   -0.013457
   116  H    0.030305
   117  H    0.017832
   118  H    0.016841
   119  H   -0.027231
   120  H    0.013566
   121  N   -0.144268
   122  C    0.078356
   123  C    0.048181
   124  O   -0.304402
   125  C    0.278406
   126  O   -0.355417
   127  H    0.148680
   128  H    0.022199
   129  H   -0.015280
   130  H   -0.031031
   131  H    0.163768
   132  N   -0.125015
   133  C    0.081581
   134  C    0.047643
   135  O   -0.269897
   136  C    0.090263
   137  H    0.159920
   138  H    0.011821
   139  H    0.018026
   140  H   -0.005475
   141  H   -0.000218
   142  N   -0.137552
   143  C    0.067760
   144  C    0.080706
   145  O   -0.272855
   146  C    0.065229
   147  H    0.123227
   148  H    0.018847
   149  H   -0.022149
   150  H    0.039319
   151  H    0.008394
   152  N   -0.131938
   153  C    0.134818
   154  C    0.044775
   155  O   -0.262114
   156  C    0.018256
   157  C    0.042002
   158  C    0.084150
   159  O   -0.431241
   160  O   -0.357251
   161  H    0.151738
   162  H    0.008014
   163  H    0.018923
   164  H    0.000066
   165  H    0.040419
   166  H   -0.008989
   167  N   -0.172348
   168  C    0.142973
   169  H    0.021609
   170  H    0.016018
   171  H    0.018479
   172  H    0.141318
   173  Ca   1.169093
   174  O   -0.313951
   175  H    0.203340
   176  H    0.176647
 Sum of Mulliken charges =  -0.00000

 Dipole moment (field-independent basis, Debye):
    X=            -54.6153    Y=             34.0477    Z=             25.6354  Tot=             69.2766
 Quadrupole moment (field-independent basis, Debye-Ang):
   XX=           -257.9784   YY=           -633.7016   ZZ=           -425.7521
   XY=           -129.1365   XZ=           -214.2149   YZ=             -0.6932

 ESP charges:
               1
     1  C   -0.405219
     2  C    0.746914
     3  O   -0.649973
     4  H    0.122587
     5  H    0.130456
     6  H    0.094286
     7  N   -0.643272
     8  C    0.323168
     9  C    0.668499
    10  O   -0.531802
    11  C   -0.541022
    12  C    0.816742
    13  O   -0.604399
    14  O   -0.669812
    15  H    0.312511
    16  H    0.031099
    17  H    0.117689
    18  H    0.082066
    19  N   -0.427270
    20  C   -0.100886
    21  C    0.588205
    22  O   -0.565544
    23  C   -0.073026
    24  C    0.020065
    25  C   -0.163752
    26  C    0.229262
    27  N   -0.433254
    28  H    0.213170
    29  H    0.132647
    30  H    0.038931
    31  H    0.053664
    32  H    0.084350
    33  H    0.037324
    34  H    0.025248
    35  H    0.072851
    36  H    0.054852
    37  H    0.026945
    38  H    0.340397
    39  H    0.331072
    40  H    0.348173
    41  N   -0.228085
    42  C   -0.117712
    43  C    0.541145
    44  O   -0.456955
    45  C   -0.423934
    46  C    0.897423
    47  O   -0.656839
    48  O   -0.669250
    49  H    0.074807
    50  H    0.172328
    51  H    0.190571
    52  H    0.140060
    53  N   -0.433813
    54  C    0.124305
    55  C    0.482688
    56  O   -0.553622
    57  H    0.244054
    58  H    0.027657
    59  H    0.035486
    60  N   -0.426503
    61  C    0.070335
    62  C    0.593286
    63  O   -0.551631
    64  C   -0.444333
    65  C    0.737787
    66  N   -0.829671
    67  O   -0.550789
    68  H    0.305703
    69  H    0.105150
    70  H    0.112788
    71  H    0.123028
    72  H    0.387601
    73  H    0.358365
    74  N   -0.345405
    75  C   -0.160848
    76  C    0.515098
    77  O   -0.429611
    78  H    0.291866
    79  H    0.050955
    80  H    0.088445
    81  N   -0.419166
    82  C    0.102353
    83  C    0.558180
    84  O   -0.556753
    85  C   -0.118188
    86  C   -0.034266
    87  C   -0.069381
    88  C   -0.065718
    89  C   -0.282685
    90  C   -0.399837
    91  C    0.432015
    92  O   -0.577382
    93  H    0.276897
    94  H    0.026781
    95  H    0.078491
    96  H    0.038926
    97  H    0.113665
    98  H    0.114342
    99  H    0.175203
   100  H    0.147642
   101  H    0.417926
   102  N   -0.537162
   103  C   -0.108879
   104  C    0.506521
   105  O   -0.558282
   106  C   -0.015903
   107  C    0.214341
   108  C   -0.330436
   109  C   -0.327623
   110  H    0.366853
   111  H    0.131504
   112  H    0.059160
   113  H   -0.016721
   114  H   -0.043037
   115  H    0.066563
   116  H    0.106200
   117  H    0.155141
   118  H    0.076669
   119  H    0.055050
   120  H    0.080849
   121  N   -0.149946
   122  C   -0.465083
   123  C    0.704129
   124  O   -0.582594
   125  C    0.315013
   126  O   -0.580644
   127  H    0.296901
   128  H    0.177813
   129  H    0.014422
   130  H   -0.005989
   131  H    0.295983
   132  N   -0.444748
   133  C    0.171963
   134  C    0.633691
   135  O   -0.522421
   136  C   -0.319618
   137  H    0.279636
   138  H    0.040239
   139  H    0.085725
   140  H    0.092529
   141  H    0.058898
   142  N   -0.840525
   143  C    0.446501
   144  C    0.356493
   145  O   -0.505706
   146  C   -0.226970
   147  H    0.367518
   148  H    0.021043
   149  H    0.056150
   150  H    0.089250
   151  H    0.027514
   152  N   -0.464172
   153  C    0.307271
   154  C    0.355055
   155  O   -0.515447
   156  C   -0.378659
   157  C    0.124046
   158  C    0.497453
   159  O   -0.587244
   160  O   -0.631547
   161  H    0.345113
   162  H    0.045882
   163  H    0.108737
   164  H    0.090544
   165  H    0.034008
   166  H   -0.038246
   167  N   -0.056869
   168  C   -0.232034
   169  H    0.087499
   170  H    0.099110
   171  H    0.091266
   172  H    0.125196
   173  Ca   1.192313
   174  O   -0.740527
   175  H    0.403497
   176  H    0.384867
 Sum of ESP charges =  -0.00000

 Normal termination of Gaussian 16 at Wed Sep 18 14:44:02 2019.
