 Gaussian 16, Revision A.03,
 Gaussian 16:  ES64L-G16RevA.03 25-Dec-2016

 ----------------------------------------------------------------------
 #b3lyp/svp scf=(tight,noincore) Test #IOP(5/87=12) Density=Current Pop
 =(MK,readradii) iop(6/33=2) iop(6/42=6)
 ----------------------------------------------------------------------

 ----------------
 Ng-31_loop3_12.0
 ----------------
 Symbolic Z-matrix:
 Charge =  0 Multiplicity = 1

                         Standard orientation:
 ---------------------------------------------------------------------
 Center     Atomic      Atomic             Coordinates (Angstroms)
 Number     Number       Type             X           Y           Z
 ---------------------------------------------------------------------
      1          6           0       -2.405469    4.514680    5.459294
      2          6           0       -2.580150    3.605389    4.239222
      3          8           0       -2.121206    2.468825    4.214878
      4          1           0       -1.391360    4.913993    5.472582
      5          1           0       -3.118241    5.337800    5.404619
      6          1           0       -2.581222    3.940301    6.369484
      7          7           0       -3.405421    4.008465    3.270792
      8          6           0       -3.800086    3.170733    2.157893
      9          6           0       -2.836005    3.558930    1.046655
     10          8           0       -2.151905    2.675716    0.528734
     11          6           0       -5.280617    3.263861    1.795324
     12          6           0       -5.953683    4.624940    1.698654
     13          8           0       -5.205520    5.617436    1.580745
     14          8           0       -7.196079    4.745820    1.765295
     15          1           0       -3.667173    4.978697    3.161536
     16          1           0       -3.557395    2.145462    2.431792
     17          1           0       -5.905957    2.649720    2.440832
     18          1           0       -5.430767    2.776091    0.824687
     19          7           0       -2.738205    4.845195    0.712353
     20          6           0       -1.781170    5.388945   -0.231691
     21          6           0       -2.159071    4.880829   -1.625430
     22          8           0       -3.195263    5.271146   -2.154259
     23          6           0       -1.780747    6.915869   -0.217423
     24          6           0       -1.142026    7.408381    1.079214
     25          6           0       -0.933914    8.923235    1.033318
     26          6           0       -0.326038    9.490423    2.308224
     27          7           0       -1.301577    9.550186    3.419687
     28          1           0       -3.375240    5.484988    1.150704
     29          1           0       -0.766247    5.006777   -0.118653
     30          1           0       -2.800108    7.299202   -0.209718
     31          1           0       -1.365320    7.436349   -1.080105
     32          1           0       -0.145356    6.954805    1.097027
     33          1           0       -1.696668    7.109798    1.958657
     34          1           0       -1.840140    9.461859    0.742217
     35          1           0       -0.270100    9.011636    0.173995
     36          1           0       -0.024302   10.494803    2.018093
     37          1           0        0.543988    8.882581    2.564707
     38          1           0       -1.698680    8.630505    3.556420
     39          1           0       -0.837483    9.896494    4.240898
     40          1           0       -1.983971   10.227140    3.120568
     41          7           0       -1.311742    4.013417   -2.178088
     42          6           0       -1.396268    3.374796   -3.470341
     43          6           0       -2.320277    2.168904   -3.449593
     44          8           0       -2.925620    1.804339   -4.450570
     45          6           0        0.011566    3.101659   -3.977491
     46          6           0        1.065624    4.197874   -3.906268
     47          8           0        0.871537    5.304000   -4.459093
     48          8           0        2.160491    3.775629   -3.487611
     49          1           0       -0.612694    3.609524   -1.567103
     50          1           0       -1.741914    4.112818   -4.203247
     51          1           0       -0.098027    2.963221   -5.047736
     52          1           0        0.299125    2.146646   -3.521245
     53          7           0       -2.525500    1.632194   -2.236982
     54          6           0       -3.478231    0.620040   -1.845640
     55          6           0       -4.880103    0.942500   -2.341701
     56          8           0       -5.149400    2.091245   -2.687337
     57          1           0       -1.799290    1.763380   -1.551483
     58          1           0       -3.440848    0.485619   -0.763821
     59          1           0       -3.204577   -0.338891   -2.294265
     60          7           0       -5.805705   -0.015145   -2.422792
     61          6           0       -5.647834   -1.411842   -2.094593
     62          6           0       -6.852388   -2.065809   -1.431060
     63          8           0       -7.852142   -2.426817   -2.044057
     64          6           0       -5.204783   -2.218720   -3.310345
     65          6           0       -4.797687   -3.659025   -3.025572
     66          7           0       -3.899417   -4.207564   -3.838662
     67          8           0       -5.170080   -4.361497   -2.080873
     68          1           0       -6.732215    0.287649   -2.671781
     69          1           0       -4.812152   -1.516270   -1.407767
     70          1           0       -4.415921   -1.698669   -3.857834
     71          1           0       -5.998426   -2.160063   -4.062269
     72          1           0       -3.615055   -3.671267   -4.645026
     73          1           0       -3.689992   -5.176061   -3.626164
     74          7           0       -6.759973   -2.378415   -0.128509
     75          6           0       -5.861419   -1.680825    0.772362
     76          6           0       -4.611116   -2.493713    1.072957
     77          8           0       -3.893859   -2.078917    1.986459
     78          1           0       -7.499637   -2.952933    0.254016
     79          1           0       -6.371161   -1.518879    1.721065
     80          1           0       -5.643264   -0.698164    0.355967
     81          7           0       -4.247637   -3.561383    0.357860
     82          6           0       -2.958604   -4.178161    0.633140
     83          6           0       -1.783477   -3.341990    0.158910
     84          8           0       -1.871025   -2.649906   -0.858909
     85          6           0       -2.898319   -5.587162    0.045192
     86          6           0       -3.646995   -6.597449    0.889587
     87          6           0       -2.814186   -7.315932    1.752843
     88          6           0       -5.037918   -6.717444    0.960549
     89          6           0       -3.363229   -8.192136    2.701009
     90          6           0       -5.592408   -7.639749    1.859267
     91          6           0       -4.766554   -8.338338    2.759345
     92          8           0       -5.260855   -9.259538    3.636246
     93          1           0       -4.791372   -3.817314   -0.453899
     94          1           0       -2.970424   -4.357144    1.705299
     95          1           0       -1.842856   -5.864647    0.027853
     96          1           0       -3.388895   -5.517518   -0.924285
     97          1           0       -1.736014   -7.278526    1.740755
     98          1           0       -5.708217   -6.125747    0.351293
     99          1           0       -2.765420   -8.786611    3.371400
    100          1           0       -6.655964   -7.705409    1.979004
    101          1           0       -6.207551   -9.229202    3.473621
    102          7           0       -0.729715   -3.352053    0.966304
    103          6           0        0.447121   -2.556110    0.668932
    104          6           0        1.363429   -3.242497   -0.335136
    105          8           0        1.569711   -4.447213   -0.207436
    106          6           0        1.168320   -1.991352    1.885082
    107          6           0        0.298207   -1.081820    2.752869
    108          6           0        1.854809   -3.104199    2.673056
    109          6           0        1.088989   -0.311168    3.813887
    110          1           0       -0.685213   -4.022335    1.719790
    111          1           0        0.030407   -1.652174    0.215887
    112          1           0        2.000440   -1.359579    1.554266
    113          1           0       -0.560115   -1.553152    3.212030
    114          1           0       -0.214801   -0.322702    2.164342
    115          1           0        2.305626   -3.819173    1.987581
    116          1           0        2.561282   -2.672613    3.388059
    117          1           0        1.119279   -3.639882    3.279802
    118          1           0        1.447537   -1.098379    4.469891
    119          1           0        1.945202    0.277023    3.478579
    120          1           0        0.381481    0.344647    4.319891
    121          7           0        1.855906   -2.451223   -1.296984
    122          6           0        2.954118   -2.806652   -2.176643
    123          6           0        4.287439   -3.019793   -1.483732
    124          8           0        4.332774   -3.310331   -0.291619
    125          6           0        2.593510   -3.886445   -3.184914
    126          8           0        2.368876   -5.192552   -2.692753
    127          1           0        1.397549   -1.549009   -1.333301
    128          1           0        3.192130   -1.893074   -2.706762
    129          1           0        3.259022   -3.998462   -4.049695
    130          1           0        1.629795   -3.638971   -3.631021
    131          1           0        1.949969   -5.092080   -1.840332
    132          7           0        5.366025   -2.927966   -2.266559
    133          6           0        6.714973   -3.174531   -1.788912
    134          6           0        7.405081   -1.903885   -1.310363
    135          8           0        7.045243   -0.818126   -1.753134
    136          6           0        7.581276   -3.842518   -2.861251
    137          1           0        5.265756   -2.443440   -3.142048
    138          1           0        6.677517   -3.709939   -0.846768
    139          1           0        7.229947   -4.797374   -3.250890
    140          1           0        7.696471   -3.208268   -3.744346
    141          1           0        8.577663   -4.011444   -2.467706
    142          7           0        8.381100   -2.036087   -0.402779
    143          6           0        9.060399   -1.002027    0.331915
    144          6           0        8.273140   -0.312391    1.440078
    145          8           0        8.874169    0.307950    2.318338
    146          6           0        9.703114    0.013192   -0.616635
    147          1           0        8.537094   -2.937752    0.032382
    148          1           0        9.865401   -1.509880    0.872430
    149          1           0       10.450843    0.668752   -0.161505
    150          1           0       10.134794   -0.490111   -1.477123
    151          1           0        9.062671    0.803329   -1.009720
    152          7           0        6.948362   -0.376119    1.297594
    153          6           0        5.935362    0.227512    2.140721
    154          6           0        6.074950   -0.204953    3.590268
    155          8           0        5.997678    0.618582    4.491333
    156          6           0        4.551792   -0.064740    1.540285
    157          6           0        3.695224    1.152465    1.209676
    158          6           0        4.212300    1.909221    0.002260
    159          8           0        3.551229    1.848199   -1.059183
    160          8           0        5.242232    2.620882    0.024131
    161          1           0        6.669151   -0.974892    0.533649
    162          1           0        6.123477    1.297619    2.095069
    163          1           0        3.975152   -0.620087    2.277290
    164          1           0        4.659831   -0.681671    0.647468
    165          1           0        3.670977    1.886772    2.014166
    166          1           0        2.644461    0.914055    1.025943
    167          7           0        6.416728   -1.473245    3.859387
    168          6           0        6.847481   -1.958459    5.156159
    169          1           0        7.808167   -1.510539    5.410921
    170          1           0        6.108929   -1.686320    5.910038
    171          1           0        6.951079   -3.043209    5.123060
    172          1           0        6.432312   -2.109564    3.081791
    173         20           0        4.535577    3.458315   -2.786055
    174          8           0        6.177777    1.476454   -2.733085
    175          1           0        7.052699    1.510195   -3.131924
    176          1           0        6.211588    0.725169   -2.141538
 ---------------------------------------------------------------------

 SCF Done:  E(RB3LYP) =  -5333.38243378     A.U. after   46 cycles

 The electronic state is 1-A.
 Alpha  occ. eigenvalues -- -145.47948 -19.19241 -19.15990 -19.15240 -19.12487
 Alpha  occ. eigenvalues --  -19.10871 -19.10663 -19.10074 -19.10033 -19.08528
 Alpha  occ. eigenvalues --  -19.08035 -19.07663 -19.07458 -19.07323 -19.07219
 Alpha  occ. eigenvalues --  -19.05993 -19.05899 -19.05309 -19.04743 -19.04625
 Alpha  occ. eigenvalues --  -19.04571 -19.03646 -18.98188 -18.96375 -15.53898
 Alpha  occ. eigenvalues --  -14.58460 -14.41323 -14.39144 -14.37073 -14.36702
 Alpha  occ. eigenvalues --  -14.35184 -14.34708 -14.34511 -14.33430 -14.32765
 Alpha  occ. eigenvalues --  -14.31792 -14.31397 -14.31056 -14.30839 -14.30403
 Alpha  occ. eigenvalues --  -12.67513 -12.67463 -12.67396 -10.34984 -10.34099
 Alpha  occ. eigenvalues --  -10.31095 -10.29496 -10.28963 -10.28910 -10.28012
 Alpha  occ. eigenvalues --  -10.26916 -10.26901 -10.26851 -10.26673 -10.26671
 Alpha  occ. eigenvalues --  -10.26122 -10.25826 -10.24993 -10.24898 -10.24559
 Alpha  occ. eigenvalues --  -10.24400 -10.23951 -10.23905 -10.23605 -10.23484
 Alpha  occ. eigenvalues --  -10.23415 -10.23296 -10.23204 -10.22810 -10.22465
 Alpha  occ. eigenvalues --  -10.21933 -10.21876 -10.21348 -10.21309 -10.21218
 Alpha  occ. eigenvalues --  -10.20684 -10.20100 -10.19785 -10.19380 -10.19192
 Alpha  occ. eigenvalues --  -10.18677 -10.18301 -10.18186 -10.17965 -10.17792
 Alpha  occ. eigenvalues --  -10.17750 -10.17674 -10.17659 -10.17559 -10.17407
 Alpha  occ. eigenvalues --  -10.17193 -10.17176 -10.16038 -10.15405 -10.15232
 Alpha  occ. eigenvalues --  -10.15045 -10.11743  -1.90556  -1.18167  -1.17688
 Alpha  occ. eigenvalues --   -1.17295  -1.13731  -1.09238  -1.05665  -1.05151
 Alpha  occ. eigenvalues --   -1.04197  -1.03694  -1.03487  -1.03198  -1.02223
 Alpha  occ. eigenvalues --   -1.01271  -1.01195  -1.00893  -0.99799  -0.99362
 Alpha  occ. eigenvalues --   -0.99167  -0.99017  -0.98702  -0.98412  -0.98206
 Alpha  occ. eigenvalues --   -0.97580  -0.96824  -0.95846  -0.93766  -0.93701
 Alpha  occ. eigenvalues --   -0.92249  -0.91258  -0.91247  -0.90513  -0.90458
 Alpha  occ. eigenvalues --   -0.90010  -0.89804  -0.89478  -0.89216  -0.88886
 Alpha  occ. eigenvalues --   -0.88530  -0.88356  -0.87408  -0.86611  -0.83494
 Alpha  occ. eigenvalues --   -0.83426  -0.81904  -0.81018  -0.80635  -0.80221
 Alpha  occ. eigenvalues --   -0.78882  -0.77360  -0.76973  -0.76927  -0.75679
 Alpha  occ. eigenvalues --   -0.74177  -0.73581  -0.73497  -0.73251  -0.73103
 Alpha  occ. eigenvalues --   -0.72768  -0.72054  -0.71415  -0.71138  -0.70059
 Alpha  occ. eigenvalues --   -0.69760  -0.69704  -0.69437  -0.68809  -0.68373
 Alpha  occ. eigenvalues --   -0.67724  -0.67553  -0.65810  -0.64211  -0.63579
 Alpha  occ. eigenvalues --   -0.63519  -0.62999  -0.62457  -0.62199  -0.61327
 Alpha  occ. eigenvalues --   -0.61324  -0.61088  -0.60481  -0.60271  -0.59945
 Alpha  occ. eigenvalues --   -0.59455  -0.59030  -0.58730  -0.58477  -0.58306
 Alpha  occ. eigenvalues --   -0.57606  -0.57512  -0.56821  -0.56573  -0.56261
 Alpha  occ. eigenvalues --   -0.55856  -0.55448  -0.55158  -0.55041  -0.54741
 Alpha  occ. eigenvalues --   -0.54557  -0.54467  -0.53388  -0.53126  -0.53002
 Alpha  occ. eigenvalues --   -0.52584  -0.52409  -0.52124  -0.51434  -0.51190
 Alpha  occ. eigenvalues --   -0.51132  -0.50885  -0.50730  -0.50616  -0.49939
 Alpha  occ. eigenvalues --   -0.49682  -0.49538  -0.48764  -0.48581  -0.48403
 Alpha  occ. eigenvalues --   -0.48144  -0.47920  -0.47724  -0.47705  -0.47525
 Alpha  occ. eigenvalues --   -0.47446  -0.46868  -0.46429  -0.46380  -0.45990
 Alpha  occ. eigenvalues --   -0.45932  -0.45723  -0.45485  -0.45330  -0.45023
 Alpha  occ. eigenvalues --   -0.44967  -0.44603  -0.44381  -0.44341  -0.44256
 Alpha  occ. eigenvalues --   -0.44229  -0.43969  -0.43881  -0.43585  -0.43413
 Alpha  occ. eigenvalues --   -0.43233  -0.43206  -0.43069  -0.42736  -0.42619
 Alpha  occ. eigenvalues --   -0.42530  -0.42458  -0.42348  -0.42275  -0.42183
 Alpha  occ. eigenvalues --   -0.42101  -0.41744  -0.41659  -0.41520  -0.41350
 Alpha  occ. eigenvalues --   -0.41156  -0.41022  -0.40781  -0.40661  -0.40634
 Alpha  occ. eigenvalues --   -0.40385  -0.40201  -0.40120  -0.40033  -0.39962
 Alpha  occ. eigenvalues --   -0.39940  -0.39786  -0.39559  -0.39514  -0.39195
 Alpha  occ. eigenvalues --   -0.39154  -0.38888  -0.38849  -0.38615  -0.38582
 Alpha  occ. eigenvalues --   -0.38291  -0.38181  -0.38133  -0.37795  -0.37674
 Alpha  occ. eigenvalues --   -0.37494  -0.37477  -0.37386  -0.37048  -0.36953
 Alpha  occ. eigenvalues --   -0.36873  -0.36543  -0.36137  -0.36092  -0.35628
 Alpha  occ. eigenvalues --   -0.35585  -0.35256  -0.35226  -0.35161  -0.34971
 Alpha  occ. eigenvalues --   -0.34798  -0.34625  -0.34534  -0.34147  -0.34018
 Alpha  occ. eigenvalues --   -0.33984  -0.33916  -0.33861  -0.33633  -0.33363
 Alpha  occ. eigenvalues --   -0.33348  -0.32956  -0.32892  -0.32474  -0.32357
 Alpha  occ. eigenvalues --   -0.32280  -0.32191  -0.32155  -0.31522  -0.31461
 Alpha  occ. eigenvalues --   -0.31168  -0.29828  -0.29629  -0.29417  -0.29130
 Alpha  occ. eigenvalues --   -0.28928  -0.27794  -0.27427  -0.26907  -0.26832
 Alpha  occ. eigenvalues --   -0.26497  -0.26477  -0.26074  -0.25950  -0.25170
 Alpha  occ. eigenvalues --   -0.25050  -0.24900  -0.24820  -0.24773  -0.24594
 Alpha  occ. eigenvalues --   -0.24474  -0.24367  -0.24173  -0.23715  -0.23527
 Alpha  occ. eigenvalues --   -0.23295  -0.23110  -0.22968  -0.22745  -0.22398
 Alpha  occ. eigenvalues --   -0.22358  -0.21524  -0.21322  -0.21031  -0.20698
 Alpha  occ. eigenvalues --   -0.20192  -0.20024  -0.19920  -0.19336  -0.19111
 Alpha  occ. eigenvalues --   -0.15376  -0.14880  -0.12510
 Alpha virt. eigenvalues --   -0.11671  -0.10041  -0.04313  -0.04264  -0.03590
 Alpha virt. eigenvalues --   -0.02006  -0.01059  -0.00960  -0.00623  -0.00356
 Alpha virt. eigenvalues --    0.00078   0.00644   0.01178   0.01296   0.01583

 Mulliken charges:
               1
     1  C    0.056848
     2  C    0.016345
     3  O   -0.287401
     4  H   -0.000551
     5  H   -0.015154
     6  H    0.046169
     7  N   -0.147012
     8  C    0.152230
     9  C    0.063604
    10  O   -0.319365
    11  C    0.074457
    12  C    0.059476
    13  O   -0.415757
    14  O   -0.350584
    15  H    0.088686
    16  H    0.007314
    17  H   -0.014408
    18  H    0.014165
    19  N   -0.103231
    20  C    0.140211
    21  C    0.079330
    22  O   -0.253702
    23  C    0.020840
    24  C   -0.004269
    25  C   -0.062776
    26  C    0.041650
    27  N    0.086962
    28  H    0.104063
    29  H   -0.037288
    30  H    0.037960
    31  H    0.016236
    32  H    0.008096
    33  H   -0.022440
    34  H    0.031210
    35  H    0.050548
    36  H    0.071399
    37  H    0.075768
    38  H    0.200719
    39  H    0.195716
    40  H    0.196410
    41  N   -0.119190
    42  C    0.079702
    43  C    0.101586
    44  O   -0.266454
    45  C    0.063861
    46  C    0.111568
    47  O   -0.335703
    48  O   -0.496364
    49  H    0.120008
    50  H    0.024617
    51  H    0.020647
    52  H   -0.038300
    53  N   -0.120927
    54  C    0.154226
    55  C    0.011858
    56  O   -0.230772
    57  H    0.118213
    58  H    0.050261
    59  H    0.016855
    60  N   -0.093311
    61  C   -0.019769
    62  C    0.094467
    63  O   -0.253832
    64  C    0.111244
    65  C    0.057471
    66  N   -0.017685
    67  O   -0.321539
    68  H    0.128339
    69  H    0.021266
    70  H    0.014269
    71  H    0.038191
    72  H    0.122504
    73  H    0.141456
    74  N   -0.158195
    75  C    0.185380
    76  C    0.032867
    77  O   -0.300102
    78  H    0.125551
    79  H    0.035904
    80  H    0.058285
    81  N   -0.150127
    82  C    0.098484
    83  C    0.117424
    84  O   -0.302094
    85  C    0.151125
    86  C   -0.013318
    87  C   -0.019331
    88  C   -0.000243
    89  C   -0.018335
    90  C   -0.043685
    91  C    0.142002
    92  O   -0.186429
    93  H    0.160955
    94  H    0.000604
    95  H   -0.006088
    96  H   -0.002387
    97  H   -0.029946
    98  H   -0.017419
    99  H   -0.032548
   100  H   -0.046829
   101  H    0.165725
   102  N   -0.110703
   103  C    0.115773
   104  C    0.140604
   105  O   -0.307131
   106  C   -0.070820
   107  C    0.029480
   108  C    0.034765
   109  C    0.007449
   110  H    0.124585
   111  H   -0.008133
   112  H   -0.021953
   113  H    0.006943
   114  H    0.010558
   115  H    0.030181
   116  H    0.008562
   117  H   -0.012385
   118  H   -0.007455
   119  H    0.004624
   120  H    0.039243
   121  N   -0.114599
   122  C    0.055697
   123  C    0.098653
   124  O   -0.260482
   125  C    0.279939
   126  O   -0.323435
   127  H    0.148756
   128  H   -0.004980
   129  H   -0.018389
   130  H   -0.007324
   131  H    0.152873
   132  N   -0.120534
   133  C    0.111245
   134  C    0.071095
   135  O   -0.319193
   136  C    0.077522
   137  H    0.119701
   138  H    0.006781
   139  H    0.049366
   140  H    0.009372
   141  H    0.007151
   142  N   -0.144605
   143  C    0.061377
   144  C    0.061876
   145  O   -0.262114
   146  C    0.060827
   147  H    0.135421
   148  H    0.024242
   149  H    0.031480
   150  H    0.009539
   151  H    0.001111
   152  N   -0.132123
   153  C    0.145169
   154  C    0.042924
   155  O   -0.255075
   156  C    0.010051
   157  C    0.089884
   158  C    0.061160
   159  O   -0.462469
   160  O   -0.400000
   161  H    0.110049
   162  H    0.031444
   163  H    0.031842
   164  H    0.001199
   165  H    0.021541
   166  H    0.009961
   167  N   -0.162208
   168  C    0.140494
   169  H    0.032302
   170  H    0.036170
   171  H    0.007491
   172  H    0.096953
   173  Ca   1.359995
   174  O   -0.348471
   175  H    0.176575
   176  H    0.204120
 Sum of Mulliken charges =  -0.00000

 Dipole moment (field-independent basis, Debye):
    X=             32.5545    Y=             15.7118    Z=              2.4220  Tot=             36.2287
 Quadrupole moment (field-independent basis, Debye-Ang):
   XX=           -602.7087   YY=           -284.7988   ZZ=           -549.1543
   XY=             70.1510   XZ=           -106.3370   YZ=            126.6516

 ESP charges:
               1
     1  C   -0.433311
     2  C    0.644322
     3  O   -0.556278
     4  H    0.086336
     5  H    0.081666
     6  H    0.147324
     7  N   -0.502350
     8  C    0.328705
     9  C    0.379942
    10  O   -0.552369
    11  C   -0.342162
    12  C    0.767320
    13  O   -0.760653
    14  O   -0.663033
    15  H    0.232614
    16  H    0.039982
    17  H    0.054964
    18  H    0.077704
    19  N   -0.286946
    20  C   -0.299162
    21  C    0.816332
    22  O   -0.529239
    23  C   -0.191737
    24  C    0.241192
    25  C   -0.103909
    26  C    0.086307
    27  N   -0.545194
    28  H    0.346253
    29  H    0.117125
    30  H    0.087619
    31  H    0.100473
    32  H   -0.014576
    33  H   -0.097135
    34  H    0.047153
    35  H    0.059816
    36  H    0.061637
    37  H    0.065825
    38  H    0.399826
    39  H    0.378823
    40  H    0.386074
    41  N   -0.723002
    42  C    0.010441
    43  C    0.440020
    44  O   -0.515996
    45  C   -0.010709
    46  C    0.795659
    47  O   -0.657241
    48  O   -0.897794
    49  H    0.343860
    50  H    0.129463
    51  H    0.026424
    52  H   -0.009461
    53  N   -0.316158
    54  C    0.028386
    55  C    0.564142
    56  O   -0.452701
    57  H    0.280602
    58  H    0.066210
    59  H    0.014126
    60  N   -0.681105
    61  C    0.597754
    62  C    0.386924
    63  O   -0.539176
    64  C   -0.266938
    65  C    0.576851
    66  N   -0.731873
    67  O   -0.497880
    68  H    0.320290
    69  H   -0.042621
    70  H    0.100621
    71  H    0.068054
    72  H    0.355781
    73  H    0.379017
    74  N   -0.380097
    75  C   -0.089749
    76  C    0.554526
    77  O   -0.581476
    78  H    0.303280
    79  H    0.108520
    80  H    0.061884
    81  N   -0.354335
    82  C    0.141765
    83  C    0.905642
    84  O   -0.646136
    85  C   -0.325129
    86  C    0.194130
    87  C   -0.226835
    88  C   -0.180151
    89  C   -0.232681
    90  C   -0.317782
    91  C    0.350616
    92  O   -0.522890
    93  H    0.096744
    94  H    0.040753
    95  H    0.084141
    96  H    0.087715
    97  H    0.150234
    98  H    0.178918
    99  H    0.159515
   100  H    0.144065
   101  H    0.388150
   102  N   -0.856916
   103  C   -0.070240
   104  C    0.598208
   105  O   -0.476768
   106  C    0.233438
   107  C    0.379594
   108  C   -0.299985
   109  C   -0.386516
   110  H    0.388954
   111  H    0.071922
   112  H   -0.158913
   113  H   -0.039373
   114  H   -0.042355
   115  H    0.099966
   116  H    0.062452
   117  H    0.047568
   118  H    0.059878
   119  H    0.108244
   120  H    0.083143
   121  N   -0.271069
   122  C   -0.481917
   123  C    0.756342
   124  O   -0.522637
   125  C    0.290211
   126  O   -0.600165
   127  H    0.286851
   128  H    0.160953
   129  H    0.027888
   130  H    0.020748
   131  H    0.381433
   132  N   -0.500463
   133  C    0.189346
   134  C    0.602003
   135  O   -0.554013
   136  C   -0.277286
   137  H    0.271032
   138  H    0.021008
   139  H    0.108933
   140  H    0.091972
   141  H    0.056558
   142  N   -0.479750
   143  C    0.072631
   144  C    0.268145
   145  O   -0.467825
   146  C   -0.182868
   147  H    0.313594
   148  H    0.083991
   149  H    0.075906
   150  H    0.051365
   151  H    0.084105
   152  N    0.204269
   153  C   -0.500634
   154  C    0.617470
   155  O   -0.529564
   156  C    0.253236
   157  C   -0.079488
   158  C    0.728442
   159  O   -0.740734
   160  O   -0.771462
   161  H   -0.054559
   162  H    0.192660
   163  H   -0.038862
   164  H    0.018264
   165  H    0.040440
   166  H   -0.002239
   167  N   -0.253122
   168  C   -0.224181
   169  H    0.103502
   170  H    0.105817
   171  H    0.105308
   172  H    0.195160
   173  Ca   1.567980
   174  O   -0.804901
   175  H    0.396019
   176  H    0.399263
 Sum of ESP charges =   0.00000

 Normal termination of Gaussian 16 at Wed Sep 18 14:36:21 2019.
