 Gaussian 16, Revision A.03,
 Gaussian 16:  ES64L-G16RevA.03 25-Dec-2016

 ----------------------------------------------------------------------
 #b3lyp/svp scf=(tight,noincore) Test #IOP(5/87=12) Density=Current Pop
 =(MK,readradii) iop(6/33=2) iop(6/42=6)
 ----------------------------------------------------------------------

 ----------------
 Ng-31_loop3_27.0
 ----------------
 Symbolic Z-matrix:
 Charge =  0 Multiplicity = 1

                         Standard orientation:
 ---------------------------------------------------------------------
 Center     Atomic      Atomic             Coordinates (Angstroms)
 Number     Number       Type             X           Y           Z
 ---------------------------------------------------------------------
      1          6           0        4.779961    0.580357    5.203659
      2          6           0        4.475288    0.592136    3.713178
      3          8           0        3.360396    0.311465    3.288866
      4          1           0        4.250701   -0.246947    5.675759
      5          1           0        5.852098    0.458749    5.354997
      6          1           0        4.453786    1.520255    5.649339
      7          7           0        5.450577    0.983305    2.882817
      8          6           0        5.291003    1.135620    1.457112
      9          6           0        5.388523   -0.204636    0.731575
     10          8           0        4.384911   -0.713418    0.242593
     11          6           0        6.087757    2.259243    0.799194
     12          6           0        7.601938    2.149785    0.886804
     13          8           0        8.113646    1.407364    1.746493
     14          8           0        8.324849    2.847026    0.141449
     15          1           0        6.354950    1.130696    3.311402
     16          1           0        4.283956    1.537593    1.357248
     17          1           0        5.775691    3.198328    1.259341
     18          1           0        5.777345    2.295863   -0.246035
     19          7           0        6.530148   -0.882939    0.808388
     20          6           0        6.734426   -2.153815    0.134707
     21          6           0        6.657548   -1.987888   -1.379181
     22          8           0        7.500484   -1.349067   -2.011926
     23          6           0        8.075806   -2.773398    0.487291
     24          6           0        8.351180   -2.999983    1.978374
     25          6           0        9.833154   -3.321197    2.182267
     26          6           0       10.100821   -3.846782    3.585946
     27          7           0       11.314007   -4.613329    3.897688
     28          1           0        7.238602   -0.344165    1.288299
     29          1           0        6.009265   -2.871772    0.520945
     30          1           0        8.851686   -2.074727    0.172856
     31          1           0        8.135790   -3.719753   -0.051611
     32          1           0        7.807312   -3.910160    2.235056
     33          1           0        8.071849   -2.176076    2.635148
     34          1           0       10.498727   -2.482858    1.983266
     35          1           0       10.072331   -4.121107    1.489274
     36          1           0        9.312670   -4.586140    3.735172
     37          1           0        9.901781   -3.060652    4.305379
     38          1           0       11.555441   -5.462350    3.398816
     39          1           0       12.166152   -4.090886    3.716021
     40          1           0       11.354008   -4.860451    4.876836
     41          7           0        5.642201   -2.612228   -1.978655
     42          6           0        5.249109   -2.406985   -3.358892
     43          6           0        4.449959   -1.146520   -3.625700
     44          8           0        4.136697   -0.885439   -4.784106
     45          6           0        4.560025   -3.645060   -3.914980
     46          6           0        3.448571   -4.189286   -3.029548
     47          8           0        2.254524   -3.849566   -3.214592
     48          8           0        3.729429   -4.990856   -2.118777
     49          1           0        4.993296   -3.114694   -1.387850
     50          1           0        6.183463   -2.278040   -3.900699
     51          1           0        5.371879   -4.364066   -4.013082
     52          1           0        4.129580   -3.480192   -4.907822
     53          7           0        4.018768   -0.319215   -2.668549
     54          6           0        3.303277    0.936249   -2.807779
     55          6           0        4.232130    2.101728   -2.532477
     56          8           0        5.409590    2.018834   -2.876740
     57          1           0        4.457620   -0.491562   -1.775573
     58          1           0        2.474701    1.034955   -2.099882
     59          1           0        2.944674    1.031640   -3.832428
     60          7           0        3.770698    3.296581   -2.132096
     61          6           0        2.428669    3.677650   -1.741908
     62          6           0        2.483937    4.249919   -0.336186
     63          8           0        3.094137    5.294317   -0.135720
     64          6           0        1.879005    4.687887   -2.741003
     65          6           0        1.486326    4.186380   -4.123354
     66          7           0        1.157647    5.074017   -5.056612
     67          8           0        1.395999    2.989848   -4.401837
     68          1           0        4.463446    3.995211   -2.354395
     69          1           0        1.779946    2.803920   -1.723084
     70          1           0        2.738190    5.344043   -2.875014
     71          1           0        0.979433    5.101425   -2.286957
     72          1           0        1.174296    6.063891   -4.860979
     73          1           0        0.982076    4.670840   -5.968436
     74          7           0        1.852994    3.730938    0.717982
     75          6           0        1.054806    2.530494    0.804763
     76          6           0       -0.464357    2.579727    0.746277
     77          8           0       -1.047348    1.504626    0.881843
     78          1           0        1.893675    4.282669    1.560263
     79          1           0        1.331900    2.070790    1.755705
     80          1           0        1.265489    1.851396   -0.027846
     81          7           0       -1.127332    3.730968    0.692370
     82          6           0       -2.566806    3.858162    0.602712
     83          6           0       -3.031327    3.748025   -0.841029
     84          8           0       -2.847404    4.622288   -1.697087
     85          6           0       -2.995034    5.225725    1.122127
     86          6           0       -2.665658    5.707497    2.514645
     87          6           0       -2.468236    4.837723    3.599735
     88          6           0       -2.531670    7.083137    2.714300
     89          6           0       -2.200161    5.344288    4.875089
     90          6           0       -2.199840    7.585649    3.985312
     91          6           0       -2.043798    6.729502    5.094935
     92          8           0       -1.767150    7.126422    6.368207
     93          1           0       -0.597974    4.576341    0.858877
     94          1           0       -3.018622    3.075161    1.217099
     95          1           0       -4.062156    5.340969    0.937543
     96          1           0       -2.639930    6.008711    0.446528
     97          1           0       -2.681116    3.789567    3.456031
     98          1           0       -2.742670    7.760485    1.908832
     99          1           0       -2.042367    4.685920    5.710704
    100          1           0       -2.131796    8.651694    4.127498
    101          1           0       -1.666480    8.078978    6.473575
    102          7           0       -3.624144    2.593364   -1.166955
    103          6           0       -3.809474    2.069762   -2.501156
    104          6           0       -5.274985    1.694723   -2.665543
    105          8           0       -5.591812    1.401846   -3.819815
    106          6           0       -2.848995    0.910956   -2.793130
    107          6           0       -1.416251    1.421607   -2.844928
    108          6           0       -3.032077   -0.291909   -1.871340
    109          6           0       -0.444821    0.477043   -3.567577
    110          1           0       -3.619619    1.910969   -0.417544
    111          1           0       -3.590749    2.832508   -3.248804
    112          1           0       -3.080753    0.511063   -3.773015
    113          1           0       -1.055204    1.738675   -1.869986
    114          1           0       -1.479640    2.289191   -3.503016
    115          1           0       -4.056358   -0.644847   -1.911117
    116          1           0       -2.361742   -1.059039   -2.275149
    117          1           0       -2.686964   -0.056854   -0.869569
    118          1           0        0.046021    1.034936   -4.366094
    119          1           0        0.329845    0.066828   -2.933924
    120          1           0       -1.103527   -0.314467   -3.933253
    121          7           0       -6.156174    1.766499   -1.668671
    122          6           0       -7.452818    1.127881   -1.617862
    123          6           0       -7.760092   -0.003452   -0.651804
    124          8           0       -7.454300   -0.003173    0.544479
    125          6           0       -8.479548    2.230821   -1.394371
    126          8           0       -8.530124    3.186845   -2.430499
    127          1           0       -5.697501    1.966179   -0.785864
    128          1           0       -7.568051    0.718526   -2.628282
    129          1           0       -8.323337    2.619686   -0.384974
    130          1           0       -9.501713    1.850893   -1.493030
    131          1           0       -8.013282    3.952329   -2.142908
    132          7           0       -8.555894   -0.949838   -1.158612
    133          6           0       -9.073926   -2.131029   -0.499954
    134          6           0       -8.032652   -3.123170   -0.014564
    135          8           0       -7.014070   -3.223972   -0.694292
    136          6           0      -10.301752   -2.701548   -1.206461
    137          1           0       -8.699934   -0.914823   -2.154667
    138          1           0       -9.459923   -1.689866    0.421828
    139          1           0      -10.722720   -3.523320   -0.632634
    140          1           0      -10.997297   -1.859187   -1.266015
    141          1           0      -10.151400   -3.122404   -2.198667
    142          7           0       -8.378730   -3.910149    1.004550
    143          6           0       -7.737032   -5.171313    1.332253
    144          6           0       -6.248626   -5.173247    1.654968
    145          8           0       -5.631404   -6.234761    1.598171
    146          6           0       -8.101117   -6.176824    0.241386
    147          1           0       -9.168372   -3.593746    1.551225
    148          1           0       -8.269008   -5.546939    2.208785
    149          1           0       -7.733593   -6.025873   -0.767346
    150          1           0       -7.832958   -7.204778    0.486133
    151          1           0       -9.185168   -6.296997    0.281283
    152          7           0       -5.519792   -4.095471    1.931012
    153          6           0       -4.122770   -3.929855    2.275542
    154          6           0       -3.909449   -3.472626    3.714200
    155          8           0       -2.940619   -3.828219    4.384141
    156          6           0       -3.617840   -2.852470    1.314143
    157          6           0       -3.114949   -3.405239   -0.021015
    158          6           0       -1.633856   -3.758923    0.016010
    159          8           0       -0.734806   -2.883251   -0.083020
    160          8           0       -1.342171   -4.915118   -0.333466
    161          1           0       -6.088246   -3.257862    1.876506
    162          1           0       -3.593120   -4.874442    2.136529
    163          1           0       -2.829614   -2.286819    1.811775
    164          1           0       -4.480373   -2.204440    1.195003
    165          1           0       -3.285532   -2.593464   -0.727005
    166          1           0       -3.744100   -4.205023   -0.405612
    167          7           0       -4.805043   -2.760547    4.408574
    168          6           0       -4.819633   -2.385948    5.802189
    169          1           0       -5.134791   -3.238090    6.403419
    170          1           0       -3.819794   -2.077070    6.106858
    171          1           0       -5.515781   -1.560522    5.949927
    172          1           0       -5.639478   -2.439459    3.947791
    173         20           0        1.170340   -4.458545   -1.016277
    174          8           0        2.450502   -2.210793   -0.623219
    175          1           0        1.788615   -1.541403   -0.464717
    176          1           0        3.270524   -1.821751   -0.299938
 ---------------------------------------------------------------------

 SCF Done:  E(RB3LYP) =  -5333.39754102     A.U. after   28 cycles

 The electronic state is 1-A.
 Alpha  occ. eigenvalues -- -145.41503 -19.16729 -19.13033 -19.11663 -19.10768
 Alpha  occ. eigenvalues --  -19.10485 -19.09514 -19.09367 -19.09201 -19.08360
 Alpha  occ. eigenvalues --  -19.07984 -19.07725 -19.07282 -19.07099 -19.06504
 Alpha  occ. eigenvalues --  -19.06219 -19.06010 -19.05572 -19.05309 -19.05134
 Alpha  occ. eigenvalues --  -19.05103 -19.03374 -18.99141 -18.96860 -15.47483
 Alpha  occ. eigenvalues --  -14.59199 -14.37564 -14.36676 -14.36208 -14.35543
 Alpha  occ. eigenvalues --  -14.35421 -14.35238 -14.34489 -14.34146 -14.33715
 Alpha  occ. eigenvalues --  -14.33520 -14.33150 -14.32548 -14.32077 -14.29934
 Alpha  occ. eigenvalues --  -12.61102 -12.61064 -12.60958 -10.34954 -10.29429
 Alpha  occ. eigenvalues --  -10.29204 -10.28152 -10.28094 -10.27740 -10.27384
 Alpha  occ. eigenvalues --  -10.27157 -10.27115 -10.27037 -10.26819 -10.26164
 Alpha  occ. eigenvalues --  -10.26029 -10.25480 -10.25440 -10.25118 -10.24874
 Alpha  occ. eigenvalues --  -10.24512 -10.24386 -10.24269 -10.24214 -10.23887
 Alpha  occ. eigenvalues --  -10.23768 -10.23391 -10.23388 -10.23156 -10.22904
 Alpha  occ. eigenvalues --  -10.22873 -10.21646 -10.21491 -10.21352 -10.21247
 Alpha  occ. eigenvalues --  -10.21056 -10.20312 -10.19573 -10.19547 -10.19510
 Alpha  occ. eigenvalues --  -10.19425 -10.19372 -10.19340 -10.19249 -10.18960
 Alpha  occ. eigenvalues --  -10.18742 -10.18089 -10.17931 -10.17654 -10.16685
 Alpha  occ. eigenvalues --  -10.16553 -10.15541 -10.15171 -10.14939 -10.14747
 Alpha  occ. eigenvalues --  -10.13299 -10.12889  -1.84226  -1.14214  -1.11925
 Alpha  occ. eigenvalues --   -1.11652  -1.11023  -1.05049  -1.04081  -1.03051
 Alpha  occ. eigenvalues --   -1.02968  -1.02913  -1.02235  -1.01875  -1.01413
 Alpha  occ. eigenvalues --   -1.01349  -1.01255  -1.00767  -1.00616  -1.00584
 Alpha  occ. eigenvalues --   -1.00255  -1.00099  -0.99459  -0.98886  -0.97867
 Alpha  occ. eigenvalues --   -0.96949  -0.94195  -0.93287  -0.93167  -0.92830
 Alpha  occ. eigenvalues --   -0.92572  -0.91376  -0.91215  -0.91200  -0.90797
 Alpha  occ. eigenvalues --   -0.90121  -0.89672  -0.89540  -0.89320  -0.89241
 Alpha  occ. eigenvalues --   -0.89049  -0.89037  -0.88657  -0.85919  -0.85050
 Alpha  occ. eigenvalues --   -0.82398  -0.82099  -0.80721  -0.79911  -0.78587
 Alpha  occ. eigenvalues --   -0.78080  -0.77473  -0.77202  -0.76940  -0.75837
 Alpha  occ. eigenvalues --   -0.74924  -0.74670  -0.74658  -0.74107  -0.72703
 Alpha  occ. eigenvalues --   -0.72270  -0.71475  -0.71408  -0.71010  -0.70272
 Alpha  occ. eigenvalues --   -0.69833  -0.68537  -0.68422  -0.68355  -0.68323
 Alpha  occ. eigenvalues --   -0.67889  -0.65982  -0.65857  -0.64061  -0.64030
 Alpha  occ. eigenvalues --   -0.63533  -0.62394  -0.62102  -0.61961  -0.61089
 Alpha  occ. eigenvalues --   -0.60626  -0.60503  -0.60037  -0.59586  -0.59512
 Alpha  occ. eigenvalues --   -0.59335  -0.58438  -0.58422  -0.57569  -0.57391
 Alpha  occ. eigenvalues --   -0.57045  -0.56718  -0.56581  -0.56447  -0.56165
 Alpha  occ. eigenvalues --   -0.56043  -0.55304  -0.55291  -0.55175  -0.54550
 Alpha  occ. eigenvalues --   -0.54508  -0.53713  -0.53481  -0.53328  -0.52893
 Alpha  occ. eigenvalues --   -0.52375  -0.52108  -0.52087  -0.51997  -0.51578
 Alpha  occ. eigenvalues --   -0.51328  -0.50265  -0.50087  -0.49694  -0.49526
 Alpha  occ. eigenvalues --   -0.48996  -0.48778  -0.48520  -0.48496  -0.48368
 Alpha  occ. eigenvalues --   -0.47896  -0.47777  -0.47355  -0.47206  -0.46931
 Alpha  occ. eigenvalues --   -0.46606  -0.46229  -0.46060  -0.45488  -0.45405
 Alpha  occ. eigenvalues --   -0.45112  -0.45009  -0.44885  -0.44792  -0.44661
 Alpha  occ. eigenvalues --   -0.44457  -0.44310  -0.44203  -0.44046  -0.44037
 Alpha  occ. eigenvalues --   -0.43866  -0.43785  -0.43409  -0.43245  -0.42957
 Alpha  occ. eigenvalues --   -0.42862  -0.42754  -0.42668  -0.42503  -0.42306
 Alpha  occ. eigenvalues --   -0.42271  -0.42232  -0.42038  -0.41447  -0.41248
 Alpha  occ. eigenvalues --   -0.41210  -0.41036  -0.40848  -0.40763  -0.40633
 Alpha  occ. eigenvalues --   -0.40556  -0.40487  -0.40413  -0.40331  -0.40148
 Alpha  occ. eigenvalues --   -0.40077  -0.40019  -0.39756  -0.39691  -0.39344
 Alpha  occ. eigenvalues --   -0.39305  -0.39219  -0.39120  -0.39025  -0.38869
 Alpha  occ. eigenvalues --   -0.38826  -0.38601  -0.38348  -0.38072  -0.37936
 Alpha  occ. eigenvalues --   -0.37841  -0.37737  -0.37681  -0.37485  -0.37356
 Alpha  occ. eigenvalues --   -0.37209  -0.37130  -0.36928  -0.36663  -0.36427
 Alpha  occ. eigenvalues --   -0.36279  -0.36231  -0.36084  -0.36016  -0.35859
 Alpha  occ. eigenvalues --   -0.35781  -0.35726  -0.35504  -0.35483  -0.35336
 Alpha  occ. eigenvalues --   -0.35124  -0.34857  -0.34710  -0.34415  -0.34349
 Alpha  occ. eigenvalues --   -0.34086  -0.33886  -0.33733  -0.33422  -0.33396
 Alpha  occ. eigenvalues --   -0.32930  -0.32925  -0.32815  -0.32732  -0.32424
 Alpha  occ. eigenvalues --   -0.31446  -0.31221  -0.31010  -0.30195  -0.29838
 Alpha  occ. eigenvalues --   -0.29254  -0.28818  -0.28442  -0.28347  -0.28214
 Alpha  occ. eigenvalues --   -0.27804  -0.27659  -0.27347  -0.27255  -0.26736
 Alpha  occ. eigenvalues --   -0.26467  -0.26190  -0.26168  -0.25878  -0.25611
 Alpha  occ. eigenvalues --   -0.25187  -0.24873  -0.24814  -0.24740  -0.24616
 Alpha  occ. eigenvalues --   -0.24524  -0.24286  -0.24000  -0.23729  -0.23411
 Alpha  occ. eigenvalues --   -0.23283  -0.23176  -0.22885  -0.22705  -0.22597
 Alpha  occ. eigenvalues --   -0.22439  -0.22419  -0.22219  -0.21872  -0.21565
 Alpha  occ. eigenvalues --   -0.21294  -0.20976  -0.20510  -0.20132  -0.19237
 Alpha  occ. eigenvalues --   -0.16255  -0.15571  -0.12713
 Alpha virt. eigenvalues --   -0.11487  -0.05420  -0.04698  -0.03505  -0.01721
 Alpha virt. eigenvalues --   -0.01237  -0.00139   0.00017   0.00225   0.00720
 Alpha virt. eigenvalues --    0.01299   0.01700   0.01777   0.02296   0.02437

 Mulliken charges:
               1
     1  C    0.068573
     2  C   -0.007330
     3  O   -0.292064
     4  H    0.023794
     5  H   -0.011556
     6  H    0.041851
     7  N   -0.129428
     8  C    0.142403
     9  C    0.104478
    10  O   -0.343334
    11  C    0.050632
    12  C    0.053107
    13  O   -0.415689
    14  O   -0.334573
    15  H    0.098348
    16  H   -0.026098
    17  H    0.008886
    18  H    0.023243
    19  N   -0.117101
    20  C    0.158823
    21  C    0.060942
    22  O   -0.250966
    23  C   -0.003025
    24  C    0.015822
    25  C   -0.001395
    26  C    0.022592
    27  N    0.103410
    28  H    0.118057
    29  H   -0.024677
    30  H    0.043761
    31  H    0.010838
    32  H   -0.004449
    33  H    0.037930
    34  H    0.058234
    35  H    0.003315
    36  H    0.042279
    37  H    0.083232
    38  H    0.166097
    39  H    0.169508
    40  H    0.172999
    41  N   -0.146234
    42  C    0.107165
    43  C    0.062685
    44  O   -0.292735
    45  C    0.167520
    46  C    0.076353
    47  O   -0.437143
    48  O   -0.426453
    49  H    0.113978
    50  H    0.031959
    51  H   -0.015315
    52  H    0.031532
    53  N   -0.134474
    54  C    0.247648
    55  C   -0.026248
    56  O   -0.254773
    57  H    0.118541
    58  H   -0.019201
    59  H    0.072076
    60  N   -0.117433
    61  C    0.071317
    62  C    0.078716
    63  O   -0.275111
    64  C    0.065728
    65  C    0.017042
    66  N   -0.029333
    67  O   -0.263560
    68  H    0.133621
    69  H    0.009270
    70  H    0.029199
    71  H    0.036405
    72  H    0.117908
    73  H    0.139167
    74  N   -0.125572
    75  C    0.173172
    76  C    0.030889
    77  O   -0.292063
    78  H    0.128323
    79  H    0.072279
    80  H    0.043424
    81  N   -0.100494
    82  C    0.121696
    83  C    0.068692
    84  O   -0.279923
    85  C    0.086562
    86  C   -0.030817
    87  C    0.002216
    88  C   -0.010188
    89  C   -0.016480
    90  C   -0.048135
    91  C    0.176161
    92  O   -0.197624
    93  H    0.120676
    94  H    0.005560
    95  H    0.007649
    96  H    0.010145
    97  H   -0.019917
    98  H   -0.030496
    99  H   -0.023830
   100  H   -0.045298
   101  H    0.178795
   102  N   -0.152799
   103  C    0.164364
   104  C    0.033129
   105  O   -0.277893
   106  C   -0.098529
   107  C    0.007071
   108  C   -0.011139
   109  C    0.042307
   110  H    0.134751
   111  H    0.031746
   112  H    0.002144
   113  H    0.005300
   114  H   -0.012174
   115  H    0.026904
   116  H    0.028153
   117  H    0.030687
   118  H    0.042148
   119  H    0.006872
   120  H   -0.002668
   121  N   -0.107885
   122  C    0.114641
   123  C    0.090330
   124  O   -0.299076
   125  C    0.226046
   126  O   -0.299977
   127  H    0.096967
   128  H    0.005382
   129  H   -0.001001
   130  H   -0.010380
   131  H    0.167364
   132  N   -0.119361
   133  C    0.071344
   134  C    0.087113
   135  O   -0.262961
   136  C    0.055071
   137  H    0.123600
   138  H   -0.013960
   139  H    0.009524
   140  H    0.033906
   141  H    0.029732
   142  N   -0.146261
   143  C    0.078910
   144  C    0.056037
   145  O   -0.283101
   146  C    0.062420
   147  H    0.124190
   148  H    0.018538
   149  H    0.042074
   150  H    0.022610
   151  H   -0.021500
   152  N   -0.104899
   153  C    0.125592
   154  C    0.065844
   155  O   -0.284474
   156  C   -0.000152
   157  C    0.140166
   158  C    0.120463
   159  O   -0.445044
   160  O   -0.439490
   161  H    0.112798
   162  H    0.039998
   163  H    0.034175
   164  H   -0.025829
   165  H   -0.000998
   166  H    0.009787
   167  N   -0.150506
   168  C    0.132889
   169  H    0.020267
   170  H    0.037676
   171  H    0.009222
   172  H    0.082010
   173  Ca   1.339956
   174  O   -0.344562
   175  H    0.192991
   176  H    0.164724
 Sum of Mulliken charges =  -0.00000

 Dipole moment (field-independent basis, Debye):
    X=             10.0025    Y=            -15.3786    Z=             24.4950  Tot=             30.6031
 Quadrupole moment (field-independent basis, Debye-Ang):
   XX=           -197.0884   YY=           -457.8466   ZZ=           -535.8911
   XY=           -258.0515   XZ=            178.2318   YZ=            -64.9070

 ESP charges:
               1
     1  C   -0.486698
     2  C    0.754327
     3  O   -0.608097
     4  H    0.125085
     5  H    0.097724
     6  H    0.147091
     7  N   -0.642564
     8  C    0.245326
     9  C    0.710176
    10  O   -0.734927
    11  C   -0.238029
    12  C    0.706134
    13  O   -0.726796
    14  O   -0.638706
    15  H    0.297414
    16  H    0.024243
    17  H    0.092433
    18  H    0.002722
    19  N   -0.585080
    20  C    0.174025
    21  C    0.484431
    22  O   -0.494116
    23  C   -0.310617
    24  C    0.209206
    25  C    0.091315
    26  C    0.024350
    27  N   -0.227915
    28  H    0.362234
    29  H    0.056940
    30  H    0.093485
    31  H    0.094599
    32  H   -0.026324
    33  H   -0.050671
    34  H    0.016884
    35  H   -0.024070
    36  H    0.033992
    37  H    0.082439
    38  H    0.292009
    39  H    0.264831
    40  H    0.277462
    41  N   -0.411630
    42  C    0.110685
    43  C    0.460126
    44  O   -0.538451
    45  C   -0.285329
    46  C    0.782985
    47  O   -0.728459
    48  O   -0.763452
    49  H    0.225381
    50  H    0.100302
    51  H    0.086368
    52  H    0.103035
    53  N   -0.356685
    54  C    0.025030
    55  C    0.468290
    56  O   -0.493803
    57  H    0.284106
    58  H    0.005961
    59  H    0.147189
    60  N   -0.434606
    61  C    0.425259
    62  C    0.275278
    63  O   -0.519491
    64  C   -0.570366
    65  C    0.750197
    66  N   -0.801682
    67  O   -0.584264
    68  H    0.296016
    69  H    0.016290
    70  H    0.158030
    71  H    0.162688
    72  H    0.372000
    73  H    0.385009
    74  N   -0.178372
    75  C   -0.431624
    76  C    0.699669
    77  O   -0.555738
    78  H    0.268969
    79  H    0.197427
    80  H    0.153250
    81  N   -0.437439
    82  C   -0.102791
    83  C    0.511694
    84  O   -0.522082
    85  C   -0.031071
    86  C   -0.011784
    87  C   -0.155300
    88  C   -0.085876
    89  C   -0.240743
    90  C   -0.346043
    91  C    0.398167
    92  O   -0.557832
    93  H    0.287876
    94  H    0.107439
    95  H    0.058472
    96  H    0.056819
    97  H    0.139799
    98  H    0.125564
    99  H    0.157045
   100  H    0.145839
   101  H    0.417593
   102  N   -0.401692
   103  C   -0.006057
   104  C    0.567282
   105  O   -0.551185
   106  C   -0.190037
   107  C    0.384264
   108  C   -0.127567
   109  C   -0.434828
   110  H    0.254876
   111  H    0.119634
   112  H    0.079239
   113  H   -0.100412
   114  H   -0.023083
   115  H    0.071261
   116  H    0.090084
   117  H    0.060645
   118  H    0.118630
   119  H    0.125575
   120  H    0.077926
   121  N   -0.505230
   122  C    0.347575
   123  C    0.424111
   124  O   -0.521069
   125  C    0.147223
   126  O   -0.572292
   127  H    0.218320
   128  H    0.014136
   129  H    0.001216
   130  H    0.029554
   131  H    0.383321
   132  N   -0.592502
   133  C    0.274379
   134  C    0.540320
   135  O   -0.474402
   136  C   -0.388362
   137  H    0.319955
   138  H    0.029987
   139  H    0.093877
   140  H    0.116160
   141  H    0.125038
   142  N   -0.619083
   143  C    0.201885
   144  C    0.362661
   145  O   -0.494802
   146  C   -0.077324
   147  H    0.316634
   148  H    0.066083
   149  H    0.070419
   150  H    0.026749
   151  H    0.022036
   152  N   -0.342116
   153  C   -0.031703
   154  C    0.570544
   155  O   -0.541311
   156  C   -0.277560
   157  C    0.312387
   158  C    0.611674
   159  O   -0.725995
   160  O   -0.769641
   161  H    0.221115
   162  H    0.122597
   163  H    0.079212
   164  H    0.085907
   165  H   -0.129946
   166  H    0.023770
   167  N   -0.322498
   168  C   -0.184711
   169  H    0.090409
   170  H    0.111240
   171  H    0.092542
   172  H    0.227443
   173  Ca   1.596396
   174  O   -0.980666
   175  H    0.442095
   176  H    0.530489
 Sum of ESP charges =  -0.00000

 Normal termination of Gaussian 16 at Wed Sep 18 14:55:05 2019.
