 Gaussian 16, Revision A.03,
 Gaussian 16:  ES64L-G16RevA.03 25-Dec-2016

 ----------------------------------------------------------------------
 #b3lyp/svp scf=(tight,noincore) Test #IOP(5/87=12) Density=Current Pop
 =(MK,readradii) iop(6/33=2) iop(6/42=6)
 ----------------------------------------------------------------------

 ----------------
 Ng-31_loop3_28.0
 ----------------
 Symbolic Z-matrix:
 Charge =  0 Multiplicity = 1

                         Standard orientation:
 ---------------------------------------------------------------------
 Center     Atomic      Atomic             Coordinates (Angstroms)
 Number     Number       Type             X           Y           Z
 ---------------------------------------------------------------------
      1          6           0        8.766908    0.298616    3.715732
      2          6           0        7.487567    0.659487    2.957275
      3          8           0        6.453903    1.140741    3.426885
      4          1           0        9.493812   -0.123197    3.021589
      5          1           0        9.182316    1.195263    4.175448
      6          1           0        8.537232   -0.434289    4.489790
      7          7           0        7.629566    0.504352    1.647974
      8          6           0        6.610605    0.750151    0.643832
      9          6           0        5.702967   -0.423378    0.328833
     10          8           0        4.565836   -0.361908   -0.141119
     11          6           0        7.145999    1.308043   -0.671238
     12          6           0        8.372012    0.636281   -1.273921
     13          8           0        8.760985   -0.452584   -0.783541
     14          8           0        8.794298    1.147282   -2.334418
     15          1           0        8.460868    0.002791    1.371073
     16          1           0        5.921066    1.475751    1.079194
     17          1           0        7.500255    2.325638   -0.509060
     18          1           0        6.364475    1.413096   -1.423757
     19          7           0        6.155455   -1.609991    0.730832
     20          6           0        5.371133   -2.826692    0.646114
     21          6           0        5.052556   -3.282809   -0.766531
     22          8           0        5.861580   -3.105339   -1.666745
     23          6           0        5.810015   -3.931215    1.599273
     24          6           0        5.818789   -3.540307    3.086557
     25          6           0        5.828852   -4.783760    3.977972
     26          6           0        6.117468   -4.385177    5.423667
     27          7           0        4.947968   -3.766500    6.057786
     28          1           0        7.086117   -1.615864    1.134608
     29          1           0        4.420524   -2.505576    1.096811
     30          1           0        6.835127   -4.191160    1.343787
     31          1           0        5.229404   -4.839631    1.506689
     32          1           0        4.889592   -3.022220    3.306507
     33          1           0        6.663005   -2.879584    3.298560
     34          1           0        6.684503   -5.409567    3.733786
     35          1           0        4.824814   -5.179355    3.864781
     36          1           0        6.958897   -3.691638    5.514777
     37          1           0        6.388609   -5.307802    5.945344
     38          1           0        5.167851   -3.619365    7.030670
     39          1           0        4.686790   -2.876907    5.669187
     40          1           0        4.111260   -4.333193    5.949715
     41          7           0        3.884505   -3.910501   -0.951351
     42          6           0        3.265419   -4.229712   -2.225611
     43          6           0        2.355197   -3.134833   -2.745357
     44          8           0        1.543673   -3.414815   -3.626515
     45          6           0        2.610536   -5.592746   -2.036226
     46          6           0        1.445999   -5.664304   -1.056056
     47          8           0        1.525700   -5.506697    0.180151
     48          8           0        0.290733   -5.770451   -1.534693
     49          1           0        3.323315   -4.101661   -0.131703
     50          1           0        4.143795   -4.359874   -2.860207
     51          1           0        3.350150   -6.205901   -1.522405
     52          1           0        2.365755   -5.999959   -3.015440
     53          7           0        2.509005   -1.890663   -2.288757
     54          6           0        1.971122   -0.694555   -2.902930
     55          6           0        2.768928   -0.202467   -4.094674
     56          8           0        3.525647   -1.000133   -4.661160
     57          1           0        3.192499   -1.696138   -1.563502
     58          1           0        1.948002    0.077244   -2.137037
     59          1           0        0.947801   -0.830251   -3.271035
     60          7           0        2.548981    1.012085   -4.600327
     61          6           0        1.860165    2.166457   -4.059347
     62          6           0        2.727441    3.415286   -4.088588
     63          8           0        2.755555    4.062523   -5.136106
     64          6           0        0.518381    2.300822   -4.760391
     65          6           0       -0.367841    1.064374   -4.596660
     66          7           0       -0.540694    0.282960   -5.665872
     67          8           0       -0.923458    0.807582   -3.535223
     68          1           0        3.066909    1.249088   -5.442931
     69          1           0        1.623160    2.031162   -3.002880
     70          1           0        0.764190    2.494189   -5.804607
     71          1           0       -0.037285    3.158319   -4.409770
     72          1           0       -0.183613    0.593141   -6.560177
     73          1           0       -1.121707   -0.536347   -5.658158
     74          7           0        3.485407    3.761768   -3.043389
     75          6           0        3.707400    3.012986   -1.824888
     76          6           0        2.720711    3.119840   -0.675485
     77          8           0        2.439558    2.133533    0.006242
     78          1           0        4.072858    4.577506   -3.087788
     79          1           0        4.658305    3.378842   -1.418281
     80          1           0        3.936393    1.977490   -2.076504
     81          7           0        1.970987    4.214604   -0.526472
     82          6           0        0.704772    4.331504    0.172193
     83          6           0       -0.381487    3.746955   -0.716651
     84          8           0       -0.320495    3.715788   -1.935014
     85          6           0        0.378529    5.657453    0.847342
     86          6           0        1.221469    6.088896    2.032757
     87          6           0        1.398443    5.188871    3.086338
     88          6           0        1.904959    7.303359    2.037301
     89          6           0        2.357155    5.493808    4.053595
     90          6           0        2.796323    7.634131    3.061098
     91          6           0        3.050026    6.721683    4.102095
     92          8           0        3.888021    7.077965    5.124948
     93          1           0        2.189665    5.065191   -1.026054
     94          1           0        0.741259    3.598682    0.974963
     95          1           0       -0.657077    5.560758    1.168388
     96          1           0        0.429948    6.495784    0.150594
     97          1           0        0.883351    4.240888    2.987295
     98          1           0        1.756235    8.049572    1.268049
     99          1           0        2.638669    4.867331    4.894474
    100          1           0        3.184975    8.647511    3.071621
    101          1           0        4.195579    7.982163    5.074617
    102          7           0       -1.476323    3.294700   -0.087922
    103          6           0       -2.241625    2.220460   -0.681995
    104          6           0       -3.695337    2.549680   -1.018205
    105          8           0       -4.246993    1.759608   -1.774156
    106          6           0       -2.057118    0.905393    0.064367
    107          6           0       -0.596578    0.487062    0.148758
    108          6           0       -2.579248    1.096742    1.491520
    109          6           0       -0.439082   -1.032303    0.185167
    110          1           0       -1.506848    3.440222    0.909320
    111          1           0       -1.804248    1.974337   -1.658020
    112          1           0       -2.633782    0.131166   -0.438556
    113          1           0       -0.066306    0.991160    0.953305
    114          1           0       -0.115273    0.721783   -0.803635
    115          1           0       -2.122569    1.927450    2.041490
    116          1           0       -3.628314    1.393606    1.556577
    117          1           0       -2.361672    0.242400    2.119820
    118          1           0       -1.044981   -1.517165   -0.590910
    119          1           0        0.555388   -1.451052    0.018801
    120          1           0       -0.805369   -1.311447    1.167517
    121          7           0       -4.331835    3.575594   -0.444645
    122          6           0       -5.711385    3.875305   -0.792228
    123          6           0       -6.631764    3.007892    0.046519
    124          8           0       -6.582347    3.011936    1.281445
    125          6           0       -6.049858    5.320357   -0.444287
    126          8           0       -5.558764    6.237648   -1.406838
    127          1           0       -3.857719    4.138018    0.238065
    128          1           0       -5.815116    3.599775   -1.843999
    129          1           0       -5.622504    5.610975    0.515613
    130          1           0       -7.128475    5.468795   -0.389060
    131          1           0       -5.096496    6.917287   -0.912066
    132          7           0       -7.540925    2.261986   -0.596560
    133          6           0       -8.585389    1.525176    0.087768
    134          6           0       -8.419984    0.010733    0.127813
    135          8           0       -7.710886   -0.524498   -0.717887
    136          6           0       -9.919391    1.945732   -0.522535
    137          1           0       -7.486353    2.229039   -1.605984
    138          1           0       -8.530995    1.853576    1.120287
    139          1           0      -10.166996    3.005983   -0.456501
    140          1           0       -9.819640    1.691975   -1.578876
    141          1           0      -10.746301    1.379867   -0.102872
    142          7           0       -9.019741   -0.678785    1.100930
    143          6           0       -8.913981   -2.116135    1.193881
    144          6           0       -7.536137   -2.709066    1.447021
    145          8           0       -7.233526   -3.820195    1.027595
    146          6           0       -9.804271   -2.771159    0.139117
    147          1           0       -9.458171   -0.195629    1.868353
    148          1           0       -9.477245   -2.182123    2.123654
    149          1           0       -9.367034   -2.732447   -0.864639
    150          1           0       -9.937137   -3.805786    0.453590
    151          1           0      -10.825794   -2.382268    0.074665
    152          7           0       -6.718416   -1.955551    2.168719
    153          6           0       -5.323590   -2.291544    2.367137
    154          6           0       -4.762790   -2.030897    3.764980
    155          8           0       -3.755126   -2.617079    4.154214
    156          6           0       -4.457775   -1.636801    1.302348
    157          6           0       -4.582775   -2.136030   -0.143004
    158          6           0       -3.990790   -3.514473   -0.417497
    159          8           0       -2.953231   -3.861551    0.188151
    160          8           0       -4.360350   -4.228766   -1.369658
    161          1           0       -7.030192   -0.987825    2.197055
    162          1           0       -5.199451   -3.360202    2.168491
    163          1           0       -3.416471   -1.805135    1.547807
    164          1           0       -4.545321   -0.556949    1.323693
    165          1           0       -4.070965   -1.377580   -0.743008
    166          1           0       -5.613888   -2.134283   -0.487683
    167          7           0       -5.360048   -1.081750    4.494639
    168          6           0       -4.991571   -0.719598    5.843406
    169          1           0       -5.891919   -0.515155    6.422489
    170          1           0       -4.443008   -1.540782    6.303590
    171          1           0       -4.364080    0.171343    5.821888
    172          1           0       -6.204051   -0.690564    4.095851
    173         20           0       -2.347012   -5.964819   -1.199098
    174          8           0       -1.986936   -8.531934   -0.570000
    175          1           0       -2.538998   -8.989064    0.067229
    176          1           0       -1.733864   -9.205660   -1.198767
 ---------------------------------------------------------------------

 SCF Done:  E(RB3LYP) =  -5333.35746587     A.U. after   28 cycles

 The electronic state is 1-A.
 Alpha  occ. eigenvalues -- -145.46217 -19.23897 -19.16311 -19.13406 -19.10929
 Alpha  occ. eigenvalues --  -19.10002 -19.09525 -19.08726 -19.08353 -19.07596
 Alpha  occ. eigenvalues --  -19.07308 -19.07189 -19.06596 -19.06507 -19.06047
 Alpha  occ. eigenvalues --  -19.05727 -19.05264 -19.04419 -19.04019 -19.03453
 Alpha  occ. eigenvalues --  -19.03344 -19.02109 -18.95500 -18.94265 -15.52144
 Alpha  occ. eigenvalues --  -14.57401 -14.37873 -14.36152 -14.35761 -14.35578
 Alpha  occ. eigenvalues --  -14.35003 -14.34210 -14.34122 -14.33972 -14.32762
 Alpha  occ. eigenvalues --  -14.31937 -14.31148 -14.30835 -14.30269 -14.29556
 Alpha  occ. eigenvalues --  -12.65768 -12.65720 -12.65640 -10.34297 -10.29450
 Alpha  occ. eigenvalues --  -10.28538 -10.28525 -10.27399 -10.27085 -10.26770
 Alpha  occ. eigenvalues --  -10.26608 -10.26367 -10.26268 -10.25826 -10.25291
 Alpha  occ. eigenvalues --  -10.25063 -10.24906 -10.24738 -10.24711 -10.24440
 Alpha  occ. eigenvalues --  -10.23553 -10.23552 -10.23510 -10.23396 -10.23219
 Alpha  occ. eigenvalues --  -10.22846 -10.22697 -10.22410 -10.22326 -10.21806
 Alpha  occ. eigenvalues --  -10.21238 -10.20927 -10.20875 -10.20517 -10.20469
 Alpha  occ. eigenvalues --  -10.20461 -10.19742 -10.19422 -10.19199 -10.19161
 Alpha  occ. eigenvalues --  -10.19029 -10.18955 -10.18595 -10.18519 -10.17949
 Alpha  occ. eigenvalues --  -10.17643 -10.17508 -10.16496 -10.16102 -10.16004
 Alpha  occ. eigenvalues --  -10.15973 -10.15337 -10.14816 -10.14288 -10.13806
 Alpha  occ. eigenvalues --  -10.12846 -10.10432  -1.88699  -1.16360  -1.15951
 Alpha  occ. eigenvalues --   -1.15431  -1.12894  -1.09708  -1.04684  -1.04591
 Alpha  occ. eigenvalues --   -1.03106  -1.02669  -1.02358  -1.01749  -1.01614
 Alpha  occ. eigenvalues --   -1.01368  -1.00910  -1.00601  -1.00110  -0.99474
 Alpha  occ. eigenvalues --   -0.99005  -0.98380  -0.97658  -0.97355  -0.97198
 Alpha  occ. eigenvalues --   -0.95938  -0.94836  -0.92787  -0.92490  -0.91713
 Alpha  occ. eigenvalues --   -0.91161  -0.90922  -0.90820  -0.90210  -0.89990
 Alpha  occ. eigenvalues --   -0.89410  -0.88717  -0.88568  -0.88116  -0.87883
 Alpha  occ. eigenvalues --   -0.87309  -0.86972  -0.86400  -0.85396  -0.85205
 Alpha  occ. eigenvalues --   -0.80883  -0.80350  -0.79724  -0.79600  -0.78233
 Alpha  occ. eigenvalues --   -0.78129  -0.76678  -0.75902  -0.75551  -0.74779
 Alpha  occ. eigenvalues --   -0.74320  -0.73764  -0.73734  -0.73295  -0.72668
 Alpha  occ. eigenvalues --   -0.71475  -0.71061  -0.70575  -0.70031  -0.69213
 Alpha  occ. eigenvalues --   -0.69010  -0.68750  -0.68156  -0.67700  -0.67093
 Alpha  occ. eigenvalues --   -0.66288  -0.66180  -0.65542  -0.63925  -0.63032
 Alpha  occ. eigenvalues --   -0.62917  -0.62329  -0.61988  -0.61912  -0.61373
 Alpha  occ. eigenvalues --   -0.60811  -0.60040  -0.59837  -0.59401  -0.59151
 Alpha  occ. eigenvalues --   -0.58979  -0.58705  -0.58517  -0.58022  -0.57909
 Alpha  occ. eigenvalues --   -0.57300  -0.57023  -0.56707  -0.55995  -0.55368
 Alpha  occ. eigenvalues --   -0.55294  -0.55010  -0.54627  -0.54564  -0.54117
 Alpha  occ. eigenvalues --   -0.53594  -0.53437  -0.52672  -0.52510  -0.51708
 Alpha  occ. eigenvalues --   -0.51700  -0.51528  -0.51143  -0.50998  -0.50481
 Alpha  occ. eigenvalues --   -0.50446  -0.49881  -0.49771  -0.49666  -0.48997
 Alpha  occ. eigenvalues --   -0.48529  -0.48515  -0.48473  -0.48276  -0.47960
 Alpha  occ. eigenvalues --   -0.47580  -0.47234  -0.47111  -0.47074  -0.46864
 Alpha  occ. eigenvalues --   -0.46337  -0.46221  -0.46180  -0.45845  -0.45167
 Alpha  occ. eigenvalues --   -0.45111  -0.44978  -0.44699  -0.44666  -0.44379
 Alpha  occ. eigenvalues --   -0.44258  -0.43929  -0.43811  -0.43596  -0.43409
 Alpha  occ. eigenvalues --   -0.43190  -0.42989  -0.42844  -0.42706  -0.42603
 Alpha  occ. eigenvalues --   -0.42532  -0.42240  -0.42047  -0.41713  -0.41566
 Alpha  occ. eigenvalues --   -0.41512  -0.41443  -0.41322  -0.41227  -0.41207
 Alpha  occ. eigenvalues --   -0.41146  -0.40868  -0.40852  -0.40638  -0.40545
 Alpha  occ. eigenvalues --   -0.40444  -0.40289  -0.40060  -0.39940  -0.39814
 Alpha  occ. eigenvalues --   -0.39422  -0.39230  -0.39188  -0.38920  -0.38768
 Alpha  occ. eigenvalues --   -0.38646  -0.38565  -0.38480  -0.38445  -0.38277
 Alpha  occ. eigenvalues --   -0.38202  -0.38108  -0.37972  -0.37776  -0.37667
 Alpha  occ. eigenvalues --   -0.37533  -0.37328  -0.37224  -0.37052  -0.36987
 Alpha  occ. eigenvalues --   -0.36794  -0.36707  -0.36671  -0.36501  -0.36455
 Alpha  occ. eigenvalues --   -0.36264  -0.35972  -0.35808  -0.35601  -0.35183
 Alpha  occ. eigenvalues --   -0.35053  -0.34807  -0.34651  -0.34246  -0.34139
 Alpha  occ. eigenvalues --   -0.33949  -0.33911  -0.33680  -0.33446  -0.33356
 Alpha  occ. eigenvalues --   -0.33275  -0.33040  -0.32901  -0.32380  -0.32160
 Alpha  occ. eigenvalues --   -0.32086  -0.32061  -0.31661  -0.31475  -0.31052
 Alpha  occ. eigenvalues --   -0.31010  -0.30474  -0.30188  -0.30104  -0.29890
 Alpha  occ. eigenvalues --   -0.28998  -0.28258  -0.27759  -0.27367  -0.27028
 Alpha  occ. eigenvalues --   -0.26743  -0.26547  -0.26251  -0.25918  -0.25844
 Alpha  occ. eigenvalues --   -0.25744  -0.25575  -0.25357  -0.25044  -0.24979
 Alpha  occ. eigenvalues --   -0.24601  -0.24581  -0.24502  -0.24114  -0.23862
 Alpha  occ. eigenvalues --   -0.23684  -0.23510  -0.23489  -0.22879  -0.22524
 Alpha  occ. eigenvalues --   -0.22433  -0.22407  -0.22212  -0.22090  -0.21858
 Alpha  occ. eigenvalues --   -0.21421  -0.21350  -0.21033  -0.20934  -0.20406
 Alpha  occ. eigenvalues --   -0.20025  -0.19762  -0.19315  -0.18266  -0.17387
 Alpha  occ. eigenvalues --   -0.12440  -0.12264  -0.10520
 Alpha virt. eigenvalues --   -0.09446  -0.08208  -0.03813  -0.03120  -0.01754
 Alpha virt. eigenvalues --   -0.01682  -0.00750  -0.00725  -0.00145   0.00696
 Alpha virt. eigenvalues --    0.01343   0.01790   0.01937   0.02053   0.02130

 Mulliken charges:
               1
     1  C    0.058502
     2  C   -0.023168
     3  O   -0.305128
     4  H    0.017436
     5  H    0.043072
     6  H   -0.018481
     7  N   -0.134245
     8  C    0.160678
     9  C    0.083654
    10  O   -0.293359
    11  C    0.027144
    12  C    0.077060
    13  O   -0.408329
    14  O   -0.375501
    15  H    0.115155
    16  H    0.003181
    17  H   -0.023375
    18  H    0.010523
    19  N   -0.103029
    20  C    0.116129
    21  C    0.063315
    22  O   -0.233474
    23  C    0.062002
    24  C   -0.029282
    25  C   -0.019027
    26  C    0.034130
    27  N    0.087441
    28  H    0.096337
    29  H   -0.015658
    30  H    0.016332
    31  H    0.006758
    32  H   -0.014985
    33  H    0.018779
    34  H    0.049053
    35  H    0.040827
    36  H    0.073756
    37  H    0.065985
    38  H    0.173186
    39  H    0.185067
    40  H    0.177762
    41  N   -0.198512
    42  C    0.112065
    43  C    0.109039
    44  O   -0.291941
    45  C    0.131645
    46  C    0.070235
    47  O   -0.366401
    48  O   -0.488694
    49  H    0.101753
    50  H    0.039358
    51  H   -0.020551
    52  H   -0.005861
    53  N   -0.133532
    54  C    0.158741
    55  C    0.008357
    56  O   -0.252338
    57  H    0.143932
    58  H    0.037703
    59  H    0.051154
    60  N   -0.120803
    61  C    0.018127
    62  C    0.089879
    63  O   -0.272982
    64  C    0.149791
    65  C    0.006768
    66  N   -0.031982
    67  O   -0.254351
    68  H    0.125131
    69  H    0.041360
    70  H   -0.021780
    71  H    0.027232
    72  H    0.114974
    73  H    0.125811
    74  N   -0.106711
    75  C    0.124134
    76  C    0.064504
    77  O   -0.262352
    78  H    0.124689
    79  H    0.044921
    80  H    0.078327
    81  N   -0.112329
    82  C    0.087796
    83  C    0.065184
    84  O   -0.243135
    85  C    0.175570
    86  C   -0.013181
    87  C    0.024750
    88  C   -0.016952
    89  C   -0.011683
    90  C   -0.063502
    91  C    0.170151
    92  O   -0.196695
    93  H    0.099029
    94  H    0.006416
    95  H   -0.019705
    96  H   -0.014408
    97  H   -0.023050
    98  H   -0.035575
    99  H   -0.019383
   100  H   -0.041327
   101  H    0.176405
   102  N   -0.146535
   103  C    0.120309
   104  C    0.079235
   105  O   -0.277136
   106  C   -0.097115
   107  C    0.023004
   108  C    0.047855
   109  C    0.021055
   110  H    0.105063
   111  H    0.068122
   112  H    0.011028
   113  H   -0.001290
   114  H    0.017568
   115  H   -0.051931
   116  H    0.009070
   117  H    0.010860
   118  H    0.015282
   119  H    0.017965
   120  H   -0.007025
   121  N   -0.116286
   122  C    0.139840
   123  C    0.062833
   124  O   -0.315032
   125  C    0.217545
   126  O   -0.301980
   127  H    0.097591
   128  H    0.013367
   129  H   -0.002842
   130  H    0.000295
   131  H    0.162450
   132  N   -0.111209
   133  C    0.099903
   134  C    0.080374
   135  O   -0.241112
   136  C    0.053119
   137  H    0.131087
   138  H   -0.004166
   139  H    0.028646
   140  H    0.014279
   141  H    0.002164
   142  N   -0.175897
   143  C    0.064268
   144  C    0.081921
   145  O   -0.253265
   146  C    0.078059
   147  H    0.118206
   148  H   -0.010337
   149  H    0.050995
   150  H    0.016075
   151  H   -0.007720
   152  N   -0.135002
   153  C    0.122466
   154  C    0.067100
   155  O   -0.275977
   156  C    0.009327
   157  C    0.082789
   158  C    0.108325
   159  O   -0.445403
   160  O   -0.428600
   161  H    0.115199
   162  H    0.022820
   163  H    0.029869
   164  H   -0.024312
   165  H    0.043134
   166  H    0.022779
   167  N   -0.160421
   168  C    0.133425
   169  H    0.010416
   170  H    0.038445
   171  H    0.026934
   172  H    0.095786
   173  Ca   1.382590
   174  O   -0.307265
   175  H    0.195952
   176  H    0.199626
 Sum of Mulliken charges =  -0.00000

 Dipole moment (field-independent basis, Debye):
    X=            -21.5337    Y=            -14.9784    Z=             32.9364  Tot=             42.1053
 Quadrupole moment (field-independent basis, Debye-Ang):
   XX=           -619.7146   YY=           -324.9387   ZZ=           -447.6450
   XY=            -40.4117   XZ=            174.7500   YZ=            -55.0515

 ESP charges:
               1
     1  C   -0.507641
     2  C    0.593993
     3  O   -0.593654
     4  H    0.138985
     5  H    0.158025
     6  H    0.100409
     7  N   -0.226690
     8  C   -0.142974
     9  C    0.775944
    10  O   -0.594385
    11  C   -0.006406
    12  C    0.670623
    13  O   -0.686287
    14  O   -0.675711
    15  H    0.156123
    16  H    0.101959
    17  H   -0.033331
    18  H    0.031540
    19  N   -0.920416
    20  C    0.486628
    21  C    0.440444
    22  O   -0.451443
    23  C   -0.267131
    24  C    0.307343
    25  C   -0.263427
    26  C    0.077430
    27  N   -0.416274
    28  H    0.424287
    29  H   -0.011219
    30  H    0.066503
    31  H    0.043938
    32  H   -0.050153
    33  H   -0.064829
    34  H    0.110013
    35  H    0.100229
    36  H    0.098562
    37  H    0.067382
    38  H    0.318013
    39  H    0.331660
    40  H    0.347604
    41  N   -0.544196
    42  C    0.350226
    43  C    0.470211
    44  O   -0.551607
    45  C   -0.222099
    46  C    0.753077
    47  O   -0.684596
    48  O   -0.809682
    49  H    0.231540
    50  H    0.020257
    51  H    0.029021
    52  H    0.043536
    53  N   -0.465358
    54  C    0.270341
    55  C    0.524097
    56  O   -0.528511
    57  H    0.264103
    58  H    0.015720
    59  H    0.018411
    60  N   -0.618392
    61  C    0.640513
    62  C    0.361904
    63  O   -0.522382
    64  C   -0.554019
    65  C    0.858265
    66  N   -0.889801
    67  O   -0.604523
    68  H    0.315032
    69  H   -0.106412
    70  H    0.084395
    71  H    0.173135
    72  H    0.375776
    73  H    0.407588
    74  N   -0.422098
    75  C   -0.077065
    76  C    0.519712
    77  O   -0.530597
    78  H    0.321033
    79  H    0.098864
    80  H    0.111619
    81  N   -0.526546
    82  C    0.419262
    83  C    0.441609
    84  O   -0.503073
    85  C   -0.192906
    86  C    0.103907
    87  C   -0.236671
    88  C   -0.187751
    89  C   -0.162717
    90  C   -0.278988
    91  C    0.362583
    92  O   -0.559558
    93  H    0.266596
    94  H    0.029152
    95  H    0.047912
    96  H    0.044472
    97  H    0.140751
    98  H    0.145966
    99  H    0.138732
   100  H    0.132355
   101  H    0.417894
   102  N   -0.738830
   103  C    0.450188
   104  C    0.639252
   105  O   -0.585855
   106  C   -0.014977
   107  C    0.099746
   108  C   -0.515871
   109  C   -0.248890
   110  H    0.304213
   111  H   -0.033316
   112  H    0.071911
   113  H    0.018637
   114  H    0.039042
   115  H    0.085081
   116  H    0.097850
   117  H    0.165607
   118  H    0.097922
   119  H    0.051178
   120  H    0.055987
   121  N   -0.607579
   122  C    0.057626
   123  C    0.564739
   124  O   -0.575826
   125  C    0.228306
   126  O   -0.610875
   127  H    0.334286
   128  H    0.129226
   129  H    0.007943
   130  H    0.011226
   131  H    0.396611
   132  N   -0.595944
   133  C    0.376784
   134  C    0.579018
   135  O   -0.500540
   136  C   -0.403184
   137  H    0.302854
   138  H   -0.008202
   139  H    0.125498
   140  H    0.106412
   141  H    0.073495
   142  N   -0.554444
   143  C    0.157260
   144  C    0.597785
   145  O   -0.518725
   146  C   -0.307802
   147  H    0.300032
   148  H    0.059155
   149  H    0.119595
   150  H    0.070214
   151  H    0.092660
   152  N   -0.684644
   153  C    0.111667
   154  C    0.461982
   155  O   -0.521719
   156  C   -0.263259
   157  C    0.123233
   158  C    0.733319
   159  O   -0.797154
   160  O   -0.784014
   161  H    0.283918
   162  H    0.112861
   163  H    0.083884
   164  H    0.112153
   165  H   -0.009286
   166  H    0.029072
   167  N   -0.279907
   168  C   -0.122463
   169  H    0.065937
   170  H    0.096602
   171  H    0.072449
   172  H    0.252463
   173  Ca   1.632417
   174  O   -0.832000
   175  H    0.432058
   176  H    0.438263
 Sum of ESP charges =   0.00000

 Normal termination of Gaussian 16 at Wed Sep 18 14:55:13 2019.
