 Gaussian 16, Revision A.03,
 Gaussian 16:  ES64L-G16RevA.03 25-Dec-2016

 ----------------------------------------------------------------------
 #b3lyp/svp scf=(tight,noincore) Test #IOP(5/87=12) Density=Current Pop
 =(MK,readradii) iop(6/33=2) iop(6/42=6)
 ----------------------------------------------------------------------

 ----------------
 Ng-31_loop3_49.0
 ----------------
 Symbolic Z-matrix:
 Charge =  0 Multiplicity = 1

                         Standard orientation:
 ---------------------------------------------------------------------
 Center     Atomic      Atomic             Coordinates (Angstroms)
 Number     Number       Type             X           Y           Z
 ---------------------------------------------------------------------
      1          6           0        8.926316    0.197767    3.850869
      2          6           0        7.684801    0.212438    2.965587
      3          8           0        6.597207    0.159551    3.518167
      4          1           0        9.785316   -0.131868    3.265521
      5          1           0        9.112192    1.200894    4.234034
      6          1           0        8.771435   -0.487034    4.684007
      7          7           0        7.786710    0.435001    1.659724
      8          6           0        6.662134    0.647671    0.769836
      9          6           0        5.905908   -0.660785    0.594718
     10          8           0        4.709007   -0.580667    0.312036
     11          6           0        7.026761    1.225831   -0.594598
     12          6           0        7.991909    0.393982   -1.428514
     13          8           0        8.798800   -0.433074   -0.950702
     14          8           0        8.030353    0.709238   -2.640675
     15          1           0        8.667882    0.314908    1.174736
     16          1           0        5.953318    1.280527    1.294404
     17          1           0        7.481909    2.192216   -0.384265
     18          1           0        6.076965    1.377241   -1.113407
     19          7           0        6.473694   -1.862860    0.678590
     20          6           0        5.886225   -3.182597    0.720713
     21          6           0        5.067244   -3.446834   -0.536288
     22          8           0        5.669553   -3.254440   -1.593978
     23          6           0        6.954326   -4.256013    0.930801
     24          6           0        7.720712   -4.303254    2.247928
     25          6           0        6.770035   -4.312428    3.444435
     26          6           0        7.453726   -4.553409    4.776611
     27          7           0        6.470098   -4.587915    5.871273
     28          1           0        7.436430   -1.807394    0.974835
     29          1           0        5.167721   -3.192015    1.548580
     30          1           0        7.722274   -4.180465    0.162785
     31          1           0        6.497502   -5.228295    0.728369
     32          1           0        8.306291   -3.389722    2.281924
     33          1           0        8.404557   -5.147344    2.408455
     34          1           0        5.958288   -5.032179    3.393193
     35          1           0        6.302482   -3.325618    3.512267
     36          1           0        8.233781   -3.824965    5.004828
     37          1           0        7.933357   -5.528232    4.922813
     38          1           0        6.999448   -4.343447    6.697665
     39          1           0        5.739214   -3.889903    5.857541
     40          1           0        6.111597   -5.520549    6.048394
     41          7           0        3.778557   -3.775453   -0.485339
     42          6           0        3.011725   -3.979069   -1.698685
     43          6           0        2.514705   -2.697224   -2.353546
     44          8           0        1.815335   -2.769553   -3.353322
     45          6           0        2.030974   -5.144110   -1.713114
     46          6           0        0.993405   -5.142568   -0.590329
     47          8           0        1.391431   -5.374803    0.573863
     48          8           0       -0.194704   -4.810529   -0.784361
     49          1           0        3.311473   -3.853558    0.407876
     50          1           0        3.752679   -4.314080   -2.411815
     51          1           0        2.599323   -6.058691   -1.566416
     52          1           0        1.475291   -5.147972   -2.656619
     53          7           0        2.762435   -1.529905   -1.746096
     54          6           0        2.465216   -0.173977   -2.176700
     55          6           0        3.691715    0.414097   -2.857264
     56          8           0        4.592568   -0.352323   -3.162328
     57          1           0        3.337697   -1.547305   -0.915571
     58          1           0        2.208234    0.369636   -1.268489
     59          1           0        1.623070   -0.028732   -2.854486
     60          7           0        3.833488    1.726215   -3.100876
     61          6           0        2.894108    2.823819   -3.063081
     62          6           0        3.575221    4.080540   -2.524808
     63          8           0        3.526188    5.058539   -3.260820
     64          6           0        2.384235    3.071793   -4.479746
     65          6           0        1.817855    1.831625   -5.171192
     66          7           0        2.598051    1.239580   -6.080520
     67          8           0        0.712710    1.359001   -4.935650
     68          1           0        4.765049    1.986716   -3.379685
     69          1           0        2.071307    2.665320   -2.368619
     70          1           0        3.140516    3.469150   -5.149258
     71          1           0        1.535150    3.760503   -4.398917
     72          1           0        3.548659    1.498151   -6.306099
     73          1           0        2.162896    0.390846   -6.413972
     74          7           0        4.107591    4.206101   -1.305539
     75          6           0        4.020253    3.339146   -0.148491
     76          6           0        2.648106    3.208292    0.488054
     77          8           0        2.385839    2.281857    1.247155
     78          1           0        4.413644    5.142878   -1.072987
     79          1           0        4.771954    3.565578    0.597682
     80          1           0        4.230330    2.303377   -0.434061
     81          7           0        1.793976    4.178505    0.145055
     82          6           0        0.387501    4.090858    0.464813
     83          6           0       -0.319795    3.056282   -0.394188
     84          8           0       -0.268275    3.065293   -1.629650
     85          6           0       -0.279257    5.458703    0.369767
     86          6           0        0.024106    6.380198    1.527013
     87          6           0       -0.076691    5.931719    2.854344
     88          6           0        0.406248    7.711596    1.310806
     89          6           0        0.199744    6.722222    3.971388
     90          6           0        0.655406    8.567443    2.394894
     91          6           0        0.498727    8.075260    3.703064
     92          8           0        0.982198    8.860582    4.708264
     93          1           0        2.137429    4.975125   -0.377282
     94          1           0        0.314579    3.809431    1.517705
     95          1           0       -1.350705    5.281025    0.288338
     96          1           0       -0.082576    5.998354   -0.552726
     97          1           0       -0.404180    4.916825    3.039928
     98          1           0        0.546517    8.087674    0.304879
     99          1           0        0.211774    6.294648    4.958523
    100          1           0        0.869339    9.619436    2.288862
    101          1           0        1.236550    9.709193    4.332413
    102          7           0       -1.069089    2.150930    0.239371
    103          6           0       -1.734740    0.974255   -0.286504
    104          6           0       -3.155982    1.235589   -0.797946
    105          8           0       -3.833945    0.335577   -1.271809
    106          6           0       -1.939134   -0.071656    0.800738
    107          6           0       -0.604467   -0.741914    1.140468
    108          6           0       -2.506072    0.398718    2.132815
    109          6           0        0.061262   -1.527220    0.024627
    110          1           0       -1.006871    2.281822    1.236314
    111          1           0       -1.076298    0.650346   -1.097452
    112          1           0       -2.631002   -0.859729    0.508745
    113          1           0       -0.706289   -1.540910    1.876836
    114          1           0        0.069233    0.027304    1.528453
    115          1           0       -1.857626    1.126363    2.610989
    116          1           0       -3.504401    0.825719    2.024608
    117          1           0       -2.649226   -0.455096    2.806840
    118          1           0        0.401248   -0.834711   -0.740710
    119          1           0        0.850050   -2.065723    0.549440
    120          1           0       -0.684896   -2.194272   -0.416385
    121          7           0       -3.538253    2.513194   -0.697484
    122          6           0       -4.801225    2.999506   -1.197286
    123          6           0       -6.085515    2.455600   -0.584614
    124          8           0       -6.009258    2.044953    0.568015
    125          6           0       -4.941684    4.507420   -0.949564
    126          8           0       -3.819219    5.326510   -1.201283
    127          1           0       -2.817580    3.148921   -0.361206
    128          1           0       -4.793275    2.827350   -2.273436
    129          1           0       -5.204554    4.643570    0.096267
    130          1           0       -5.721860    4.898118   -1.595536
    131          1           0       -3.689523    5.999828   -0.531938
    132          7           0       -7.202722    2.270767   -1.288663
    133          6           0       -8.494827    1.845667   -0.804147
    134          6           0       -8.637893    0.331900   -0.837909
    135          8           0       -7.850297   -0.406504   -1.424554
    136          6           0       -9.615075    2.552219   -1.564955
    137          1           0       -7.134297    2.682211   -2.207483
    138          1           0       -8.589903    2.177989    0.233842
    139          1           0       -9.728711    2.163502   -2.575394
    140          1           0      -10.567625    2.408779   -1.063983
    141          1           0       -9.432418    3.612618   -1.734636
    142          7           0       -9.538394   -0.031071    0.079833
    143          6           0       -9.959046   -1.386161    0.384106
    144          6           0       -8.867517   -2.377599    0.761618
    145          8           0       -8.975094   -3.581727    0.523495
    146          6           0      -10.900409   -1.921482   -0.696157
    147          1           0       -9.973093    0.700920    0.622627
    148          1           0      -10.523194   -1.386369    1.314878
    149          1           0      -11.851733   -1.404667   -0.765326
    150          1           0      -10.426887   -1.893643   -1.676158
    151          1           0      -11.161348   -2.951928   -0.444776
    152          7           0       -7.878352   -1.864984    1.493314
    153          6           0       -6.684933   -2.571713    1.889779
    154          6           0       -6.430447   -2.528953    3.393344
    155          8           0       -5.711626   -3.398946    3.871055
    156          6           0       -5.508142   -2.179305    1.001984
    157          6           0       -4.492686   -3.321267    1.010504
    158          6           0       -4.882808   -4.578126    0.255382
    159          8           0       -5.707380   -5.384597    0.731601
    160          8           0       -4.467639   -4.821453   -0.901436
    161          1           0       -7.941274   -0.879359    1.709379
    162          1           0       -7.024235   -3.608260    1.778224
    163          1           0       -5.002670   -1.251095    1.283099
    164          1           0       -5.912788   -2.129487   -0.008649
    165          1           0       -4.143838   -3.657138    1.985643
    166          1           0       -3.539723   -2.955391    0.637683
    167          7           0       -6.914708   -1.593484    4.216745
    168          6           0       -6.314610   -1.374142    5.520382
    169          1           0       -6.847717   -1.960215    6.268510
    170          1           0       -5.268670   -1.681428    5.496414
    171          1           0       -6.377484   -0.316044    5.776631
    172          1           0       -7.530060   -0.907918    3.800523
    173         20           0       -2.361972   -4.851993   -2.249670
    174          8           0       -0.817274   -6.788373   -3.240850
    175          1           0        0.087608   -7.079668   -3.101797
    176          1           0       -1.214915   -7.490065   -3.747713
 ---------------------------------------------------------------------

 SCF Done:  E(RB3LYP) =  -5333.30415667     A.U. after   26 cycles

 The electronic state is 1-A.
 Alpha  occ. eigenvalues -- -145.48131 -19.21929 -19.16790 -19.14636 -19.10323
 Alpha  occ. eigenvalues --  -19.09518 -19.09481 -19.09372 -19.08383 -19.08121
 Alpha  occ. eigenvalues --  -19.07149 -19.07001 -19.06172 -19.05999 -19.05709
 Alpha  occ. eigenvalues --  -19.05679 -19.05577 -19.05245 -19.04452 -19.03961
 Alpha  occ. eigenvalues --  -19.02338 -19.01061 -18.97219 -18.95266 -15.54014
 Alpha  occ. eigenvalues --  -14.57223 -14.36709 -14.36472 -14.35837 -14.35768
 Alpha  occ. eigenvalues --  -14.35371 -14.34650 -14.33621 -14.33124 -14.32858
 Alpha  occ. eigenvalues --  -14.32430 -14.32155 -14.31722 -14.31557 -14.29678
 Alpha  occ. eigenvalues --  -12.67633 -12.67608 -12.67511 -10.34235 -10.28752
 Alpha  occ. eigenvalues --  -10.28622 -10.28166 -10.27886 -10.27309 -10.26735
 Alpha  occ. eigenvalues --  -10.26304 -10.26144 -10.26094 -10.25985 -10.25279
 Alpha  occ. eigenvalues --  -10.25027 -10.24984 -10.24907 -10.24825 -10.24613
 Alpha  occ. eigenvalues --  -10.24146 -10.24085 -10.23464 -10.23442 -10.23352
 Alpha  occ. eigenvalues --  -10.23324 -10.23214 -10.22919 -10.22278 -10.22110
 Alpha  occ. eigenvalues --  -10.22012 -10.21742 -10.21051 -10.20930 -10.20763
 Alpha  occ. eigenvalues --  -10.20573 -10.20387 -10.20327 -10.20244 -10.20122
 Alpha  occ. eigenvalues --  -10.19966 -10.19812 -10.19289 -10.19130 -10.18923
 Alpha  occ. eigenvalues --  -10.18550 -10.17464 -10.17040 -10.16743 -10.16282
 Alpha  occ. eigenvalues --  -10.16174 -10.16117 -10.15834 -10.14904 -10.13979
 Alpha  occ. eigenvalues --  -10.13617 -10.12876  -1.90505  -1.18101  -1.17822
 Alpha  occ. eigenvalues --   -1.17144  -1.12808  -1.07805  -1.05785  -1.03704
 Alpha  occ. eigenvalues --   -1.03051  -1.02807  -1.02357  -1.02199  -1.01723
 Alpha  occ. eigenvalues --   -1.00995  -1.00824  -1.00334  -0.99874  -0.99646
 Alpha  occ. eigenvalues --   -0.98915  -0.98745  -0.98457  -0.98114  -0.97903
 Alpha  occ. eigenvalues --   -0.97201  -0.93610  -0.93183  -0.93023  -0.92843
 Alpha  occ. eigenvalues --   -0.91125  -0.91050  -0.90897  -0.90301  -0.89919
 Alpha  occ. eigenvalues --   -0.89240  -0.88912  -0.88792  -0.88749  -0.87934
 Alpha  occ. eigenvalues --   -0.87632  -0.86568  -0.86186  -0.85971  -0.85890
 Alpha  occ. eigenvalues --   -0.80944  -0.80877  -0.80584  -0.80461  -0.79389
 Alpha  occ. eigenvalues --   -0.77745  -0.76332  -0.76021  -0.75672  -0.75006
 Alpha  occ. eigenvalues --   -0.74709  -0.74572  -0.74467  -0.74185  -0.72412
 Alpha  occ. eigenvalues --   -0.72365  -0.71392  -0.71227  -0.70589  -0.70506
 Alpha  occ. eigenvalues --   -0.70054  -0.69397  -0.67970  -0.67464  -0.67220
 Alpha  occ. eigenvalues --   -0.66646  -0.66160  -0.65362  -0.63891  -0.63596
 Alpha  occ. eigenvalues --   -0.63076  -0.62469  -0.61075  -0.61053  -0.61000
 Alpha  occ. eigenvalues --   -0.60886  -0.60270  -0.60088  -0.59703  -0.59283
 Alpha  occ. eigenvalues --   -0.58747  -0.58586  -0.58249  -0.58017  -0.57888
 Alpha  occ. eigenvalues --   -0.56761  -0.56656  -0.56479  -0.56118  -0.56106
 Alpha  occ. eigenvalues --   -0.55710  -0.55596  -0.55470  -0.55224  -0.55007
 Alpha  occ. eigenvalues --   -0.54823  -0.53565  -0.52833  -0.52612  -0.52323
 Alpha  occ. eigenvalues --   -0.52152  -0.51671  -0.51598  -0.51105  -0.50925
 Alpha  occ. eigenvalues --   -0.50724  -0.50113  -0.50061  -0.49705  -0.49095
 Alpha  occ. eigenvalues --   -0.49061  -0.48876  -0.48613  -0.48167  -0.48085
 Alpha  occ. eigenvalues --   -0.47715  -0.47643  -0.47331  -0.47304  -0.46864
 Alpha  occ. eigenvalues --   -0.46718  -0.46520  -0.45983  -0.45932  -0.45692
 Alpha  occ. eigenvalues --   -0.45226  -0.45087  -0.45072  -0.44906  -0.44812
 Alpha  occ. eigenvalues --   -0.44626  -0.44461  -0.44159  -0.43981  -0.43917
 Alpha  occ. eigenvalues --   -0.43730  -0.43511  -0.43342  -0.43039  -0.42803
 Alpha  occ. eigenvalues --   -0.42539  -0.42443  -0.42396  -0.42243  -0.42108
 Alpha  occ. eigenvalues --   -0.41793  -0.41742  -0.41585  -0.41531  -0.41265
 Alpha  occ. eigenvalues --   -0.41100  -0.40984  -0.40790  -0.40635  -0.40525
 Alpha  occ. eigenvalues --   -0.40450  -0.40272  -0.40065  -0.39915  -0.39845
 Alpha  occ. eigenvalues --   -0.39657  -0.39508  -0.39458  -0.39380  -0.39293
 Alpha  occ. eigenvalues --   -0.38986  -0.38803  -0.38680  -0.38533  -0.38508
 Alpha  occ. eigenvalues --   -0.38281  -0.38159  -0.38052  -0.37823  -0.37655
 Alpha  occ. eigenvalues --   -0.37597  -0.37476  -0.37212  -0.37173  -0.36854
 Alpha  occ. eigenvalues --   -0.36757  -0.36730  -0.36483  -0.36391  -0.36344
 Alpha  occ. eigenvalues --   -0.36260  -0.36095  -0.36044  -0.35877  -0.35412
 Alpha  occ. eigenvalues --   -0.35313  -0.35241  -0.35207  -0.35143  -0.35030
 Alpha  occ. eigenvalues --   -0.34938  -0.34586  -0.34290  -0.34204  -0.34122
 Alpha  occ. eigenvalues --   -0.34012  -0.33980  -0.33820  -0.33662  -0.33530
 Alpha  occ. eigenvalues --   -0.33148  -0.32257  -0.32012  -0.32011  -0.31659
 Alpha  occ. eigenvalues --   -0.31522  -0.31305  -0.30956  -0.30512  -0.30093
 Alpha  occ. eigenvalues --   -0.29408  -0.29154  -0.27979  -0.27703  -0.27568
 Alpha  occ. eigenvalues --   -0.27436  -0.27084  -0.27047  -0.27003  -0.26576
 Alpha  occ. eigenvalues --   -0.26054  -0.25369  -0.25254  -0.24834  -0.24752
 Alpha  occ. eigenvalues --   -0.24669  -0.24525  -0.24308  -0.23780  -0.23652
 Alpha  occ. eigenvalues --   -0.23560  -0.23336  -0.23164  -0.23028  -0.23009
 Alpha  occ. eigenvalues --   -0.22781  -0.22046  -0.21727  -0.21665  -0.21579
 Alpha  occ. eigenvalues --   -0.21525  -0.21114  -0.20963  -0.20816  -0.20452
 Alpha  occ. eigenvalues --   -0.20242  -0.19938  -0.19651  -0.18371  -0.16638
 Alpha  occ. eigenvalues --   -0.14424  -0.13481  -0.11142
 Alpha virt. eigenvalues --   -0.09975  -0.09603  -0.04764  -0.03234  -0.02875
 Alpha virt. eigenvalues --   -0.01920  -0.01331  -0.00621  -0.00398   0.00393
 Alpha virt. eigenvalues --    0.01165   0.01832   0.02020   0.02159   0.02535

 Mulliken charges:
               1
     1  C    0.081670
     2  C   -0.025187
     3  O   -0.312589
     4  H    0.006605
     5  H    0.046050
     6  H   -0.022745
     7  N   -0.133041
     8  C    0.130575
     9  C    0.064247
    10  O   -0.312921
    11  C    0.054258
    12  C    0.075236
    13  O   -0.388711
    14  O   -0.364874
    15  H    0.105906
    16  H   -0.006151
    17  H   -0.005126
    18  H    0.014131
    19  N   -0.059959
    20  C    0.147759
    21  C    0.034467
    22  O   -0.248844
    23  C    0.034411
    24  C    0.052635
    25  C   -0.068462
    26  C    0.035132
    27  N    0.092217
    28  H    0.097971
    29  H   -0.045118
    30  H    0.050979
    31  H    0.005267
    32  H    0.017518
    33  H    0.008796
    34  H    0.017590
    35  H    0.062796
    36  H    0.071347
    37  H    0.042664
    38  H    0.159857
    39  H    0.185276
    40  H    0.178291
    41  N   -0.139586
    42  C    0.120696
    43  C    0.075295
    44  O   -0.303816
    45  C    0.097441
    46  C    0.092971
    47  O   -0.370288
    48  O   -0.468139
    49  H    0.121765
    50  H    0.026556
    51  H   -0.018629
    52  H   -0.041214
    53  N   -0.129687
    54  C    0.146624
    55  C    0.019970
    56  O   -0.215848
    57  H    0.134487
    58  H    0.028629
    59  H    0.049907
    60  N   -0.142579
    61  C    0.020421
    62  C    0.031712
    63  O   -0.257067
    64  C    0.194780
    65  C   -0.027769
    66  N   -0.047855
    67  O   -0.267648
    68  H    0.134941
    69  H    0.041547
    70  H   -0.015288
    71  H    0.014828
    72  H    0.123766
    73  H    0.125869
    74  N   -0.118876
    75  C    0.166223
    76  C    0.012268
    77  O   -0.259414
    78  H    0.124075
    79  H    0.051581
    80  H    0.069776
    81  N   -0.118540
    82  C    0.099075
    83  C    0.062715
    84  O   -0.272186
    85  C    0.162768
    86  C   -0.004712
    87  C   -0.022624
    88  C   -0.023907
    89  C   -0.013236
    90  C   -0.032026
    91  C    0.155503
    92  O   -0.196762
    93  H    0.123963
    94  H   -0.007258
    95  H   -0.024845
    96  H    0.005012
    97  H   -0.026559
    98  H   -0.024961
    99  H   -0.017736
   100  H   -0.034034
   101  H    0.169171
   102  N   -0.159932
   103  C    0.171069
   104  C    0.085443
   105  O   -0.261104
   106  C   -0.130184
   107  C   -0.015625
   108  C    0.041750
   109  C    0.064014
   110  H    0.124306
   111  H    0.042036
   112  H    0.023149
   113  H   -0.003135
   114  H   -0.010749
   115  H   -0.020943
   116  H    0.024669
   117  H    0.018437
   118  H    0.013085
   119  H    0.024517
   120  H   -0.029442
   121  N   -0.101731
   122  C    0.120814
   123  C    0.033286
   124  O   -0.290620
   125  C    0.220390
   126  O   -0.305712
   127  H    0.127958
   128  H    0.006858
   129  H   -0.005439
   130  H   -0.009231
   131  H    0.181357
   132  N   -0.067084
   133  C    0.028686
   134  C    0.120191
   135  O   -0.226844
   136  C    0.060201
   137  H    0.111418
   138  H    0.006627
   139  H    0.016118
   140  H    0.009915
   141  H    0.020425
   142  N   -0.147544
   143  C    0.035040
   144  C    0.071921
   145  O   -0.248904
   146  C    0.078052
   147  H    0.120050
   148  H    0.014915
   149  H   -0.016928
   150  H    0.028375
   151  H    0.031090
   152  N   -0.154005
   153  C    0.109123
   154  C    0.025518
   155  O   -0.273385
   156  C    0.103365
   157  C    0.063091
   158  C    0.097269
   159  O   -0.300846
   160  O   -0.515878
   161  H    0.097726
   162  H    0.060203
   163  H    0.001795
   164  H    0.032659
   165  H    0.017483
   166  H   -0.072027
   167  N   -0.148821
   168  C    0.140537
   169  H    0.023451
   170  H    0.037393
   171  H    0.001993
   172  H    0.087850
   173  Ca   1.419141
   174  O   -0.313647
   175  H    0.212033
   176  H    0.181796
 Sum of Mulliken charges =  -0.00000

 Dipole moment (field-independent basis, Debye):
    X=             -1.6913    Y=             -3.4378    Z=             21.1674  Tot=             21.5113
 Quadrupole moment (field-independent basis, Debye-Ang):
   XX=           -556.6088   YY=           -410.4632   ZZ=           -432.8485
   XY=           -191.8946   XZ=            225.5475   YZ=            -13.5617

 ESP charges:
               1
     1  C   -0.466293
     2  C    0.724645
     3  O   -0.620080
     4  H    0.096626
     5  H    0.146440
     6  H    0.100135
     7  N   -0.562312
     8  C    0.277837
     9  C    0.520768
    10  O   -0.597606
    11  C   -0.360525
    12  C    0.795912
    13  O   -0.719589
    14  O   -0.676861
    15  H    0.271241
    16  H    0.031300
    17  H    0.069090
    18  H    0.112980
    19  N   -0.281300
    20  C   -0.134398
    21  C    0.712849
    22  O   -0.535171
    23  C   -0.144980
    24  C    0.015739
    25  C   -0.158713
    26  C    0.235475
    27  N   -0.410596
    28  H    0.232473
    29  H    0.087683
    30  H    0.113312
    31  H    0.057044
    32  H    0.033117
    33  H    0.022093
    34  H    0.073472
    35  H    0.042142
    36  H    0.031044
    37  H    0.029003
    38  H    0.296487
    39  H    0.339188
    40  H    0.322660
    41  N   -0.674410
    42  C    0.363980
    43  C    0.448370
    44  O   -0.588270
    45  C   -0.419192
    46  C    0.806459
    47  O   -0.659110
    48  O   -0.844834
    49  H    0.310056
    50  H    0.057481
    51  H    0.096413
    52  H    0.061437
    53  N   -0.452690
    54  C    0.426179
    55  C    0.424284
    56  O   -0.441113
    57  H    0.225120
    58  H    0.045502
    59  H   -0.017544
    60  N   -0.682834
    61  C    0.731682
    62  C    0.468916
    63  O   -0.562781
    64  C   -0.427015
    65  C    0.733750
    66  N   -0.850906
    67  O   -0.577574
    68  H    0.308326
    69  H   -0.200154
    70  H    0.098253
    71  H    0.100994
    72  H    0.396410
    73  H    0.376343
    74  N   -0.485091
    75  C   -0.073165
    76  C    0.528143
    77  O   -0.518381
    78  H    0.310237
    79  H    0.135247
    80  H    0.004731
    81  N   -0.470658
    82  C    0.057237
    83  C    0.619904
    84  O   -0.539448
    85  C   -0.274559
    86  C    0.215849
    87  C   -0.298440
    88  C   -0.246540
    89  C   -0.108552
    90  C   -0.195257
    91  C    0.238513
    92  O   -0.513758
    93  H    0.305576
    94  H    0.099844
    95  H    0.059768
    96  H    0.111268
    97  H    0.144987
    98  H    0.154640
    99  H    0.150214
   100  H    0.125151
   101  H    0.398143
   102  N   -0.102259
   103  C   -0.832969
   104  C    0.893544
   105  O   -0.636696
   106  C    0.780799
   107  C   -0.341749
   108  C   -0.462790
   109  C    0.307560
   110  H    0.138811
   111  H    0.287563
   112  H   -0.132137
   113  H    0.040361
   114  H    0.034286
   115  H    0.081266
   116  H    0.083716
   117  H    0.126125
   118  H   -0.157334
   119  H    0.041726
   120  H   -0.094039
   121  N   -0.564628
   122  C    0.407685
   123  C    0.388027
   124  O   -0.524670
   125  C    0.250432
   126  O   -0.614081
   127  H    0.215821
   128  H   -0.009857
   129  H   -0.018850
   130  H   -0.025606
   131  H    0.400282
   132  N   -0.617823
   133  C    0.372678
   134  C    0.502804
   135  O   -0.470032
   136  C   -0.357135
   137  H    0.304459
   138  H    0.018270
   139  H    0.105198
   140  H    0.073346
   141  H    0.098901
   142  N   -0.535661
   143  C    0.157321
   144  C    0.649604
   145  O   -0.502973
   146  C   -0.297602
   147  H    0.295515
   148  H    0.054105
   149  H    0.074138
   150  H    0.100458
   151  H    0.078149
   152  N   -0.778614
   153  C    0.082637
   154  C    0.513491
   155  O   -0.529865
   156  C    0.486335
   157  C   -0.894286
   158  C    0.926874
   159  O   -0.620270
   160  O   -0.872072
   161  H    0.279242
   162  H    0.140377
   163  H   -0.071880
   164  H    0.060785
   165  H    0.207192
   166  H    0.174479
   167  N   -0.351964
   168  C   -0.117162
   169  H    0.076228
   170  H    0.092919
   171  H    0.066745
   172  H    0.261645
   173  Ca   1.640949
   174  O   -0.855101
   175  H    0.438169
   176  H    0.439631
 Sum of ESP charges =   0.00000

 Normal termination of Gaussian 16 at Wed Sep 18 19:55:25 2019.
