 Gaussian 16, Revision A.03,
 Gaussian 16:  ES64L-G16RevA.03 25-Dec-2016

 ----------------------------------------------------------------------
 #b3lyp/svp scf=(tight,noincore) Test #IOP(5/87=12) Density=Current Pop
 =(MK,readradii) iop(6/33=2) iop(6/42=6)
 ----------------------------------------------------------------------

 -----------------
 CaMKII_loop3_57.0
 -----------------
 Symbolic Z-matrix:
 Charge =  0 Multiplicity = 1

                         Standard orientation:
 ---------------------------------------------------------------------
 Center     Atomic      Atomic             Coordinates (Angstroms)
 Number     Number       Type             X           Y           Z
 ---------------------------------------------------------------------
      1          6           0        2.672111    2.826519    4.226380
      2          6           0        1.722480    2.697696    3.046504
      3          8           0        2.199755    2.708706    1.916510
      4          1           0        3.495355    2.122356    4.108150
      5          1           0        3.066326    3.841532    4.266685
      6          1           0        2.136338    2.606971    5.150306
      7          7           0        0.391801    2.716111    3.174383
      8          6           0       -0.551397    2.627249    2.085401
      9          6           0       -1.050610    4.001093    1.660854
     10          8           0       -2.154873    4.464880    1.952067
     11          6           0       -1.724835    1.741701    2.512658
     12          6           0       -2.531435    1.362177    1.279955
     13          8           0       -2.022486    1.478245    0.142238
     14          8           0       -3.738050    1.093001    1.461681
     15          1           0        0.012272    2.887895    4.097177
     16          1           0       -0.077626    2.170358    1.218573
     17          1           0       -2.345641    2.312936    3.205400
     18          1           0       -1.368311    0.846526    3.010806
     19          7           0       -0.161466    4.554399    0.830990
     20          6           0       -0.316428    5.908474    0.319260
     21          6           0       -1.389373    5.934544   -0.748359
     22          8           0       -2.183800    6.874917   -0.666595
     23          6           0        1.016775    6.466531   -0.165656
     24          6           0        2.134344    6.740045    0.848508
     25          6           0        3.319705    7.592256    0.392157
     26          6           0        4.548692    7.420156    1.278595
     27          7           0        4.323205    7.726910    2.701043
     28          1           0        0.661769    4.014428    0.590957
     29          1           0       -0.678159    6.465537    1.182528
     30          1           0        0.815328    7.383735   -0.725169
     31          1           0        1.399753    5.825208   -0.961478
     32          1           0        2.482209    5.763716    1.178314
     33          1           0        1.810377    7.214161    1.774175
     34          1           0        3.029289    8.641402    0.408035
     35          1           0        3.609508    7.242076   -0.593282
     36          1           0        5.352228    8.092521    0.992142
     37          1           0        4.957176    6.415774    1.125763
     38          1           0        3.834399    6.958536    3.140554
     39          1           0        5.279755    7.777860    3.031220
     40          1           0        3.830508    8.611572    2.705633
     41          7           0       -1.454699    4.983012   -1.685226
     42          6           0       -2.574832    4.926117   -2.611813
     43          6           0       -3.844775    4.463570   -1.914822
     44          8           0       -4.961405    4.716606   -2.353013
     45          6           0       -2.202475    3.892262   -3.663380
     46          6           0       -1.661420    2.584205   -3.104589
     47          8           0       -2.525712    1.689567   -3.035168
     48          8           0       -0.455857    2.378316   -2.838642
     49          1           0       -0.691808    4.345880   -1.811161
     50          1           0       -2.726182    5.894892   -3.093027
     51          1           0       -1.508335    4.332697   -4.368211
     52          1           0       -3.052392    3.643610   -4.290447
     53          7           0       -3.813310    3.947243   -0.677884
     54          6           0       -5.020504    3.766778    0.099686
     55          6           0       -5.964448    2.668092   -0.382455
     56          8           0       -7.167032    2.739734   -0.118715
     57          1           0       -2.921630    3.806272   -0.233435
     58          1           0       -5.538041    4.724454    0.141046
     59          1           0       -4.840943    3.640917    1.169881
     60          7           0       -5.461999    1.704530   -1.148479
     61          6           0       -6.218681    0.546361   -1.568212
     62          6           0       -6.538500   -0.403971   -0.424759
     63          8           0       -7.155224   -1.452395   -0.655105
     64          6           0       -5.540775   -0.051797   -2.794446
     65          6           0       -4.542349   -1.171185   -2.532498
     66          7           0       -4.921747   -2.346497   -3.049507
     67          8           0       -3.560323   -1.116493   -1.800903
     68          1           0       -4.493681    1.825618   -1.395659
     69          1           0       -7.182811    0.935814   -1.907742
     70          1           0       -5.037149    0.664842   -3.436699
     71          1           0       -6.273346   -0.489789   -3.482998
     72          1           0       -5.805071   -2.574167   -3.463398
     73          1           0       -4.200150   -3.044525   -2.930112
     74          7           0       -6.165556   -0.087083    0.818863
     75          6           0       -6.309634   -0.925450    1.991970
     76          6           0       -5.211107   -1.970817    2.065768
     77          8           0       -5.311157   -2.850926    2.916355
     78          1           0       -5.811290    0.856421    0.876270
     79          1           0       -7.287191   -1.409530    2.015428
     80          1           0       -6.291160   -0.314696    2.904844
     81          7           0       -4.126972   -1.935390    1.283658
     82          6           0       -3.078751   -2.924482    1.385783
     83          6           0       -1.678245   -2.356385    1.222845
     84          8           0       -1.352319   -1.534570    0.363198
     85          6           0       -3.323723   -4.022729    0.357804
     86          6           0       -4.540529   -4.913128    0.463509
     87          6           0       -4.586170   -6.024836    1.313051
     88          6           0       -5.696599   -4.498218   -0.200384
     89          6           0       -5.689958   -6.880891    1.222930
     90          6           0       -6.848474   -5.286550   -0.291571
     91          6           0       -6.813300   -6.457118    0.490115
     92          8           0       -7.895363   -7.289688    0.536657
     93          1           0       -4.022265   -1.153228    0.660633
     94          1           0       -3.241593   -3.408809    2.351759
     95          1           0       -2.430980   -4.643442    0.482805
     96          1           0       -3.266953   -3.604127   -0.655384
     97          1           0       -3.721105   -6.230701    1.930936
     98          1           0       -5.601956   -3.545434   -0.693076
     99          1           0       -5.842168   -7.769525    1.821314
    100          1           0       -7.709461   -4.931951   -0.837612
    101          1           0       -8.608256   -7.073141   -0.075790
    102          7           0       -0.754748   -3.011295    1.915195
    103          6           0        0.674000   -2.793665    1.852630
    104          6           0        1.322113   -3.756141    0.870087
    105          8           0        0.911685   -4.887270    0.619696
    106          6           0        1.251818   -2.895714    3.261535
    107          6           0        0.831003   -1.655301    4.049691
    108          6           0        2.771965   -3.064394    3.239119
    109          6           0        1.138010   -1.536369    5.541234
    110          1           0       -1.044968   -3.800524    2.484044
    111          1           0        0.771416   -1.752055    1.530824
    112          1           0        0.894060   -3.791598    3.759933
    113          1           0       -0.259877   -1.638967    4.109806
    114          1           0        1.112444   -0.767515    3.477740
    115          1           0        3.095186   -4.019815    2.819955
    116          1           0        3.207476   -2.250469    2.656833
    117          1           0        3.129565   -3.024722    4.261346
    118          1           0        0.897469   -2.471627    6.036546
    119          1           0        2.205453   -1.318174    5.584302
    120          1           0        0.506817   -0.847762    6.091794
    121          7           0        2.437435   -3.339853    0.269286
    122          6           0        3.294799   -4.079994   -0.624480
    123          6           0        4.749426   -3.720513   -0.347474
    124          8           0        5.108987   -2.798201    0.375683
    125          6           0        2.839971   -3.772797   -2.053067
    126          8           0        3.489099   -4.609638   -2.979798
    127          1           0        2.770218   -2.408704    0.510774
    128          1           0        3.183914   -5.159305   -0.495281
    129          1           0        3.058669   -2.724057   -2.233665
    130          1           0        1.754582   -3.829761   -2.112940
    131          1           0        3.504827   -4.095829   -3.785498
    132          7           0        5.642871   -4.652388   -0.697423
    133          6           0        7.076052   -4.484348   -0.639484
    134          6           0        7.742432   -3.142666   -0.903540
    135          8           0        8.312374   -2.653101    0.078597
    136          6           0        7.677275   -5.565772   -1.529008
    137          1           0        5.320186   -5.519956   -1.107302
    138          1           0        7.448126   -4.796862    0.338522
    139          1           0        8.760813   -5.616350   -1.463531
    140          1           0        7.232394   -6.549980   -1.398181
    141          1           0        7.443202   -5.382406   -2.584321
    142          7           0        7.584112   -2.602290   -2.113469
    143          6           0        8.175773   -1.317267   -2.418840
    144          6           0        7.471478   -0.145872   -1.764010
    145          8           0        8.171543    0.848902   -1.572084
    146          6           0        8.222329   -1.080600   -3.928913
    147          1           0        7.082309   -3.099908   -2.835044
    148          1           0        9.164507   -1.347829   -1.964889
    149          1           0        8.741482   -1.869379   -4.475912
    150          1           0        7.202182   -0.969249   -4.306140
    151          1           0        8.622245   -0.095423   -4.127395
    152          7           0        6.199669   -0.246929   -1.375437
    153          6           0        5.588346    0.813656   -0.603657
    154          6           0        5.982190    0.745833    0.865930
    155          8           0        6.010661    1.774595    1.523911
    156          6           0        4.094098    0.885613   -0.858503
    157          6           0        3.240719   -0.253481   -0.301720
    158          6           0        1.798851   -0.135873   -0.769574
    159          8           0        1.431149   -0.724904   -1.809207
    160          8           0        0.971687    0.650664   -0.260302
    161          1           0        5.706011   -1.120570   -1.494402
    162          1           0        5.920735    1.794408   -0.945040
    163          1           0        3.887219    0.887192   -1.931536
    164          1           0        3.712832    1.797440   -0.402864
    165          1           0        3.354749   -0.366701    0.775257
    166          1           0        3.612348   -1.180634   -0.733437
    167          7           0        6.318711   -0.443840    1.380548
    168          6           0        7.013283   -0.590777    2.644700
    169          1           0        7.878914   -1.238532    2.509453
    170          1           0        7.343202    0.387140    2.994001
    171          1           0        6.340632   -1.032605    3.379868
    172          1           0        6.007425   -1.260404    0.882528
    173         20           0       -1.075955   -0.017205   -1.726186
    174          8           0       -1.006810   -0.354526   -4.322228
    175          1           0       -1.681116   -0.869768   -4.760905
    176          1           0       -0.283136   -0.306881   -4.953279
 ---------------------------------------------------------------------

 SCF Done:  E(RB3LYP) =  -5333.56868711     A.U. after   19 cycles

 The electronic state is 1-A.
 Alpha  occ. eigenvalues -- -145.32310 -19.15683 -19.15196 -19.13383 -19.12965
 Alpha  occ. eigenvalues --  -19.11385 -19.10739 -19.10287 -19.09216 -19.08728
 Alpha  occ. eigenvalues --  -19.08449 -19.08025 -19.06925 -19.06724 -19.04825
 Alpha  occ. eigenvalues --  -19.04290 -19.03991 -19.03861 -19.03443 -19.03263
 Alpha  occ. eigenvalues --  -19.03227 -19.03157 -19.01726 -19.00314 -15.38111
 Alpha  occ. eigenvalues --  -14.59149 -14.38406 -14.38256 -14.35409 -14.35278
 Alpha  occ. eigenvalues --  -14.35221 -14.35128 -14.34580 -14.33875 -14.32719
 Alpha  occ. eigenvalues --  -14.31675 -14.30204 -14.29851 -14.29209 -14.29100
 Alpha  occ. eigenvalues --  -12.51723 -12.51678 -12.51662 -10.35371 -10.31480
 Alpha  occ. eigenvalues --  -10.30320 -10.28963 -10.28503 -10.28225 -10.27984
 Alpha  occ. eigenvalues --  -10.27613 -10.27580 -10.26033 -10.25815 -10.25373
 Alpha  occ. eigenvalues --  -10.25269 -10.25005 -10.24817 -10.24118 -10.23794
 Alpha  occ. eigenvalues --  -10.23624 -10.23325 -10.23239 -10.22997 -10.22914
 Alpha  occ. eigenvalues --  -10.22675 -10.22658 -10.22491 -10.21999 -10.21994
 Alpha  occ. eigenvalues --  -10.21439 -10.21362 -10.20796 -10.20589 -10.20539
 Alpha  occ. eigenvalues --  -10.20411 -10.20211 -10.20190 -10.19773 -10.19539
 Alpha  occ. eigenvalues --  -10.18701 -10.18635 -10.18063 -10.17789 -10.17773
 Alpha  occ. eigenvalues --  -10.17745 -10.17376 -10.16440 -10.16394 -10.16333
 Alpha  occ. eigenvalues --  -10.16258 -10.15765 -10.15576 -10.15468 -10.15160
 Alpha  occ. eigenvalues --  -10.14598 -10.13594  -1.75103  -1.14567  -1.06763
 Alpha  occ. eigenvalues --   -1.03966  -1.03574  -1.03525  -1.03407  -1.02884
 Alpha  occ. eigenvalues --   -1.02733  -1.02508  -1.02117  -1.01892  -1.01882
 Alpha  occ. eigenvalues --   -1.01468  -1.01343  -1.00885  -0.99811  -0.99712
 Alpha  occ. eigenvalues --   -0.99094  -0.98295  -0.98152  -0.97509  -0.97187
 Alpha  occ. eigenvalues --   -0.95986  -0.95630  -0.95354  -0.94689  -0.92485
 Alpha  occ. eigenvalues --   -0.92097  -0.91923  -0.91662  -0.90490  -0.90181
 Alpha  occ. eigenvalues --   -0.89660  -0.89061  -0.88354  -0.88186  -0.87791
 Alpha  occ. eigenvalues --   -0.87758  -0.87253  -0.86063  -0.85741  -0.84712
 Alpha  occ. eigenvalues --   -0.82229  -0.82068  -0.81624  -0.81140  -0.78786
 Alpha  occ. eigenvalues --   -0.77749  -0.77534  -0.76831  -0.75881  -0.75651
 Alpha  occ. eigenvalues --   -0.75453  -0.74901  -0.74410  -0.73763  -0.72822
 Alpha  occ. eigenvalues --   -0.71746  -0.71426  -0.71243  -0.71166  -0.70016
 Alpha  occ. eigenvalues --   -0.69208  -0.68551  -0.68440  -0.67891  -0.67288
 Alpha  occ. eigenvalues --   -0.66724  -0.65304  -0.65193  -0.64440  -0.64220
 Alpha  occ. eigenvalues --   -0.63259  -0.62676  -0.61942  -0.61590  -0.61488
 Alpha  occ. eigenvalues --   -0.61237  -0.60369  -0.59734  -0.59480  -0.59028
 Alpha  occ. eigenvalues --   -0.58738  -0.58708  -0.58399  -0.57234  -0.57108
 Alpha  occ. eigenvalues --   -0.56767  -0.56433  -0.55854  -0.55794  -0.55584
 Alpha  occ. eigenvalues --   -0.55290  -0.55129  -0.55069  -0.54119  -0.53746
 Alpha  occ. eigenvalues --   -0.53582  -0.53506  -0.53272  -0.52817  -0.52287
 Alpha  occ. eigenvalues --   -0.52110  -0.51626  -0.51537  -0.51390  -0.51349
 Alpha  occ. eigenvalues --   -0.50473  -0.49993  -0.49930  -0.49827  -0.49405
 Alpha  occ. eigenvalues --   -0.48946  -0.48732  -0.48612  -0.48291  -0.47954
 Alpha  occ. eigenvalues --   -0.47730  -0.47445  -0.47242  -0.46968  -0.46843
 Alpha  occ. eigenvalues --   -0.46772  -0.46407  -0.46345  -0.46162  -0.45565
 Alpha  occ. eigenvalues --   -0.45313  -0.45065  -0.44986  -0.44896  -0.44782
 Alpha  occ. eigenvalues --   -0.44548  -0.44327  -0.43984  -0.43838  -0.43616
 Alpha  occ. eigenvalues --   -0.43513  -0.43493  -0.43233  -0.43148  -0.43039
 Alpha  occ. eigenvalues --   -0.42825  -0.42693  -0.42519  -0.42168  -0.42137
 Alpha  occ. eigenvalues --   -0.42050  -0.41861  -0.41791  -0.41718  -0.41676
 Alpha  occ. eigenvalues --   -0.41543  -0.41442  -0.41286  -0.41019  -0.40750
 Alpha  occ. eigenvalues --   -0.40585  -0.40273  -0.40135  -0.40114  -0.39946
 Alpha  occ. eigenvalues --   -0.39929  -0.39613  -0.39464  -0.39336  -0.39284
 Alpha  occ. eigenvalues --   -0.39018  -0.38984  -0.38871  -0.38664  -0.38530
 Alpha  occ. eigenvalues --   -0.38411  -0.38278  -0.38203  -0.38150  -0.38025
 Alpha  occ. eigenvalues --   -0.37955  -0.37678  -0.37578  -0.37439  -0.37390
 Alpha  occ. eigenvalues --   -0.37231  -0.37064  -0.37005  -0.36734  -0.36651
 Alpha  occ. eigenvalues --   -0.36583  -0.36366  -0.36307  -0.36131  -0.36011
 Alpha  occ. eigenvalues --   -0.35660  -0.35457  -0.35421  -0.35166  -0.35028
 Alpha  occ. eigenvalues --   -0.34651  -0.34363  -0.34274  -0.34112  -0.33666
 Alpha  occ. eigenvalues --   -0.33609  -0.33540  -0.33247  -0.33044  -0.32916
 Alpha  occ. eigenvalues --   -0.32721  -0.32547  -0.32474  -0.32136  -0.31823
 Alpha  occ. eigenvalues --   -0.31719  -0.31401  -0.31270  -0.30725  -0.30635
 Alpha  occ. eigenvalues --   -0.30581  -0.30240  -0.29823  -0.29356  -0.28942
 Alpha  occ. eigenvalues --   -0.28704  -0.28310  -0.28067  -0.26999  -0.26839
 Alpha  occ. eigenvalues --   -0.26602  -0.26487  -0.26276  -0.26104  -0.25971
 Alpha  occ. eigenvalues --   -0.25692  -0.24826  -0.24568  -0.24224  -0.24123
 Alpha  occ. eigenvalues --   -0.23560  -0.23035  -0.22936  -0.22635  -0.22556
 Alpha  occ. eigenvalues --   -0.22160  -0.22145  -0.21929  -0.21741  -0.21379
 Alpha  occ. eigenvalues --   -0.21295  -0.21120  -0.20896  -0.19871  -0.19671
 Alpha  occ. eigenvalues --   -0.19397  -0.19212  -0.18891  -0.18789  -0.18489
 Alpha  occ. eigenvalues --   -0.18391  -0.18107  -0.16240
 Alpha virt. eigenvalues --   -0.11280  -0.05512  -0.05047  -0.02443  -0.00953
 Alpha virt. eigenvalues --   -0.00308  -0.00104   0.00785   0.01064   0.01505
 Alpha virt. eigenvalues --    0.01629   0.01877   0.02031   0.02107   0.02262

 Mulliken charges:
               1
     1  C    0.087026
     2  C    0.001522
     3  O   -0.300041
     4  H    0.058968
     5  H   -0.017189
     6  H   -0.002596
     7  N   -0.104109
     8  C    0.010129
     9  C    0.067213
    10  O   -0.270376
    11  C    0.114785
    12  C    0.148065
    13  O   -0.459641
    14  O   -0.394910
    15  H    0.105719
    16  H    0.080345
    17  H   -0.006000
    18  H   -0.016728
    19  N   -0.159964
    20  C    0.166270
    21  C    0.046042
    22  O   -0.272658
    23  C    0.039288
    24  C   -0.011708
    25  C    0.013047
    26  C   -0.041220
    27  N    0.070312
    28  H    0.148688
    29  H   -0.004828
    30  H    0.011837
    31  H    0.017938
    32  H    0.021520
    33  H   -0.035066
    34  H    0.031720
    35  H    0.057501
    36  H    0.059109
    37  H    0.110725
    38  H    0.213291
    39  H    0.204803
    40  H    0.203296
    41  N   -0.147333
    42  C    0.126916
    43  C    0.067005
    44  O   -0.280953
    45  C    0.119797
    46  C    0.101702
    47  O   -0.428665
    48  O   -0.407150
    49  H    0.120589
    50  H    0.010759
    51  H   -0.021895
    52  H    0.006611
    53  N   -0.178676
    54  C    0.272204
    55  C   -0.006950
    56  O   -0.306029
    57  H    0.162080
    58  H    0.001314
    59  H    0.025727
    60  N   -0.162992
    61  C    0.197133
    62  C    0.015883
    63  O   -0.322076
    64  C    0.091996
    65  C    0.066553
    66  N   -0.052621
    67  O   -0.326651
    68  H    0.155334
    69  H    0.029371
    70  H    0.049515
    71  H   -0.023453
    72  H    0.136284
    73  H    0.124052
    74  N   -0.119349
    75  C    0.272496
    76  C    0.028617
    77  O   -0.316573
    78  H    0.149970
    79  H    0.025722
    80  H    0.031814
    81  N   -0.148798
    82  C    0.108036
    83  C    0.171842
    84  O   -0.350204
    85  C    0.127508
    86  C   -0.029987
    87  C    0.028383
    88  C    0.001857
    89  C    0.003224
    90  C   -0.021002
    91  C    0.138335
    92  O   -0.221619
    93  H    0.160572
    94  H   -0.007509
    95  H   -0.024588
    96  H   -0.031694
    97  H   -0.040989
    98  H   -0.031584
    99  H   -0.026633
   100  H   -0.034183
   101  H    0.171076
   102  N   -0.115714
   103  C    0.114842
   104  C    0.093258
   105  O   -0.279453
   106  C   -0.102952
   107  C   -0.022242
   108  C    0.064033
   109  C    0.052407
   110  H    0.130958
   111  H    0.039671
   112  H   -0.018978
   113  H    0.005828
   114  H    0.012721
   115  H    0.019970
   116  H    0.012274
   117  H    0.001249
   118  H   -0.001582
   119  H    0.011553
   120  H    0.009536
   121  N   -0.144745
   122  C    0.042209
   123  C    0.095072
   124  O   -0.287468
   125  C    0.252174
   126  O   -0.310148
   127  H    0.139331
   128  H    0.027297
   129  H   -0.007408
   130  H    0.019003
   131  H    0.164603
   132  N   -0.083662
   133  C    0.115300
   134  C    0.064566
   135  O   -0.248549
   136  C   -0.005164
   137  H    0.123653
   138  H    0.017228
   139  H    0.035875
   140  H    0.017257
   141  H   -0.005445
   142  N   -0.149562
   143  C    0.103182
   144  C    0.054677
   145  O   -0.287040
   146  C    0.060687
   147  H    0.119722
   148  H    0.028640
   149  H    0.025772
   150  H   -0.005091
   151  H    0.034734
   152  N   -0.129813
   153  C    0.155863
   154  C    0.051718
   155  O   -0.294466
   156  C    0.056392
   157  C    0.033356
   158  C    0.107508
   159  O   -0.456724
   160  O   -0.384943
   161  H    0.112360
   162  H    0.002911
   163  H    0.000536
   164  H    0.026596
   165  H    0.008645
   166  H   -0.048332
   167  N   -0.173855
   168  C    0.138134
   169  H    0.029500
   170  H    0.019735
   171  H    0.003804
   172  H    0.130665
   173  Ca   1.274163
   174  O   -0.268369
   175  H    0.166530
   176  H    0.181758
 Sum of Mulliken charges =  -0.00000

 Dipole moment (field-independent basis, Debye):
    X=             31.1036    Y=             12.1009    Z=              0.8927  Tot=             33.3865
 Quadrupole moment (field-independent basis, Debye-Ang):
   XX=           -634.1326   YY=           -378.1903   ZZ=           -471.3445
   XY=            139.6435   XZ=             42.9565   YZ=            126.9121

 ESP charges:
               1
     1  C   -0.403553
     2  C    0.724148
     3  O   -0.582551
     4  H    0.146141
     5  H    0.087170
     6  H    0.079437
     7  N   -0.794554
     8  C    0.346189
     9  C    0.555398
    10  O   -0.522085
    11  C   -0.197958
    12  C    0.781813
    13  O   -0.782236
    14  O   -0.719138
    15  H    0.354108
    16  H    0.094555
    17  H    0.034626
    18  H    0.013961
    19  N   -0.576959
    20  C    0.057612
    21  C    0.479660
    22  O   -0.541433
    23  C   -0.363970
    24  C    0.416453
    25  C   -0.314702
    26  C    0.231676
    27  N   -0.561505
    28  H    0.369130
    29  H    0.102772
    30  H    0.100810
    31  H    0.125636
    32  H   -0.070668
    33  H   -0.078863
    34  H    0.073131
    35  H    0.106096
    36  H    0.029929
    37  H    0.066185
    38  H    0.375973
    39  H    0.377627
    40  H    0.397342
    41  N   -0.310929
    42  C    0.111107
    43  C    0.290019
    44  O   -0.534894
    45  C   -0.356103
    46  C    0.778215
    47  O   -0.689572
    48  O   -0.692119
    49  H    0.209046
    50  H    0.097889
    51  H    0.067632
    52  H    0.116311
    53  N    0.235438
    54  C   -0.344838
    55  C    0.625630
    56  O   -0.602257
    57  H   -0.017628
    58  H    0.119966
    59  H    0.152495
    60  N   -0.276149
    61  C   -0.080851
    62  C    0.340916
    63  O   -0.514369
    64  C   -0.131643
    65  C    0.727429
    66  N   -0.897168
    67  O   -0.559408
    68  H    0.173282
    69  H    0.142099
    70  H    0.088493
    71  H    0.047116
    72  H    0.417028
    73  H    0.391810
    74  N   -0.047483
    75  C   -0.397416
    76  C    0.716548
    77  O   -0.591616
    78  H    0.224700
    79  H    0.161552
    80  H    0.164319
    81  N   -0.487953
    82  C    0.020524
    83  C    0.839209
    84  O   -0.635373
    85  C    0.374834
    86  C   -0.480727
    87  C    0.195405
    88  C    0.329317
    89  C   -0.522339
    90  C   -0.644654
    91  C    0.661878
    92  O   -0.625107
    93  H    0.208822
    94  H    0.056159
    95  H   -0.049674
    96  H   -0.115611
    97  H    0.056809
    98  H    0.038448
    99  H    0.200884
   100  H    0.211786
   101  H    0.418429
   102  N   -0.928150
   103  C    0.260478
   104  C    0.700307
   105  O   -0.579705
   106  C    0.021861
   107  C    0.184458
   108  C   -0.277256
   109  C   -0.408687
   110  H    0.379406
   111  H    0.077236
   112  H    0.024792
   113  H    0.018364
   114  H    0.036238
   115  H    0.081050
   116  H    0.090412
   117  H    0.079632
   118  H    0.099481
   119  H    0.069912
   120  H    0.114136
   121  N   -0.585890
   122  C    0.462247
   123  C    0.360932
   124  O   -0.301029
   125  C    0.210750
   126  O   -0.673118
   127  H   -0.151462
   128  H    0.010190
   129  H   -0.036568
   130  H    0.035152
   131  H    0.416748
   132  N   -0.580266
   133  C    0.260724
   134  C    0.466304
   135  O   -0.527094
   136  C   -0.354902
   137  H    0.340090
   138  H    0.050268
   139  H    0.108776
   140  H    0.111185
   141  H    0.061309
   142  N   -0.376745
   143  C    0.115321
   144  C    0.505098
   145  O   -0.550870
   146  C   -0.334913
   147  H    0.260312
   148  H    0.086812
   149  H    0.095503
   150  H    0.086066
   151  H    0.120982
   152  N   -0.378847
   153  C    0.066709
   154  C    0.462106
   155  O   -0.581410
   156  C   -0.169361
   157  C   -0.044420
   158  C    0.941630
   159  O   -0.816504
   160  O   -0.813979
   161  H    0.195453
   162  H    0.088576
   163  H    0.046855
   164  H    0.069030
   165  H    0.030116
   166  H    0.085233
   167  N   -0.062507
   168  C   -0.233342
   169  H    0.101043
   170  H    0.109841
   171  H    0.063913
   172  H    0.096130
   173  Ca   1.580793
   174  O   -0.817190
   175  H    0.386991
   176  H    0.434193
 Sum of ESP charges =   0.00000

 Normal termination of Gaussian 16 at Wed Sep 18 17:27:45 2019.
