 Gaussian 16, Revision A.03,
 Gaussian 16:  ES64L-G16RevA.03 25-Dec-2016

 ----------------------------------------------------------------------
 #b3lyp/svp scf=(tight,noincore) Test #IOP(5/87=12) Density=Current Pop
 =(MK,readradii) iop(6/33=2) iop(6/42=6)
 ----------------------------------------------------------------------

 -----------------
 CaMKII_loop3_55.0
 -----------------
 Symbolic Z-matrix:
 Charge =  0 Multiplicity = 1

                         Standard orientation:
 ---------------------------------------------------------------------
 Center     Atomic      Atomic             Coordinates (Angstroms)
 Number     Number       Type             X           Y           Z
 ---------------------------------------------------------------------
      1          6           0        2.673918    3.098445    3.928327
      2          6           0        1.754859    2.961277    2.721920
      3          8           0        2.116080    3.027159    1.543031
      4          1           0        3.524824    2.427765    3.813981
      5          1           0        3.029567    4.126223    4.000631
      6          1           0        2.126326    2.838486    4.834818
      7          7           0        0.447488    2.934928    3.007201
      8          6           0       -0.597896    2.791788    2.013177
      9          6           0       -1.285493    4.062397    1.552350
     10          8           0       -2.444258    4.370721    1.840794
     11          6           0       -1.673385    1.797021    2.438811
     12          6           0       -2.703523    1.463099    1.376449
     13          8           0       -2.301377    1.678192    0.223274
     14          8           0       -3.873830    1.117691    1.665539
     15          1           0        0.099154    2.665103    3.913986
     16          1           0       -0.184577    2.411851    1.074979
     17          1           0       -2.141018    2.110604    3.370146
     18          1           0       -1.175150    0.846907    2.640168
     19          7           0       -0.542376    4.841627    0.755808
     20          6           0       -0.931276    6.173562    0.354304
     21          6           0       -2.110305    6.120775   -0.601313
     22          8           0       -2.971695    7.007904   -0.598095
     23          6           0        0.238779    6.940838   -0.266792
     24          6           0        1.400647    7.047503    0.726277
     25          6           0        2.514742    7.914478    0.152390
     26          6           0        3.572839    8.330471    1.176246
     27          7           0        4.313138    7.148426    1.645956
     28          1           0        0.249685    4.329367    0.387122
     29          1           0       -1.274259    6.803012    1.179383
     30          1           0       -0.017927    7.897933   -0.698616
     31          1           0        0.760596    6.374054   -1.044006
     32          1           0        1.793054    6.070258    0.992937
     33          1           0        0.965631    7.440810    1.648649
     34          1           0        2.089556    8.852442   -0.203615
     35          1           0        3.063238    7.467247   -0.680458
     36          1           0        3.183971    8.920199    2.005404
     37          1           0        4.231968    9.052601    0.693050
     38          1           0        4.914534    7.434542    2.396397
     39          1           0        3.759312    6.356184    1.944502
     40          1           0        4.946176    6.761797    0.956913
     41          7           0       -2.140770    5.097121   -1.449607
     42          6           0       -3.152075    4.931936   -2.471066
     43          6           0       -4.435065    4.291984   -1.954056
     44          8           0       -5.536257    4.378199   -2.494559
     45          6           0       -2.636204    3.992471   -3.561288
     46          6           0       -2.164859    2.648519   -3.011263
     47          8           0       -2.796450    1.575848   -3.057843
     48          8           0       -0.976805    2.583553   -2.635088
     49          1           0       -1.330873    4.491627   -1.422327
     50          1           0       -3.511936    5.864076   -2.908917
     51          1           0       -1.773527    4.395091   -4.081657
     52          1           0       -3.374169    3.733989   -4.328618
     53          7           0       -4.346065    3.789900   -0.718342
     54          6           0       -5.481306    3.422207    0.091492
     55          6           0       -6.375650    2.254398   -0.307097
     56          8           0       -7.521427    2.123610    0.117035
     57          1           0       -3.441030    3.469085   -0.378801
     58          1           0       -6.022735    4.361033    0.078832
     59          1           0       -5.258108    3.265580    1.150713
     60          7           0       -5.755777    1.356246   -1.075330
     61          6           0       -6.319028    0.125102   -1.602239
     62          6           0       -6.597336   -0.899145   -0.512577
     63          8           0       -7.180349   -1.953759   -0.768476
     64          6           0       -5.371230   -0.330982   -2.711999
     65          6           0       -4.254660   -1.303344   -2.366192
     66          7           0       -3.895523   -2.394900   -3.047754
     67          8           0       -3.599624   -1.077575   -1.354828
     68          1           0       -4.765776    1.378345   -1.270289
     69          1           0       -7.299683    0.386777   -1.995485
     70          1           0       -4.953722    0.499338   -3.290666
     71          1           0       -5.946723   -0.871485   -3.466428
     72          1           0       -4.605629   -2.768452   -3.666146
     73          1           0       -3.179838   -2.997629   -2.680450
     74          7           0       -6.112627   -0.704581    0.705947
     75          6           0       -6.257048   -1.638640    1.801975
     76          6           0       -5.056842   -2.545331    1.987492
     77          8           0       -5.169060   -3.419768    2.849622
     78          1           0       -5.544434    0.124562    0.854874
     79          1           0       -7.142632   -2.232035    1.579660
     80          1           0       -6.466678   -1.112402    2.729837
     81          7           0       -3.950709   -2.385082    1.257157
     82          6           0       -2.761302   -3.161467    1.535969
     83          6           0       -1.457311   -2.371488    1.514994
     84          8           0       -1.436513   -1.268712    0.990063
     85          6           0       -2.651609   -4.385748    0.629324
     86          6           0       -3.801235   -5.349109    0.551253
     87          6           0       -3.655780   -6.558672    1.244579
     88          6           0       -4.885750   -5.195447   -0.321624
     89          6           0       -4.596847   -7.586206    1.098061
     90          6           0       -5.856339   -6.184270   -0.521339
     91          6           0       -5.691254   -7.357407    0.232714
     92          8           0       -6.636666   -8.343479    0.171414
     93          1           0       -4.018375   -1.717698    0.498329
     94          1           0       -2.891629   -3.663015    2.491513
     95          1           0       -1.789332   -5.037947    0.766490
     96          1           0       -2.534520   -3.988040   -0.383158
     97          1           0       -2.823572   -6.662952    1.917450
     98          1           0       -5.119578   -4.270190   -0.830668
     99          1           0       -4.588829   -8.494396    1.684684
    100          1           0       -6.665972   -6.004687   -1.212095
    101          1           0       -7.425318   -8.040125   -0.279258
    102          7           0       -0.357488   -3.053716    1.825568
    103          6           0        0.976963   -2.501458    1.719972
    104          6           0        1.803731   -3.540142    0.979034
    105          8           0        2.000960   -4.632229    1.511055
    106          6           0        1.550329   -2.322041    3.126408
    107          6           0        0.859888   -1.225278    3.931705
    108          6           0        3.031957   -1.959595    3.195772
    109          6           0        1.150488   -1.241168    5.428133
    110          1           0       -0.494378   -3.859918    2.412679
    111          1           0        1.016051   -1.569600    1.158267
    112          1           0        1.402723   -3.309464    3.568798
    113          1           0       -0.205016   -1.443658    3.848701
    114          1           0        1.105246   -0.195827    3.649871
    115          1           0        3.324039   -1.884939    4.242202
    116          1           0        3.700316   -2.624321    2.672001
    117          1           0        3.174966   -0.991253    2.711972
    118          1           0        0.353022   -0.711834    5.951348
    119          1           0        1.198938   -2.241231    5.869070
    120          1           0        2.074043   -0.683695    5.580679
    121          7           0        2.445963   -3.190045   -0.130187
    122          6           0        3.385393   -3.910343   -0.965137
    123          6           0        4.848630   -3.574120   -0.671554
    124          8           0        5.153100   -2.447163   -0.294905
    125          6           0        3.020635   -3.789107   -2.441502
    126          8           0        1.626533   -3.833505   -2.621250
    127          1           0        2.162085   -2.327333   -0.585536
    128          1           0        3.254120   -4.941747   -0.620209
    129          1           0        3.452073   -4.611831   -3.001400
    130          1           0        3.516515   -2.892641   -2.793712
    131          1           0        1.445644   -4.332829   -3.414316
    132          7           0        5.810050   -4.460987   -0.944390
    133          6           0        7.176232   -4.229990   -0.511854
    134          6           0        7.786730   -2.875822   -0.805148
    135          8           0        8.373454   -2.203111    0.039253
    136          6           0        8.132944   -5.263179   -1.110371
    137          1           0        5.575682   -5.372717   -1.304834
    138          1           0        7.191536   -4.291900    0.577518
    139          1           0        7.887607   -6.316473   -0.962446
    140          1           0        8.283326   -5.141459   -2.180496
    141          1           0        9.154876   -5.117958   -0.752228
    142          7           0        7.684310   -2.413293   -2.062200
    143          6           0        8.130966   -1.106861   -2.506083
    144          6           0        7.416559    0.091095   -1.892060
    145          8           0        8.009473    1.166730   -1.859455
    146          6           0        8.242643   -1.154690   -4.020230
    147          1           0        7.229234   -3.001735   -2.737878
    148          1           0        9.148644   -1.085447   -2.126644
    149          1           0        8.953908   -0.393553   -4.346072
    150          1           0        8.421380   -2.138030   -4.451500
    151          1           0        7.264911   -0.830295   -4.358179
    152          7           0        6.234524   -0.044996   -1.290002
    153          6           0        5.593317    1.004211   -0.516557
    154          6           0        6.214303    1.158283    0.860047
    155          8           0        6.469097    2.240382    1.393284
    156          6           0        4.108603    0.669587   -0.349666
    157          6           0        3.290634    0.340913   -1.597384
    158          6           0        1.848629    0.239103   -1.134396
    159          8           0        1.202532    1.206272   -0.651030
    160          8           0        1.234602   -0.797446   -1.465207
    161          1           0        5.857720   -0.980589   -1.254162
    162          1           0        5.750321    1.941668   -1.045637
    163          1           0        3.672790    1.627515   -0.042356
    164          1           0        3.991899   -0.146788    0.365465
    165          1           0        3.647773   -0.576019   -2.071816
    166          1           0        3.306069    1.146824   -2.327843
    167          7           0        6.453475    0.021225    1.524047
    168          6           0        7.176670   -0.013250    2.778161
    169          1           0        8.071472   -0.624895    2.663616
    170          1           0        7.463280    0.999358    3.061209
    171          1           0        6.541156   -0.441427    3.553137
    172          1           0        6.231268   -0.837309    1.033901
    173         20           0       -1.179258    0.155402   -1.394768
    174          8           0       -0.780039   -2.516788   -1.842682
    175          1           0       -0.656564   -3.463627   -1.927235
    176          1           0        0.092771   -2.174817   -1.638332
 ---------------------------------------------------------------------

 SCF Done:  E(RB3LYP) =  -5333.58098670     A.U. after   20 cycles

 The electronic state is 1-A.
 Alpha  occ. eigenvalues -- -145.35896 -19.17830 -19.15166 -19.13828 -19.13777
 Alpha  occ. eigenvalues --  -19.11761 -19.10555 -19.10503 -19.10215 -19.09622
 Alpha  occ. eigenvalues --  -19.09076 -19.08685 -19.08129 -19.07889 -19.07007
 Alpha  occ. eigenvalues --  -19.06416 -19.04604 -19.04423 -19.04254 -19.03710
 Alpha  occ. eigenvalues --  -19.03566 -19.03559 -19.03292 -19.01937 -15.41611
 Alpha  occ. eigenvalues --  -14.58213 -14.41234 -14.37579 -14.36357 -14.36292
 Alpha  occ. eigenvalues --  -14.36148 -14.35637 -14.34567 -14.34412 -14.33523
 Alpha  occ. eigenvalues --  -14.32257 -14.31304 -14.29540 -14.29029 -14.28498
 Alpha  occ. eigenvalues --  -12.55230 -12.55197 -12.55173 -10.35253 -10.33483
 Alpha  occ. eigenvalues --  -10.30786 -10.29616 -10.29012 -10.29010 -10.28770
 Alpha  occ. eigenvalues --  -10.28248 -10.27844 -10.27798 -10.27495 -10.27009
 Alpha  occ. eigenvalues --  -10.26800 -10.26482 -10.26363 -10.25260 -10.24563
 Alpha  occ. eigenvalues --  -10.24408 -10.23640 -10.23607 -10.23500 -10.23221
 Alpha  occ. eigenvalues --  -10.23129 -10.23027 -10.22956 -10.22462 -10.22308
 Alpha  occ. eigenvalues --  -10.22213 -10.22207 -10.22066 -10.21756 -10.21620
 Alpha  occ. eigenvalues --  -10.20814 -10.20724 -10.20454 -10.19928 -10.19914
 Alpha  occ. eigenvalues --  -10.19518 -10.18291 -10.18153 -10.18024 -10.18004
 Alpha  occ. eigenvalues --  -10.17995 -10.17824 -10.17807 -10.17689 -10.17145
 Alpha  occ. eigenvalues --  -10.16894 -10.16835 -10.16773 -10.16734 -10.15467
 Alpha  occ. eigenvalues --  -10.15447 -10.14791  -1.78459  -1.13553  -1.08752
 Alpha  occ. eigenvalues --   -1.06287  -1.06147  -1.06091  -1.05848  -1.04868
 Alpha  occ. eigenvalues --   -1.04089  -1.03539  -1.03224  -1.03177  -1.02886
 Alpha  occ. eigenvalues --   -1.02595  -1.02127  -1.01245  -1.00598  -1.00095
 Alpha  occ. eigenvalues --   -0.99538  -0.99051  -0.98249  -0.97600  -0.97494
 Alpha  occ. eigenvalues --   -0.97473  -0.96690  -0.95735  -0.94318  -0.93663
 Alpha  occ. eigenvalues --   -0.93348  -0.92312  -0.92055  -0.91741  -0.91653
 Alpha  occ. eigenvalues --   -0.89985  -0.89303  -0.89220  -0.89003  -0.88362
 Alpha  occ. eigenvalues --   -0.88000  -0.87661  -0.87360  -0.85835  -0.84689
 Alpha  occ. eigenvalues --   -0.83048  -0.82770  -0.82758  -0.82048  -0.79884
 Alpha  occ. eigenvalues --   -0.78906  -0.78150  -0.77912  -0.77157  -0.76621
 Alpha  occ. eigenvalues --   -0.75228  -0.74776  -0.74609  -0.73136  -0.72963
 Alpha  occ. eigenvalues --   -0.72399  -0.71904  -0.71767  -0.71680  -0.70551
 Alpha  occ. eigenvalues --   -0.70265  -0.68976  -0.68966  -0.68711  -0.68105
 Alpha  occ. eigenvalues --   -0.67166  -0.66542  -0.65452  -0.65186  -0.64474
 Alpha  occ. eigenvalues --   -0.63790  -0.63325  -0.63018  -0.62745  -0.61960
 Alpha  occ. eigenvalues --   -0.61877  -0.61281  -0.60681  -0.60430  -0.59973
 Alpha  occ. eigenvalues --   -0.59700  -0.59116  -0.58428  -0.58091  -0.57767
 Alpha  occ. eigenvalues --   -0.57249  -0.56788  -0.56377  -0.56352  -0.56218
 Alpha  occ. eigenvalues --   -0.55801  -0.55378  -0.55139  -0.54905  -0.54715
 Alpha  occ. eigenvalues --   -0.54613  -0.54180  -0.53567  -0.53481  -0.53064
 Alpha  occ. eigenvalues --   -0.52910  -0.52793  -0.52587  -0.51962  -0.51424
 Alpha  occ. eigenvalues --   -0.51318  -0.51229  -0.50817  -0.50484  -0.50194
 Alpha  occ. eigenvalues --   -0.49696  -0.49250  -0.49095  -0.48972  -0.48801
 Alpha  occ. eigenvalues --   -0.48636  -0.48423  -0.48231  -0.48007  -0.47935
 Alpha  occ. eigenvalues --   -0.47598  -0.47204  -0.46927  -0.46599  -0.46542
 Alpha  occ. eigenvalues --   -0.46372  -0.46153  -0.45915  -0.45817  -0.45744
 Alpha  occ. eigenvalues --   -0.45692  -0.45482  -0.45144  -0.45004  -0.44913
 Alpha  occ. eigenvalues --   -0.44751  -0.44500  -0.44192  -0.43777  -0.43614
 Alpha  occ. eigenvalues --   -0.43539  -0.43360  -0.43174  -0.42928  -0.42778
 Alpha  occ. eigenvalues --   -0.42660  -0.42625  -0.42388  -0.42191  -0.42055
 Alpha  occ. eigenvalues --   -0.42042  -0.41893  -0.41638  -0.41516  -0.41304
 Alpha  occ. eigenvalues --   -0.41215  -0.41097  -0.40860  -0.40731  -0.40629
 Alpha  occ. eigenvalues --   -0.40580  -0.40401  -0.40376  -0.40097  -0.39863
 Alpha  occ. eigenvalues --   -0.39822  -0.39676  -0.39611  -0.39479  -0.39378
 Alpha  occ. eigenvalues --   -0.39315  -0.39121  -0.38864  -0.38732  -0.38679
 Alpha  occ. eigenvalues --   -0.38454  -0.38312  -0.38126  -0.38048  -0.38034
 Alpha  occ. eigenvalues --   -0.37924  -0.37723  -0.37614  -0.37449  -0.37180
 Alpha  occ. eigenvalues --   -0.37051  -0.36900  -0.36750  -0.36482  -0.36382
 Alpha  occ. eigenvalues --   -0.36275  -0.35791  -0.35612  -0.35411  -0.35201
 Alpha  occ. eigenvalues --   -0.34926  -0.34825  -0.34711  -0.34496  -0.34467
 Alpha  occ. eigenvalues --   -0.34362  -0.34182  -0.33957  -0.33730  -0.33609
 Alpha  occ. eigenvalues --   -0.33424  -0.33388  -0.32892  -0.32596  -0.32480
 Alpha  occ. eigenvalues --   -0.32316  -0.32065  -0.31846  -0.31688  -0.31456
 Alpha  occ. eigenvalues --   -0.31329  -0.31116  -0.30864  -0.30788  -0.30257
 Alpha  occ. eigenvalues --   -0.29074  -0.29026  -0.28341  -0.28114  -0.27926
 Alpha  occ. eigenvalues --   -0.27608  -0.27356  -0.26997  -0.26576  -0.26518
 Alpha  occ. eigenvalues --   -0.26278  -0.26093  -0.25655  -0.25379  -0.25284
 Alpha  occ. eigenvalues --   -0.24388  -0.24185  -0.23963  -0.23781  -0.23354
 Alpha  occ. eigenvalues --   -0.23222  -0.23034  -0.22976  -0.22901  -0.22393
 Alpha  occ. eigenvalues --   -0.22275  -0.21953  -0.21588  -0.21355  -0.20747
 Alpha  occ. eigenvalues --   -0.20254  -0.19845  -0.19300  -0.19203  -0.19163
 Alpha  occ. eigenvalues --   -0.18776  -0.18091  -0.17811
 Alpha virt. eigenvalues --   -0.09793  -0.04623  -0.04268  -0.04026  -0.01237
 Alpha virt. eigenvalues --   -0.00999  -0.00652  -0.00182   0.00150   0.00394
 Alpha virt. eigenvalues --    0.00420   0.01173   0.01278   0.01672   0.02049

 Mulliken charges:
               1
     1  C    0.067196
     2  C    0.031042
     3  O   -0.284853
     4  H    0.055858
     5  H   -0.005963
     6  H    0.010110
     7  N   -0.108977
     8  C    0.034095
     9  C    0.055923
    10  O   -0.258129
    11  C    0.087946
    12  C    0.169209
    13  O   -0.495838
    14  O   -0.357809
    15  H    0.119026
    16  H    0.060089
    17  H   -0.008742
    18  H   -0.006917
    19  N   -0.162811
    20  C    0.155270
    21  C    0.065626
    22  O   -0.278109
    23  C    0.037128
    24  C   -0.016157
    25  C   -0.012921
    26  C    0.035788
    27  N    0.078177
    28  H    0.151020
    29  H    0.006156
    30  H    0.023588
    31  H    0.000527
    32  H   -0.002302
    33  H    0.004582
    34  H    0.043505
    35  H    0.032646
    36  H    0.072325
    37  H    0.066844
    38  H    0.185968
    39  H    0.198496
    40  H    0.197386
    41  N   -0.122375
    42  C    0.104864
    43  C    0.051803
    44  O   -0.275304
    45  C    0.133424
    46  C    0.073108
    47  O   -0.410335
    48  O   -0.423310
    49  H    0.116766
    50  H    0.016311
    51  H   -0.004648
    52  H    0.016020
    53  N   -0.189990
    54  C    0.204610
    55  C    0.061952
    56  O   -0.289762
    57  H    0.179432
    58  H    0.004835
    59  H    0.046379
    60  N   -0.178199
    61  C    0.160975
    62  C    0.037389
    63  O   -0.316680
    64  C    0.108126
    65  C    0.032937
    66  N   -0.021541
    67  O   -0.361987
    68  H    0.141410
    69  H    0.023677
    70  H    0.076695
    71  H   -0.024252
    72  H    0.128850
    73  H    0.131964
    74  N   -0.168474
    75  C    0.257530
    76  C    0.027405
    77  O   -0.316280
    78  H    0.153987
    79  H    0.030505
    80  H    0.033564
    81  N   -0.133387
    82  C    0.148087
    83  C    0.147242
    84  O   -0.309896
    85  C    0.101583
    86  C    0.033788
    87  C   -0.011631
    88  C   -0.034029
    89  C    0.008425
    90  C   -0.041227
    91  C    0.153421
    92  O   -0.212109
    93  H    0.161523
    94  H   -0.003467
    95  H   -0.020526
    96  H   -0.052852
    97  H   -0.043536
    98  H   -0.033475
    99  H   -0.029844
   100  H   -0.037888
   101  H    0.169443
   102  N   -0.129995
   103  C    0.160848
   104  C    0.068102
   105  O   -0.298921
   106  C   -0.100280
   107  C    0.000710
   108  C    0.065811
   109  C    0.018742
   110  H    0.135545
   111  H    0.007810
   112  H   -0.008377
   113  H    0.011862
   114  H    0.002241
   115  H    0.001929
   116  H    0.007305
   117  H    0.010248
   118  H    0.008108
   119  H    0.010148
   120  H    0.004025
   121  N   -0.131537
   122  C    0.094783
   123  C    0.096219
   124  O   -0.291111
   125  C    0.257172
   126  O   -0.285422
   127  H    0.148269
   128  H    0.002246
   129  H   -0.015092
   130  H   -0.000822
   131  H    0.175454
   132  N   -0.109810
   133  C    0.116679
   134  C    0.036789
   135  O   -0.252307
   136  C    0.020067
   137  H    0.124768
   138  H    0.025185
   139  H    0.028049
   140  H    0.004473
   141  H    0.041351
   142  N   -0.160267
   143  C    0.096968
   144  C    0.070160
   145  O   -0.286972
   146  C    0.049640
   147  H    0.096375
   148  H    0.027082
   149  H    0.044434
   150  H    0.014903
   151  H    0.001848
   152  N   -0.146984
   153  C    0.162428
   154  C    0.073039
   155  O   -0.306002
   156  C   -0.056777
   157  C    0.150027
   158  C    0.121091
   159  O   -0.361226
   160  O   -0.496877
   161  H    0.129489
   162  H   -0.018978
   163  H    0.047153
   164  H    0.004955
   165  H   -0.043328
   166  H    0.011880
   167  N   -0.175392
   168  C    0.129097
   169  H    0.029830
   170  H    0.028836
   171  H    0.007064
   172  H    0.126891
   173  Ca   1.283817
   174  O   -0.322070
   175  H    0.170304
   176  H    0.179272
 Sum of Mulliken charges =  -0.00000

 Dipole moment (field-independent basis, Debye):
    X=             35.8352    Y=              5.6007    Z=             -1.2294  Tot=             36.2911
 Quadrupole moment (field-independent basis, Debye-Ang):
   XX=           -668.5236   YY=           -376.8299   ZZ=           -515.5887
   XY=            102.2306   XZ=             19.2781   YZ=            110.7851

 ESP charges:
               1
     1  C   -0.357686
     2  C    0.697695
     3  O   -0.616446
     4  H    0.111214
     5  H    0.080412
     6  H    0.097880
     7  N   -0.738528
     8  C    0.316232
     9  C    0.593955
    10  O   -0.506730
    11  C   -0.418895
    12  C    0.888797
    13  O   -0.888609
    14  O   -0.680911
    15  H    0.362177
    16  H    0.108658
    17  H    0.087949
    18  H    0.050742
    19  N   -0.636380
    20  C    0.144625
    21  C    0.380935
    22  O   -0.532779
    23  C   -0.253535
    24  C    0.235355
    25  C   -0.206876
    26  C    0.109543
    27  N   -0.467365
    28  H    0.394214
    29  H    0.098136
    30  H    0.111394
    31  H    0.059452
    32  H   -0.031137
    33  H   -0.036267
    34  H    0.085101
    35  H    0.082949
    36  H    0.076243
    37  H    0.069525
    38  H    0.348598
    39  H    0.354063
    40  H    0.369149
    41  N   -0.234972
    42  C    0.042687
    43  C    0.385749
    44  O   -0.544918
    45  C   -0.350524
    46  C    0.897302
    47  O   -0.781741
    48  O   -0.770906
    49  H    0.209760
    50  H    0.103590
    51  H    0.083482
    52  H    0.103147
    53  N    0.183207
    54  C   -0.462269
    55  C    0.619285
    56  O   -0.573924
    57  H   -0.031271
    58  H    0.137957
    59  H    0.196798
    60  N   -0.190141
    61  C   -0.301638
    62  C    0.486312
    63  O   -0.562615
    64  C    0.004598
    65  C    0.563776
    66  N   -0.863965
    67  O   -0.374558
    68  H    0.127067
    69  H    0.175830
    70  H    0.101146
    71  H    0.018256
    72  H    0.375195
    73  H    0.429913
    74  N   -0.116148
    75  C   -0.396766
    76  C    0.706422
    77  O   -0.583285
    78  H    0.263623
    79  H    0.172962
    80  H    0.149819
    81  N   -0.495153
    82  C    0.289362
    83  C    0.451458
    84  O   -0.509729
    85  C    0.051123
    86  C    0.112829
    87  C   -0.181942
    88  C   -0.195148
    89  C   -0.287920
    90  C   -0.349290
    91  C    0.445184
    92  O   -0.592634
    93  H    0.191826
    94  H   -0.017130
    95  H   -0.006220
    96  H   -0.091291
    97  H    0.128287
    98  H    0.173099
    99  H    0.175280
   100  H    0.160228
   101  H    0.419593
   102  N   -0.573034
   103  C   -0.180543
   104  C    0.668944
   105  O   -0.576691
   106  C    0.296573
   107  C   -0.002870
   108  C   -0.372438
   109  C   -0.337261
   110  H    0.341538
   111  H    0.052029
   112  H   -0.001271
   113  H    0.057077
   114  H    0.089071
   115  H    0.095507
   116  H    0.085457
   117  H    0.081740
   118  H    0.083063
   119  H    0.085879
   120  H    0.066874
   121  N   -0.451389
   122  C   -0.002497
   123  C    0.545276
   124  O   -0.392315
   125  C    0.205785
   126  O   -0.638879
   127  H    0.502089
   128  H    0.062251
   129  H    0.002374
   130  H    0.003339
   131  H    0.431619
   132  N   -0.621227
   133  C    0.347884
   134  C    0.344640
   135  O   -0.507737
   136  C   -0.422938
   137  H    0.333041
   138  H    0.037959
   139  H    0.123317
   140  H    0.099277
   141  H    0.133580
   142  N   -0.256181
   143  C    0.055716
   144  C    0.469144
   145  O   -0.532010
   146  C   -0.285944
   147  H    0.206930
   148  H    0.096108
   149  H    0.104873
   150  H    0.088138
   151  H    0.068057
   152  N   -0.130247
   153  C   -0.389912
   154  C    0.580176
   155  O   -0.595191
   156  C    0.215353
   157  C   -0.312944
   158  C    0.847477
   159  O   -0.697573
   160  O   -0.799712
   161  H    0.100794
   162  H    0.165749
   163  H    0.076562
   164  H   -0.184849
   165  H    0.041347
   166  H    0.098477
   167  N   -0.114678
   168  C   -0.185444
   169  H    0.081646
   170  H    0.107493
   171  H    0.051764
   172  H    0.184543
   173  Ca   1.589445
   174  O   -0.843117
   175  H    0.435751
   176  H    0.354263
 Sum of ESP charges =   0.00000

 Normal termination of Gaussian 16 at Wed Sep 18 16:57:44 2019.
