 Gaussian 16, Revision A.03,
 Gaussian 16:  ES64L-G16RevA.03 25-Dec-2016

 ----------------------------------------------------------------------
 #b3lyp/svp scf=(tight,noincore) Test #IOP(5/87=12) Density=Current Pop
 =(MK,readradii) iop(6/33=2) iop(6/42=6)
 ----------------------------------------------------------------------

 -----------------
 CaMKII_loop3_40.0
 -----------------
 Symbolic Z-matrix:
 Charge =  0 Multiplicity = 1

                         Standard orientation:
 ---------------------------------------------------------------------
 Center     Atomic      Atomic             Coordinates (Angstroms)
 Number     Number       Type             X           Y           Z
 ---------------------------------------------------------------------
      1          6           0        2.353719    2.093169    5.300844
      2          6           0        1.559402    2.158084    4.007999
      3          8           0        2.187469    2.040838    2.952734
      4          1           0        3.417929    2.054008    5.070823
      5          1           0        2.143798    2.978338    5.901539
      6          1           0        2.070094    1.200439    5.858139
      7          7           0        0.238686    2.244341    3.954448
      8          6           0       -0.546594    2.234250    2.734352
      9          6           0       -0.456285    3.617601    2.098519
     10          8           0       -1.051815    4.586113    2.570355
     11          6           0       -1.962997    1.703050    2.927561
     12          6           0       -2.589434    1.478975    1.564708
     13          8           0       -1.953475    1.821526    0.534410
     14          8           0       -3.770020    1.074202    1.465844
     15          1           0       -0.218260    2.567618    4.798126
     16          1           0        0.039654    1.548689    2.129276
     17          1           0       -2.600530    2.246583    3.633127
     18          1           0       -1.828703    0.700698    3.324872
     19          7           0        0.288114    3.769248    1.005005
     20          6           0        0.538006    5.020431    0.317549
     21          6           0       -0.595149    5.464104   -0.605930
     22          8           0       -0.388565    6.529315   -1.195208
     23          6           0        1.971259    5.138057   -0.174946
     24          6           0        2.608318    6.523853   -0.095407
     25          6           0        4.088493    6.384157   -0.465904
     26          6           0        4.815582    7.679918   -0.094494
     27          7           0        4.095917    8.830812   -0.663200
     28          1           0        0.688950    2.934180    0.612460
     29          1           0        0.426235    5.816518    1.064244
     30          1           0        1.941372    4.841990   -1.225637
     31          1           0        2.600256    4.355788    0.254491
     32          1           0        2.565986    6.807040    0.950974
     33          1           0        2.047682    7.317426   -0.590411
     34          1           0        4.138544    6.158130   -1.534036
     35          1           0        4.567596    5.540133    0.014703
     36          1           0        5.817041    7.605605   -0.504442
     37          1           0        4.778162    7.880786    0.976371
     38          1           0        4.229067    9.020773   -1.652283
     39          1           0        3.115192    8.759640   -0.444313
     40          1           0        4.368844    9.673521   -0.167769
     41          7           0       -1.732871    4.782922   -0.666577
     42          6           0       -2.878011    5.078830   -1.504488
     43          6           0       -4.200228    4.784254   -0.812342
     44          8           0       -5.237549    5.326348   -1.199510
     45          6           0       -2.698198    4.409273   -2.864583
     46          6           0       -2.208979    2.969560   -2.791840
     47          8           0       -3.065769    2.051549   -2.745299
     48          8           0       -0.999601    2.679989   -2.631671
     49          1           0       -1.747585    3.936756   -0.118593
     50          1           0       -2.838403    6.157831   -1.634060
     51          1           0       -1.847228    4.979156   -3.234965
     52          1           0       -3.632100    4.428368   -3.421686
     53          7           0       -4.302328    3.868283    0.155632
     54          6           0       -5.473118    3.680479    0.984414
     55          6           0       -6.350009    2.578876    0.385052
     56          8           0       -7.457964    2.326497    0.841165
     57          1           0       -3.463971    3.317369    0.283502
     58          1           0       -5.987056    4.636007    1.032724
     59          1           0       -5.080412    3.346169    1.946297
     60          7           0       -5.914518    1.828474   -0.632418
     61          6           0       -6.668656    0.691950   -1.096088
     62          6           0       -6.723442   -0.551989   -0.219210
     63          8           0       -7.470443   -1.471377   -0.546493
     64          6           0       -6.131315    0.357468   -2.487772
     65          6           0       -4.940889   -0.598838   -2.523317
     66          7           0       -4.977819   -1.510117   -3.496768
     67          8           0       -4.006922   -0.630882   -1.719775
     68          1           0       -4.984311    2.107121   -0.903286
     69          1           0       -7.724757    0.967598   -1.068341
     70          1           0       -5.892895    1.258679   -3.050778
     71          1           0       -6.916165   -0.005077   -3.148962
     72          1           0       -5.767822   -1.529566   -4.122482
     73          1           0       -4.151234   -2.083271   -3.592431
     74          7           0       -6.092837   -0.544882    0.956540
     75          6           0       -6.199202   -1.551457    1.988331
     76          6           0       -5.041896   -2.543891    1.919652
     77          8           0       -4.963582   -3.429942    2.768227
     78          1           0       -5.287880    0.059956    0.974309
     79          1           0       -7.127510   -2.121071    1.913607
     80          1           0       -6.186583   -1.035336    2.949143
     81          7           0       -3.995523   -2.343808    1.120358
     82          6           0       -2.844984   -3.186062    0.855464
     83          6           0       -1.541075   -2.431384    1.044097
     84          8           0       -1.358765   -1.387977    0.439478
     85          6           0       -2.957919   -4.069565   -0.389192
     86          6           0       -4.248728   -4.826155   -0.582799
     87          6           0       -4.251124   -6.182235   -0.248673
     88          6           0       -5.405800   -4.146158   -0.976486
     89          6           0       -5.459204   -6.890152   -0.303402
     90          6           0       -6.599453   -4.881313   -0.982740
     91          6           0       -6.661032   -6.240412   -0.622381
     92          8           0       -7.751419   -7.035882   -0.856226
     93          1           0       -3.904266   -1.459938    0.638853
     94          1           0       -2.884163   -3.965876    1.615105
     95          1           0       -2.105210   -4.741609   -0.418234
     96          1           0       -2.792663   -3.333394   -1.181999
     97          1           0       -3.333618   -6.574650    0.167492
     98          1           0       -5.361606   -3.089431   -1.185952
     99          1           0       -5.446874   -7.947215   -0.065565
    100          1           0       -7.534378   -4.458975   -1.335649
    101          1           0       -8.537784   -6.580471   -1.152251
    102          7           0       -0.602656   -3.166627    1.647162
    103          6           0        0.812795   -2.842766    1.671920
    104          6           0        1.501690   -3.800847    0.718135
    105          8           0        1.455153   -5.026639    0.845678
    106          6           0        1.349878   -3.087881    3.080345
    107          6           0        0.705924   -2.242880    4.175880
    108          6           0        2.868693   -3.169578    3.211587
    109          6           0        1.017108   -2.523148    5.646225
    110          1           0       -0.850515   -4.027852    2.109609
    111          1           0        0.935920   -1.803551    1.375488
    112          1           0        1.189911   -4.135516    3.323186
    113          1           0       -0.343315   -2.513140    4.049556
    114          1           0        0.863828   -1.198902    3.908905
    115          1           0        3.146377   -3.306140    4.256931
    116          1           0        3.301725   -3.906998    2.544583
    117          1           0        3.296040   -2.219259    2.886058
    118          1           0        0.894113   -3.585912    5.871625
    119          1           0        2.052648   -2.250674    5.856258
    120          1           0        0.388953   -1.953819    6.326362
    121          7           0        2.394214   -3.320027   -0.151987
    122          6           0        3.295325   -4.081067   -1.004581
    123          6           0        4.767088   -3.883066   -0.642350
    124          8           0        5.029961   -3.162090    0.315768
    125          6           0        3.102525   -3.635090   -2.447991
    126          8           0        3.309075   -2.239931   -2.560996
    127          1           0        2.479764   -2.319387   -0.190737
    128          1           0        3.117069   -5.155873   -1.000543
    129          1           0        2.115936   -3.827762   -2.881487
    130          1           0        3.792328   -4.162723   -3.102418
    131          1           0        3.462967   -2.089788   -3.500237
    132          7           0        5.734177   -4.524755   -1.286612
    133          6           0        7.124800   -4.449024   -0.869917
    134          6           0        7.744565   -3.108515   -1.200560
    135          8           0        8.513480   -2.498409   -0.455348
    136          6           0        7.800378   -5.583550   -1.630078
    137          1           0        5.484567   -4.951846   -2.161933
    138          1           0        7.110747   -4.657973    0.198888
    139          1           0        8.860971   -5.485744   -1.387433
    140          1           0        7.417179   -6.608976   -1.541424
    141          1           0        7.676511   -5.395431   -2.692231
    142          7           0        7.389330   -2.445568   -2.310745
    143          6           0        7.766778   -1.075570   -2.567140
    144          6           0        7.301458   -0.038896   -1.557346
    145          8           0        8.019066    0.869490   -1.122290
    146          6           0        7.302730   -0.640693   -3.956687
    147          1           0        6.921933   -2.922470   -3.077036
    148          1           0        8.854622   -1.118316   -2.500285
    149          1           0        7.385429    0.445922   -3.995788
    150          1           0        7.937010   -1.133272   -4.690414
    151          1           0        6.298895   -1.053619   -4.069418
    152          7           0        6.031999   -0.079472   -1.185825
    153          6           0        5.478543    0.699915   -0.088081
    154          6           0        6.136790    0.493476    1.262695
    155          8           0        6.455076    1.417800    2.007086
    156          6           0        4.012080    0.292596    0.086492
    157          6           0        3.059887    0.937334   -0.920207
    158          6           0        1.575743    0.608208   -0.822271
    159          8           0        1.120940   -0.267207   -1.583129
    160          8           0        0.812535    1.230405   -0.055730
    161          1           0        5.446604   -0.849084   -1.466733
    162          1           0        5.463689    1.782908   -0.221893
    163          1           0        3.684192    0.461532    1.108279
    164          1           0        3.941284   -0.794154   -0.003861
    165          1           0        3.429081    0.884932   -1.938317
    166          1           0        3.083467    2.007983   -0.686635
    167          7           0        6.404386   -0.785119    1.574445
    168          6           0        7.058025   -1.181791    2.805260
    169          1           0        8.121956   -0.953462    2.741095
    170          1           0        6.619861   -0.637625    3.641630
    171          1           0        6.925826   -2.252944    2.959373
    172          1           0        6.015169   -1.469362    0.953058
    173         20           0       -1.399483    0.405492   -1.523584
    174          8           0       -1.114354    0.229945   -4.384700
    175          1           0       -1.683747    0.559460   -5.086278
    176          1           0       -0.332895   -0.086794   -4.838572
 ---------------------------------------------------------------------

 SCF Done:  E(RB3LYP) =  -5333.55739216     A.U. after   15 cycles

 The electronic state is 1-A.
 Alpha  occ. eigenvalues -- -145.34665 -19.16478 -19.14878 -19.14081 -19.12808
 Alpha  occ. eigenvalues --  -19.11834 -19.10957 -19.10882 -19.09553 -19.08061
 Alpha  occ. eigenvalues --  -19.06593 -19.05845 -19.05575 -19.05475 -19.05043
 Alpha  occ. eigenvalues --  -19.04977 -19.04875 -19.04821 -19.04784 -19.04525
 Alpha  occ. eigenvalues --  -19.03732 -19.03652 -19.03642 -19.03435 -15.40392
 Alpha  occ. eigenvalues --  -14.57112 -14.39198 -14.37544 -14.36563 -14.35992
 Alpha  occ. eigenvalues --  -14.35905 -14.34482 -14.32718 -14.31741 -14.31702
 Alpha  occ. eigenvalues --  -14.31004 -14.30718 -14.29943 -14.29840 -14.29719
 Alpha  occ. eigenvalues --  -12.54009 -12.53978 -12.53946 -10.34174 -10.31339
 Alpha  occ. eigenvalues --  -10.30068 -10.29579 -10.29491 -10.28547 -10.27144
 Alpha  occ. eigenvalues --  -10.26983 -10.26748 -10.26296 -10.26100 -10.25406
 Alpha  occ. eigenvalues --  -10.25280 -10.24542 -10.24155 -10.24083 -10.23987
 Alpha  occ. eigenvalues --  -10.23975 -10.23897 -10.23873 -10.23566 -10.23562
 Alpha  occ. eigenvalues --  -10.23377 -10.22865 -10.22818 -10.22607 -10.22418
 Alpha  occ. eigenvalues --  -10.21436 -10.21374 -10.20942 -10.20861 -10.20430
 Alpha  occ. eigenvalues --  -10.20205 -10.19881 -10.19192 -10.18870 -10.18837
 Alpha  occ. eigenvalues --  -10.18612 -10.18513 -10.18446 -10.17925 -10.17502
 Alpha  occ. eigenvalues --  -10.17276 -10.17230 -10.17128 -10.16922 -10.16829
 Alpha  occ. eigenvalues --  -10.16679 -10.16614 -10.16510 -10.16169 -10.15809
 Alpha  occ. eigenvalues --  -10.15759 -10.14913  -1.77230  -1.12661  -1.06707
 Alpha  occ. eigenvalues --   -1.05088  -1.04825  -1.04778  -1.04689  -1.04414
 Alpha  occ. eigenvalues --   -1.04232  -1.03269  -1.02843  -1.02412  -1.01201
 Alpha  occ. eigenvalues --   -1.00821  -0.99958  -0.99796  -0.99553  -0.99145
 Alpha  occ. eigenvalues --   -0.98946  -0.98509  -0.98336  -0.98250  -0.98144
 Alpha  occ. eigenvalues --   -0.97883  -0.97244  -0.96267  -0.93792  -0.93432
 Alpha  occ. eigenvalues --   -0.92117  -0.90863  -0.90653  -0.89588  -0.89390
 Alpha  occ. eigenvalues --   -0.89052  -0.88863  -0.88605  -0.88128  -0.87881
 Alpha  occ. eigenvalues --   -0.87657  -0.87292  -0.87289  -0.87023  -0.86123
 Alpha  occ. eigenvalues --   -0.82706  -0.82422  -0.81207  -0.80778  -0.79280
 Alpha  occ. eigenvalues --   -0.78128  -0.76991  -0.76920  -0.75901  -0.75609
 Alpha  occ. eigenvalues --   -0.74495  -0.74097  -0.73782  -0.72560  -0.71886
 Alpha  occ. eigenvalues --   -0.71631  -0.70684  -0.70661  -0.70193  -0.69758
 Alpha  occ. eigenvalues --   -0.69460  -0.69399  -0.68757  -0.67606  -0.67399
 Alpha  occ. eigenvalues --   -0.66762  -0.65534  -0.65180  -0.64148  -0.63802
 Alpha  occ. eigenvalues --   -0.63628  -0.63276  -0.62371  -0.62064  -0.61236
 Alpha  occ. eigenvalues --   -0.60694  -0.60148  -0.60066  -0.60047  -0.59593
 Alpha  occ. eigenvalues --   -0.58926  -0.58720  -0.57604  -0.57141  -0.56834
 Alpha  occ. eigenvalues --   -0.56545  -0.55805  -0.55626  -0.55195  -0.55084
 Alpha  occ. eigenvalues --   -0.55059  -0.54592  -0.54471  -0.54332  -0.54217
 Alpha  occ. eigenvalues --   -0.54096  -0.53557  -0.53356  -0.53097  -0.52588
 Alpha  occ. eigenvalues --   -0.52461  -0.52290  -0.51666  -0.51360  -0.50917
 Alpha  occ. eigenvalues --   -0.50662  -0.50320  -0.50017  -0.49944  -0.49784
 Alpha  occ. eigenvalues --   -0.49044  -0.48687  -0.48484  -0.48178  -0.47736
 Alpha  occ. eigenvalues --   -0.47685  -0.47514  -0.47371  -0.47131  -0.46912
 Alpha  occ. eigenvalues --   -0.46546  -0.46292  -0.46135  -0.45917  -0.45830
 Alpha  occ. eigenvalues --   -0.45441  -0.45360  -0.45205  -0.45036  -0.44749
 Alpha  occ. eigenvalues --   -0.44471  -0.44327  -0.43873  -0.43710  -0.43571
 Alpha  occ. eigenvalues --   -0.43261  -0.43179  -0.42917  -0.42906  -0.42813
 Alpha  occ. eigenvalues --   -0.42595  -0.42527  -0.42440  -0.42333  -0.42222
 Alpha  occ. eigenvalues --   -0.41984  -0.41847  -0.41626  -0.41455  -0.41288
 Alpha  occ. eigenvalues --   -0.41250  -0.41017  -0.40865  -0.40700  -0.40671
 Alpha  occ. eigenvalues --   -0.40478  -0.40429  -0.40298  -0.40271  -0.40252
 Alpha  occ. eigenvalues --   -0.40139  -0.39997  -0.39866  -0.39616  -0.39439
 Alpha  occ. eigenvalues --   -0.39348  -0.39131  -0.39059  -0.38910  -0.38859
 Alpha  occ. eigenvalues --   -0.38751  -0.38585  -0.38480  -0.38254  -0.38026
 Alpha  occ. eigenvalues --   -0.37918  -0.37855  -0.37695  -0.37472  -0.37375
 Alpha  occ. eigenvalues --   -0.37077  -0.36876  -0.36784  -0.36629  -0.36487
 Alpha  occ. eigenvalues --   -0.36383  -0.36161  -0.36099  -0.35795  -0.35688
 Alpha  occ. eigenvalues --   -0.35640  -0.35600  -0.35541  -0.35391  -0.34949
 Alpha  occ. eigenvalues --   -0.34820  -0.34296  -0.34173  -0.34085  -0.33903
 Alpha  occ. eigenvalues --   -0.33808  -0.33735  -0.33506  -0.33268  -0.33202
 Alpha  occ. eigenvalues --   -0.32889  -0.32235  -0.32182  -0.31968  -0.31917
 Alpha  occ. eigenvalues --   -0.31903  -0.31781  -0.31497  -0.31182  -0.31082
 Alpha  occ. eigenvalues --   -0.30994  -0.30698  -0.30565  -0.30534  -0.30311
 Alpha  occ. eigenvalues --   -0.28363  -0.28350  -0.28246  -0.28066  -0.27235
 Alpha  occ. eigenvalues --   -0.26656  -0.26568  -0.26215  -0.25740  -0.25254
 Alpha  occ. eigenvalues --   -0.24753  -0.24342  -0.24112  -0.23773  -0.23741
 Alpha  occ. eigenvalues --   -0.23726  -0.23489  -0.23411  -0.22798  -0.22637
 Alpha  occ. eigenvalues --   -0.22474  -0.22350  -0.22080  -0.21901  -0.21799
 Alpha  occ. eigenvalues --   -0.21688  -0.21095  -0.21085  -0.20614  -0.20351
 Alpha  occ. eigenvalues --   -0.20227  -0.20142  -0.20067  -0.19897  -0.19712
 Alpha  occ. eigenvalues --   -0.19078  -0.18943  -0.18703
 Alpha virt. eigenvalues --   -0.09328  -0.04228  -0.02156  -0.02128  -0.01805
 Alpha virt. eigenvalues --   -0.00721  -0.00584   0.00303   0.00412   0.00690
 Alpha virt. eigenvalues --    0.01272   0.01585   0.01898   0.02731   0.02838

 Mulliken charges:
               1
     1  C    0.069989
     2  C    0.000135
     3  O   -0.297191
     4  H    0.038147
     5  H    0.011219
     6  H    0.023910
     7  N   -0.131890
     8  C    0.131524
     9  C    0.025342
    10  O   -0.309557
    11  C    0.111045
    12  C    0.152290
    13  O   -0.476739
    14  O   -0.376563
    15  H    0.103497
    16  H    0.016549
    17  H    0.017637
    18  H    0.001689
    19  N   -0.134161
    20  C    0.163486
    21  C    0.048271
    22  O   -0.341616
    23  C    0.050177
    24  C   -0.069105
    25  C   -0.021912
    26  C    0.062302
    27  N    0.069283
    28  H    0.142225
    29  H    0.001078
    30  H    0.014003
    31  H    0.046744
    32  H    0.000670
    33  H    0.012299
    34  H    0.033385
    35  H    0.071909
    36  H    0.073880
    37  H    0.070015
    38  H    0.194267
    39  H    0.172348
    40  H    0.182918
    41  N   -0.128070
    42  C    0.088843
    43  C    0.058719
    44  O   -0.295925
    45  C    0.202378
    46  C    0.047860
    47  O   -0.439158
    48  O   -0.424728
    49  H    0.180960
    50  H    0.011029
    51  H   -0.008263
    52  H    0.004509
    53  N   -0.217748
    54  C    0.298071
    55  C   -0.000283
    56  O   -0.304399
    57  H    0.125546
    58  H    0.028202
    59  H    0.032427
    60  N   -0.147869
    61  C    0.170469
    62  C    0.024159
    63  O   -0.309459
    64  C    0.088228
    65  C    0.100106
    66  N   -0.042460
    67  O   -0.344628
    68  H    0.131930
    69  H    0.033072
    70  H    0.045678
    71  H   -0.016201
    72  H    0.126125
    73  H    0.128222
    74  N   -0.158625
    75  C    0.252240
    76  C    0.021429
    77  O   -0.301116
    78  H    0.154814
    79  H    0.038283
    80  H    0.038070
    81  N   -0.154321
    82  C    0.087158
    83  C    0.170389
    84  O   -0.329656
    85  C    0.164079
    86  C   -0.037620
    87  C    0.016562
    88  C    0.030811
    89  C   -0.035423
    90  C   -0.045868
    91  C    0.197228
    92  O   -0.213170
    93  H    0.134008
    94  H   -0.028131
    95  H   -0.021449
    96  H   -0.047360
    97  H   -0.035260
    98  H   -0.032754
    99  H   -0.029506
   100  H   -0.035148
   101  H    0.172054
   102  N   -0.130864
   103  C    0.163804
   104  C    0.066276
   105  O   -0.300137
   106  C   -0.136993
   107  C    0.025078
   108  C    0.061193
   109  C    0.033537
   110  H    0.144936
   111  H    0.036455
   112  H   -0.013953
   113  H   -0.009323
   114  H    0.018507
   115  H    0.003445
   116  H    0.020780
   117  H    0.000296
   118  H    0.005919
   119  H    0.012623
   120  H    0.013813
   121  N   -0.108864
   122  C    0.134822
   123  C    0.069033
   124  O   -0.269464
   125  C    0.190585
   126  O   -0.280178
   127  H    0.152212
   128  H    0.038883
   129  H    0.015999
   130  H   -0.039425
   131  H    0.167606
   132  N   -0.128149
   133  C    0.115564
   134  C    0.085795
   135  O   -0.248163
   136  C    0.031580
   137  H    0.107474
   138  H    0.037137
   139  H    0.045151
   140  H    0.039900
   141  H   -0.014935
   142  N   -0.141205
   143  C    0.087837
   144  C    0.054736
   145  O   -0.269635
   146  C    0.052573
   147  H    0.086769
   148  H    0.015221
   149  H    0.050136
   150  H    0.019753
   151  H   -0.010767
   152  N   -0.108901
   153  C    0.133743
   154  C    0.050734
   155  O   -0.272068
   156  C   -0.062257
   157  C    0.147643
   158  C    0.136644
   159  O   -0.456538
   160  O   -0.373823
   161  H    0.107809
   162  H   -0.019044
   163  H    0.045791
   164  H   -0.023962
   165  H   -0.034623
   166  H   -0.032577
   167  N   -0.178485
   168  C    0.157377
   169  H    0.024677
   170  H    0.016323
   171  H    0.004449
   172  H    0.122609
   173  Ca   1.271970
   174  O   -0.267325
   175  H    0.172198
   176  H    0.161702
 Sum of Mulliken charges =  -0.00000

 Dipole moment (field-independent basis, Debye):
    X=             25.5558    Y=             11.1473    Z=            -15.3636  Tot=             31.8339
 Quadrupole moment (field-independent basis, Debye-Ang):
   XX=           -645.7949   YY=           -337.4314   ZZ=           -488.2649
   XY=            112.4980   XZ=            -23.3865   YZ=             28.7132

 ESP charges:
               1
     1  C   -0.443287
     2  C    0.848434
     3  O   -0.670773
     4  H    0.140649
     5  H    0.088092
     6  H    0.109010
     7  N   -0.770124
     8  C    0.279284
     9  C    0.542496
    10  O   -0.604187
    11  C   -0.238353
    12  C    0.829012
    13  O   -0.826287
    14  O   -0.716809
    15  H    0.339064
    16  H    0.127531
    17  H    0.088178
    18  H    0.036249
    19  N   -0.519665
    20  C    0.361526
    21  C    0.577860
    22  O   -0.600640
    23  C   -0.382944
    24  C    0.068507
    25  C    0.014226
    26  C   -0.073941
    27  N   -0.302985
    28  H    0.355171
    29  H    0.003548
    30  H    0.088448
    31  H    0.144240
    32  H    0.022140
    33  H   -0.010894
    34  H    0.038751
    35  H    0.069905
    36  H    0.102515
    37  H    0.102300
    38  H    0.329037
    39  H    0.298051
    40  H    0.307865
    41  N   -0.533910
    42  C    0.313439
    43  C    0.359288
    44  O   -0.544524
    45  C   -0.571173
    46  C    0.868250
    47  O   -0.732927
    48  O   -0.756707
    49  H    0.197628
    50  H    0.062253
    51  H    0.144976
    52  H    0.153902
    53  N   -0.073439
    54  C   -0.400946
    55  C    0.649272
    56  O   -0.599478
    57  H    0.175636
    58  H    0.187340
    59  H    0.159605
    60  N   -0.301358
    61  C   -0.135124
    62  C    0.503695
    63  O   -0.570252
    64  C   -0.152915
    65  C    0.592866
    66  N   -0.747767
    67  O   -0.580845
    68  H    0.205165
    69  H    0.153987
    70  H    0.115105
    71  H    0.060648
    72  H    0.365676
    73  H    0.361658
    74  N   -0.050199
    75  C   -0.409323
    76  C    0.784966
    77  O   -0.611363
    78  H    0.172417
    79  H    0.166394
    80  H    0.154075
    81  N   -0.640833
    82  C    0.255950
    83  C    0.679870
    84  O   -0.645892
    85  C   -0.006286
    86  C    0.008060
    87  C   -0.193258
    88  C   -0.119592
    89  C   -0.209724
    90  C   -0.301221
    91  C    0.400331
    92  O   -0.586292
    93  H    0.296603
    94  H    0.036264
    95  H    0.016252
    96  H   -0.054088
    97  H    0.135737
    98  H    0.165192
    99  H    0.139713
   100  H    0.133397
   101  H    0.424781
   102  N   -0.704311
   103  C    0.127741
   104  C    0.568508
   105  O   -0.568126
   106  C    0.295675
   107  C    0.099905
   108  C   -0.221982
   109  C   -0.281758
   110  H    0.311874
   111  H    0.065283
   112  H   -0.048060
   113  H   -0.017246
   114  H   -0.010943
   115  H    0.055889
   116  H    0.041934
   117  H    0.003093
   118  H    0.065142
   119  H    0.062230
   120  H    0.080554
   121  N   -0.308895
   122  C    0.023504
   123  C    0.507391
   124  O   -0.362143
   125  C   -0.020211
   126  O   -0.448040
   127  H    0.205197
   128  H    0.091855
   129  H    0.083818
   130  H    0.015282
   131  H    0.382999
   132  N   -0.517340
   133  C    0.140219
   134  C    0.510016
   135  O   -0.511002
   136  C   -0.330344
   137  H    0.307749
   138  H    0.102209
   139  H    0.106721
   140  H    0.122080
   141  H    0.069193
   142  N   -0.423331
   143  C    0.231544
   144  C    0.337698
   145  O   -0.494010
   146  C   -0.482772
   147  H    0.262519
   148  H    0.062273
   149  H    0.168125
   150  H    0.130280
   151  H    0.107530
   152  N   -0.069726
   153  C   -0.243739
   154  C    0.527244
   155  O   -0.558817
   156  C    0.304520
   157  C   -0.147968
   158  C    0.791994
   159  O   -0.775017
   160  O   -0.752448
   161  H    0.037413
   162  H    0.103608
   163  H   -0.013813
   164  H   -0.130328
   165  H    0.009649
   166  H   -0.006101
   167  N    0.017946
   168  C   -0.269582
   169  H    0.108654
   170  H    0.091117
   171  H    0.094098
   172  H   -0.004034
   173  Ca   1.687508
   174  O   -0.847861
   175  H    0.416777
   176  H    0.411233
 Sum of ESP charges =  -0.00000

 Normal termination of Gaussian 16 at Wed Sep 18 16:07:32 2019.
