 Gaussian 16, Revision A.03,
 Gaussian 16:  ES64L-G16RevA.03 25-Dec-2016

 ----------------------------------------------------------------------
 #b3lyp/svp scf=(tight,noincore) Test #IOP(5/87=12) Density=Current Pop
 =(MK,readradii) iop(6/33=2) iop(6/42=6)
 ----------------------------------------------------------------------

 -----------------
 CaMKII_loop3_34.0
 -----------------
 Symbolic Z-matrix:
 Charge =  0 Multiplicity = 1

                         Standard orientation:
 ---------------------------------------------------------------------
 Center     Atomic      Atomic             Coordinates (Angstroms)
 Number     Number       Type             X           Y           Z
 ---------------------------------------------------------------------
      1          6           0        2.459387    1.126195    5.581078
      2          6           0        1.790553    1.416397    4.238751
      3          8           0        2.544762    1.384541    3.272752
      4          1           0        1.797109    1.433495    6.390421
      5          1           0        2.661489    0.058372    5.663184
      6          1           0        3.395496    1.679555    5.648174
      7          7           0        0.480471    1.663553    4.238492
      8          6           0       -0.180881    1.874128    2.960223
      9          6           0        0.158649    3.233030    2.375840
     10          8           0       -0.382287    4.265693    2.762614
     11          6           0       -1.680301    1.687962    3.158415
     12          6           0       -2.536132    1.788176    1.904616
     13          8           0       -3.774535    1.794013    2.104925
     14          8           0       -2.143535    1.793134    0.711283
     15          1           0       -0.181586    1.606291    4.995527
     16          1           0        0.096703    1.175197    2.177636
     17          1           0       -2.042448    2.344483    3.948118
     18          1           0       -1.827487    0.647144    3.469439
     19          7           0        1.041256    3.237994    1.370365
     20          6           0        1.620323    4.364185    0.671670
     21          6           0        0.570206    5.129528   -0.107307
     22          8           0        0.695444    6.357273   -0.211506
     23          6           0        2.858079    3.999844   -0.141237
     24          6           0        3.703147    5.204365   -0.542597
     25          6           0        5.104573    4.816203   -0.999912
     26          6           0        5.712299    6.118754   -1.529563
     27          7           0        7.156839    5.945646   -1.724594
     28          1           0        1.391682    2.328528    1.112152
     29          1           0        1.899293    5.063657    1.466411
     30          1           0        2.548056    3.544261   -1.088142
     31          1           0        3.379033    3.366551    0.574896
     32          1           0        3.914455    5.763794    0.370085
     33          1           0        3.244251    5.964799   -1.168818
     34          1           0        5.068650    4.109473   -1.816455
     35          1           0        5.708202    4.480064   -0.158222
     36          1           0        5.488527    6.847622   -0.744148
     37          1           0        5.220061    6.592584   -2.377023
     38          1           0        7.356677    5.090603   -2.239441
     39          1           0        7.572478    6.766252   -2.125280
     40          1           0        7.704313    5.777545   -0.886015
     41          7           0       -0.469118    4.496138   -0.676449
     42          6           0       -1.435333    5.172487   -1.508723
     43          6           0       -2.803263    5.196654   -0.841201
     44          8           0       -3.730180    5.726318   -1.434228
     45          6           0       -1.454595    4.665086   -2.948956
     46          6           0       -1.624883    3.160666   -3.089750
     47          8           0       -1.261305    2.666386   -4.174369
     48          8           0       -2.172036    2.535263   -2.146939
     49          1           0       -0.387861    3.488886   -0.682896
     50          1           0       -1.209648    6.234708   -1.630591
     51          1           0       -0.488915    4.869821   -3.406718
     52          1           0       -2.147884    5.221719   -3.570093
     53          7           0       -3.003161    4.589836    0.333921
     54          6           0       -4.231649    4.574377    1.101370
     55          6           0       -5.415864    3.774645    0.559372
     56          8           0       -6.546492    4.185930    0.817102
     57          1           0       -2.315262    3.916499    0.631095
     58          1           0       -4.488245    5.620206    1.277722
     59          1           0       -4.120835    4.067901    2.055835
     60          7           0       -5.089762    2.706616   -0.174094
     61          6           0       -6.081226    1.981593   -0.931419
     62          6           0       -6.690689    0.821827   -0.147584
     63          8           0       -7.578300    0.159970   -0.685536
     64          6           0       -5.629567    1.592962   -2.335225
     65          6           0       -4.931322    0.249416   -2.424331
     66          7           0       -5.319595   -0.702970   -3.270915
     67          8           0       -3.942602   -0.054133   -1.758831
     68          1           0       -4.097920    2.547468   -0.283280
     69          1           0       -6.928276    2.670522   -1.017341
     70          1           0       -5.010233    2.366402   -2.788675
     71          1           0       -6.560454    1.463979   -2.881680
     72          1           0       -6.005601   -0.381706   -3.943511
     73          1           0       -4.726482   -1.501261   -3.383377
     74          7           0       -6.151418    0.512685    1.031788
     75          6           0       -6.572003   -0.614509    1.837171
     76          6           0       -5.673322   -1.823452    1.671857
     77          8           0       -6.020386   -2.896675    2.168887
     78          1           0       -5.550940    1.221477    1.444632
     79          1           0       -7.606093   -0.938129    1.672770
     80          1           0       -6.529313   -0.305404    2.879875
     81          7           0       -4.514738   -1.688411    1.039364
     82          6           0       -3.546667   -2.754103    0.866049
     83          6           0       -2.079736   -2.388960    1.053359
     84          8           0       -1.708802   -1.230164    0.858169
     85          6           0       -3.734138   -3.330116   -0.536792
     86          6           0       -5.045279   -4.015822   -0.825438
     87          6           0       -5.161654   -5.412433   -0.905644
     88          6           0       -6.213774   -3.295611   -1.101870
     89          6           0       -6.372503   -6.070596   -1.131180
     90          6           0       -7.476502   -3.889646   -1.266610
     91          6           0       -7.533772   -5.298596   -1.280076
     92          8           0       -8.757249   -5.898151   -1.390696
     93          1           0       -4.310381   -0.737775    0.771915
     94          1           0       -3.732554   -3.541212    1.596875
     95          1           0       -3.005501   -4.133890   -0.659411
     96          1           0       -3.472296   -2.446927   -1.113347
     97          1           0       -4.259775   -5.977347   -0.735974
     98          1           0       -6.211283   -2.216729   -1.148858
     99          1           0       -6.475184   -7.147814   -1.210918
    100          1           0       -8.343048   -3.296109   -1.492247
    101          1           0       -9.463231   -5.274846   -1.203134
    102          7           0       -1.193135   -3.291106    1.476882
    103          6           0        0.244782   -3.081220    1.419951
    104          6           0        0.990546   -3.823555    0.321099
    105          8           0        0.945853   -5.052617    0.250339
    106          6           0        0.757373   -3.581380    2.759948
    107          6           0        0.150032   -2.924087    3.999182
    108          6           0        2.269771   -3.361375    2.805244
    109          6           0        0.256818   -3.769607    5.260131
    110          1           0       -1.568606   -4.133467    1.873933
    111          1           0        0.465884   -2.018929    1.384564
    112          1           0        0.593649   -4.659218    2.752136
    113          1           0       -0.905188   -2.697354    3.856345
    114          1           0        0.646914   -1.952347    4.059427
    115          1           0        2.807299   -4.116532    2.233054
    116          1           0        2.417417   -2.361118    2.384427
    117          1           0        2.752738   -3.422962    3.779076
    118          1           0       -0.344199   -3.303832    6.037325
    119          1           0       -0.090078   -4.789244    5.080678
    120          1           0        1.299869   -3.945850    5.489006
    121          7           0        1.709470   -3.110138   -0.543300
    122          6           0        2.679083   -3.656622   -1.468559
    123          6           0        4.097031   -3.731999   -0.919250
    124          8           0        4.510300   -3.125615    0.073477
    125          6           0        2.587013   -2.952490   -2.821120
    126          8           0        1.261720   -3.066851   -3.301768
    127          1           0        1.587941   -2.110338   -0.469602
    128          1           0        2.404938   -4.685569   -1.696183
    129          1           0        3.225702   -3.522731   -3.492165
    130          1           0        2.882033   -1.917390   -2.702246
    131          1           0        1.243973   -3.042153   -4.250912
    132          7           0        4.954381   -4.524882   -1.555400
    133          6           0        6.323102   -4.630266   -1.095400
    134          6           0        7.104829   -3.320890   -1.118616
    135          8           0        7.897994   -3.019301   -0.238484
    136          6           0        7.080671   -5.697304   -1.881159
    137          1           0        4.713696   -5.056251   -2.382937
    138          1           0        6.319007   -4.945025   -0.054675
    139          1           0        6.670792   -6.698075   -1.769103
    140          1           0        7.163169   -5.503898   -2.952321
    141          1           0        8.136907   -5.813737   -1.616943
    142          7           0        6.873103   -2.521995   -2.160667
    143          6           0        7.409700   -1.187467   -2.347217
    144          6           0        6.907848   -0.230131   -1.270299
    145          8           0        7.505374    0.796713   -0.950373
    146          6           0        6.973883   -0.717776   -3.729373
    147          1           0        6.288820   -2.909789   -2.885117
    148          1           0        8.501577   -1.171434   -2.289357
    149          1           0        7.355303    0.294820   -3.814039
    150          1           0        7.432656   -1.379142   -4.467697
    151          1           0        5.888064   -0.631696   -3.781213
    152          7           0        5.797272   -0.520101   -0.583103
    153          6           0        5.263195    0.338802    0.451714
    154          6           0        5.812135   -0.038655    1.816665
    155          8           0        6.253663    0.841472    2.556280
    156          6           0        3.740309    0.313661    0.417269
    157          6           0        3.180730    0.540411   -0.988596
    158          6           0        1.661405    0.534672   -0.907236
    159          8           0        0.934762    1.505555   -1.212485
    160          8           0        1.054748   -0.454763   -0.424033
    161          1           0        5.397577   -1.443153   -0.603547
    162          1           0        5.562903    1.386818    0.380034
    163          1           0        3.325014    1.022984    1.128951
    164          1           0        3.345697   -0.628973    0.790260
    165          1           0        3.547862   -0.278449   -1.604456
    166          1           0        3.574886    1.442498   -1.454084
    167          7           0        6.006511   -1.346319    2.024594
    168          6           0        6.647859   -1.911868    3.198019
    169          1           0        7.670547   -1.540029    3.266958
    170          1           0        6.095398   -1.620829    4.091247
    171          1           0        6.661127   -2.998627    3.116918
    172          1           0        5.723518   -1.992189    1.304757
    173         20           0       -1.421984    0.317919   -1.220815
    174          8           0       -1.234402   -2.164200   -2.064556
    175          1           0       -1.787990   -2.726117   -2.590665
    176          1           0       -0.345244   -2.436838   -2.271599
 ---------------------------------------------------------------------

 SCF Done:  E(RB3LYP) =  -5333.59721917     A.U. after   20 cycles

 The electronic state is 1-A.
 Alpha  occ. eigenvalues -- -145.35476 -19.19594 -19.17394 -19.15736 -19.14171
 Alpha  occ. eigenvalues --  -19.12858 -19.11078 -19.10703 -19.10522 -19.10035
 Alpha  occ. eigenvalues --  -19.09012 -19.08611 -19.08243 -19.07368 -19.06335
 Alpha  occ. eigenvalues --  -19.05906 -19.05588 -19.05265 -19.04552 -19.03027
 Alpha  occ. eigenvalues --  -19.02459 -19.02134 -19.01955 -19.00225 -15.41227
 Alpha  occ. eigenvalues --  -14.58457 -14.41657 -14.39409 -14.36680 -14.36021
 Alpha  occ. eigenvalues --  -14.35524 -14.35505 -14.35125 -14.33241 -14.32672
 Alpha  occ. eigenvalues --  -14.32422 -14.31083 -14.30473 -14.28656 -14.27507
 Alpha  occ. eigenvalues --  -12.54845 -12.54815 -12.54775 -10.34153 -10.34056
 Alpha  occ. eigenvalues --  -10.31617 -10.29741 -10.29610 -10.29584 -10.29169
 Alpha  occ. eigenvalues --  -10.28751 -10.28005 -10.27740 -10.27514 -10.27368
 Alpha  occ. eigenvalues --  -10.26948 -10.26545 -10.25990 -10.24916 -10.24805
 Alpha  occ. eigenvalues --  -10.24193 -10.24043 -10.23554 -10.23525 -10.23318
 Alpha  occ. eigenvalues --  -10.23114 -10.22987 -10.22883 -10.22309 -10.22261
 Alpha  occ. eigenvalues --  -10.21409 -10.21396 -10.20853 -10.20802 -10.20459
 Alpha  occ. eigenvalues --  -10.20388 -10.20238 -10.19664 -10.19527 -10.19513
 Alpha  occ. eigenvalues --  -10.18741 -10.18636 -10.18368 -10.18261 -10.17808
 Alpha  occ. eigenvalues --  -10.17709 -10.17660 -10.17549 -10.17453 -10.17106
 Alpha  occ. eigenvalues --  -10.17104 -10.17075 -10.16671 -10.16626 -10.16304
 Alpha  occ. eigenvalues --  -10.15155 -10.12376  -1.78179  -1.13573  -1.09177
 Alpha  occ. eigenvalues --   -1.07714  -1.06228  -1.06117  -1.05920  -1.05695
 Alpha  occ. eigenvalues --   -1.04210  -1.04024  -1.03971  -1.03613  -1.03529
 Alpha  occ. eigenvalues --   -1.03012  -1.02830  -1.01639  -1.00015  -0.99513
 Alpha  occ. eigenvalues --   -0.99351  -0.98565  -0.98357  -0.98064  -0.97920
 Alpha  occ. eigenvalues --   -0.96175  -0.95943  -0.95583  -0.95103  -0.93443
 Alpha  occ. eigenvalues --   -0.93193  -0.92743  -0.92382  -0.91619  -0.90122
 Alpha  occ. eigenvalues --   -0.89845  -0.89791  -0.89326  -0.88571  -0.88238
 Alpha  occ. eigenvalues --   -0.87471  -0.87083  -0.86390  -0.86040  -0.83889
 Alpha  occ. eigenvalues --   -0.83835  -0.83016  -0.82056  -0.81237  -0.80724
 Alpha  occ. eigenvalues --   -0.79553  -0.79283  -0.77926  -0.76719  -0.75718
 Alpha  occ. eigenvalues --   -0.75359  -0.74682  -0.73403  -0.73266  -0.72344
 Alpha  occ. eigenvalues --   -0.72164  -0.71577  -0.71426  -0.70828  -0.70508
 Alpha  occ. eigenvalues --   -0.70444  -0.69940  -0.69270  -0.68508  -0.67552
 Alpha  occ. eigenvalues --   -0.67314  -0.66983  -0.65996  -0.64309  -0.64207
 Alpha  occ. eigenvalues --   -0.63608  -0.63573  -0.63170  -0.62843  -0.61558
 Alpha  occ. eigenvalues --   -0.61241  -0.61113  -0.60943  -0.60454  -0.60093
 Alpha  occ. eigenvalues --   -0.59792  -0.59524  -0.59503  -0.58207  -0.57840
 Alpha  occ. eigenvalues --   -0.57506  -0.57270  -0.56944  -0.56709  -0.56336
 Alpha  occ. eigenvalues --   -0.56119  -0.55677  -0.55348  -0.55145  -0.54936
 Alpha  occ. eigenvalues --   -0.54552  -0.54285  -0.54154  -0.53853  -0.53502
 Alpha  occ. eigenvalues --   -0.53318  -0.52871  -0.52429  -0.51832  -0.51747
 Alpha  occ. eigenvalues --   -0.51181  -0.50937  -0.50686  -0.50542  -0.50159
 Alpha  occ. eigenvalues --   -0.50103  -0.49591  -0.49161  -0.48709  -0.48579
 Alpha  occ. eigenvalues --   -0.48410  -0.48122  -0.47854  -0.47714  -0.47668
 Alpha  occ. eigenvalues --   -0.47427  -0.47329  -0.47077  -0.46853  -0.46701
 Alpha  occ. eigenvalues --   -0.46354  -0.46336  -0.46226  -0.46035  -0.45776
 Alpha  occ. eigenvalues --   -0.45351  -0.45279  -0.44913  -0.44779  -0.44427
 Alpha  occ. eigenvalues --   -0.44260  -0.44111  -0.44091  -0.43846  -0.43783
 Alpha  occ. eigenvalues --   -0.43552  -0.43444  -0.43322  -0.43216  -0.43028
 Alpha  occ. eigenvalues --   -0.42995  -0.42895  -0.42817  -0.42730  -0.42295
 Alpha  occ. eigenvalues --   -0.42206  -0.41798  -0.41692  -0.41483  -0.41248
 Alpha  occ. eigenvalues --   -0.41107  -0.41058  -0.40913  -0.40735  -0.40625
 Alpha  occ. eigenvalues --   -0.40384  -0.40234  -0.40051  -0.39913  -0.39709
 Alpha  occ. eigenvalues --   -0.39687  -0.39559  -0.39468  -0.39273  -0.39153
 Alpha  occ. eigenvalues --   -0.39043  -0.38929  -0.38898  -0.38782  -0.38622
 Alpha  occ. eigenvalues --   -0.38345  -0.38275  -0.38218  -0.37986  -0.37876
 Alpha  occ. eigenvalues --   -0.37699  -0.37533  -0.37472  -0.37361  -0.37230
 Alpha  occ. eigenvalues --   -0.37174  -0.36835  -0.36754  -0.36380  -0.36323
 Alpha  occ. eigenvalues --   -0.35971  -0.35912  -0.35703  -0.35530  -0.35250
 Alpha  occ. eigenvalues --   -0.35121  -0.34842  -0.34764  -0.34597  -0.34409
 Alpha  occ. eigenvalues --   -0.34101  -0.34017  -0.33807  -0.33666  -0.33570
 Alpha  occ. eigenvalues --   -0.33224  -0.33020  -0.32910  -0.32718  -0.32509
 Alpha  occ. eigenvalues --   -0.32485  -0.32285  -0.32226  -0.32147  -0.31506
 Alpha  occ. eigenvalues --   -0.31467  -0.31260  -0.31156  -0.30763  -0.29893
 Alpha  occ. eigenvalues --   -0.29224  -0.29005  -0.28736  -0.28446  -0.28163
 Alpha  occ. eigenvalues --   -0.28120  -0.27746  -0.27267  -0.26895  -0.26783
 Alpha  occ. eigenvalues --   -0.26338  -0.26318  -0.26269  -0.25341  -0.24519
 Alpha  occ. eigenvalues --   -0.24313  -0.23781  -0.23765  -0.23654  -0.23608
 Alpha  occ. eigenvalues --   -0.23345  -0.23295  -0.22596  -0.22567  -0.22005
 Alpha  occ. eigenvalues --   -0.21617  -0.21404  -0.20859  -0.20683  -0.20315
 Alpha  occ. eigenvalues --   -0.20227  -0.19691  -0.19379  -0.19006  -0.17719
 Alpha  occ. eigenvalues --   -0.17636  -0.16902  -0.16366
 Alpha virt. eigenvalues --   -0.10214  -0.04794  -0.04606  -0.03822  -0.02476
 Alpha virt. eigenvalues --   -0.01542  -0.01368  -0.00446  -0.00388  -0.00295
 Alpha virt. eigenvalues --    0.00408   0.00797   0.01129   0.01558   0.02049

 Mulliken charges:
               1
     1  C    0.065371
     2  C    0.047054
     3  O   -0.285867
     4  H   -0.011145
     5  H    0.033866
     6  H    0.041124
     7  N   -0.098161
     8  C    0.059640
     9  C    0.063266
    10  O   -0.275754
    11  C    0.070732
    12  C    0.148190
    13  O   -0.398632
    14  O   -0.469019
    15  H    0.128345
    16  H    0.001972
    17  H    0.020183
    18  H    0.014517
    19  N   -0.128500
    20  C    0.139808
    21  C    0.045469
    22  O   -0.315590
    23  C    0.054100
    24  C   -0.033755
    25  C   -0.011740
    26  C   -0.009036
    27  N    0.093863
    28  H    0.142171
    29  H    0.002914
    30  H    0.046118
    31  H    0.031268
    32  H   -0.002830
    33  H    0.033756
    34  H    0.032531
    35  H    0.043873
    36  H    0.068988
    37  H    0.082348
    38  H    0.199305
    39  H    0.185276
    40  H    0.189347
    41  N   -0.144481
    42  C    0.153932
    43  C    0.049254
    44  O   -0.294371
    45  C    0.076818
    46  C    0.110643
    47  O   -0.375077
    48  O   -0.477731
    49  H    0.154195
    50  H    0.010148
    51  H   -0.029647
    52  H    0.015490
    53  N   -0.156900
    54  C    0.212639
    55  C    0.035126
    56  O   -0.297427
    57  H    0.150628
    58  H    0.007347
    59  H    0.028829
    60  N   -0.167468
    61  C    0.139623
    62  C    0.027578
    63  O   -0.310524
    64  C    0.149416
    65  C    0.046522
    66  N   -0.013471
    67  O   -0.377301
    68  H    0.158788
    69  H    0.028387
    70  H    0.081949
    71  H   -0.007778
    72  H    0.128589
    73  H    0.125902
    74  N   -0.166760
    75  C    0.247241
    76  C   -0.002581
    77  O   -0.304969
    78  H    0.171365
    79  H    0.034385
    80  H    0.030709
    81  N   -0.123358
    82  C    0.131684
    83  C    0.130937
    84  O   -0.352951
    85  C    0.126379
    86  C    0.024533
    87  C   -0.019500
    88  C   -0.022793
    89  C   -0.000297
    90  C   -0.035335
    91  C    0.154126
    92  O   -0.211872
    93  H    0.143188
    94  H   -0.008882
    95  H   -0.032955
    96  H   -0.025002
    97  H   -0.047751
    98  H   -0.013886
    99  H   -0.031565
   100  H   -0.034319
   101  H    0.176393
   102  N   -0.114193
   103  C    0.190260
   104  C    0.055722
   105  O   -0.290320
   106  C   -0.191656
   107  C    0.035755
   108  C    0.063180
   109  C    0.060762
   110  H    0.129717
   111  H    0.033811
   112  H   -0.007468
   113  H   -0.011518
   114  H   -0.005910
   115  H    0.010506
   116  H    0.027878
   117  H   -0.000331
   118  H    0.019948
   119  H   -0.004327
   120  H   -0.004741
   121  N   -0.127202
   122  C    0.108708
   123  C    0.110253
   124  O   -0.290036
   125  C    0.255191
   126  O   -0.304531
   127  H    0.136895
   128  H    0.013809
   129  H   -0.024222
   130  H    0.008035
   131  H    0.181927
   132  N   -0.123367
   133  C    0.111008
   134  C    0.018668
   135  O   -0.238310
   136  C    0.023011
   137  H    0.122359
   138  H    0.028594
   139  H    0.036093
   140  H   -0.000133
   141  H    0.042146
   142  N   -0.142643
   143  C    0.112149
   144  C    0.062432
   145  O   -0.296923
   146  C    0.037020
   147  H    0.098558
   148  H    0.027157
   149  H    0.018298
   150  H    0.033972
   151  H    0.014923
   152  N   -0.168641
   153  C    0.136904
   154  C    0.080808
   155  O   -0.280909
   156  C   -0.045336
   157  C    0.148562
   158  C    0.124994
   159  O   -0.388344
   160  O   -0.435583
   161  H    0.146877
   162  H   -0.015717
   163  H    0.033089
   164  H    0.004429
   165  H   -0.056856
   166  H   -0.027747
   167  N   -0.175407
   168  C    0.150865
   169  H    0.023598
   170  H    0.021886
   171  H    0.009736
   172  H    0.123641
   173  Ca   1.271754
   174  O   -0.294705
   175  H    0.176623
   176  H    0.163407
 Sum of Mulliken charges =  -0.00000

 Dipole moment (field-independent basis, Debye):
    X=             38.5251    Y=             -4.9923    Z=            -14.9815  Tot=             41.6359
 Quadrupole moment (field-independent basis, Debye-Ang):
   XX=           -488.7962   YY=           -516.9076   ZZ=           -514.2403
   XY=            157.2007   XZ=            -78.9439   YZ=              2.9840

 ESP charges:
               1
     1  C   -0.435240
     2  C    0.843416
     3  O   -0.647973
     4  H    0.074284
     5  H    0.122089
     6  H    0.133782
     7  N   -0.790619
     8  C    0.443124
     9  C    0.431995
    10  O   -0.524721
    11  C   -0.553659
    12  C    1.008943
    13  O   -0.709384
    14  O   -0.954826
    15  H    0.402736
    16  H   -0.032880
    17  H    0.135574
    18  H    0.112299
    19  N   -0.044008
    20  C   -0.586981
    21  C    0.725728
    22  O   -0.598444
    23  C    0.273617
    24  C   -0.156655
    25  C   -0.176432
    26  C    0.218390
    27  N   -0.533956
    28  H    0.131804
    29  H    0.181574
    30  H    0.028284
    31  H    0.061578
    32  H    0.051547
    33  H    0.082178
    34  H    0.057836
    35  H    0.095277
    36  H    0.046974
    37  H    0.067013
    38  H    0.361550
    39  H    0.360872
    40  H    0.369477
    41  N   -0.456093
    42  C   -0.054641
    43  C    0.558750
    44  O   -0.573032
    45  C   -0.108585
    46  C    0.804284
    47  O   -0.724219
    48  O   -0.818720
    49  H    0.338186
    50  H    0.108807
    51  H    0.014412
    52  H    0.055808
    53  N   -0.275535
    54  C   -0.194973
    55  C    0.644308
    56  O   -0.597951
    57  H    0.184244
    58  H    0.104187
    59  H    0.101971
    60  N   -0.506438
    61  C    0.192736
    62  C    0.285015
    63  O   -0.508124
    64  C   -0.391623
    65  C    0.676919
    66  N   -0.819965
    67  O   -0.544877
    68  H    0.406055
    69  H    0.100118
    70  H    0.189769
    71  H    0.095518
    72  H    0.382465
    73  H    0.393319
    74  N   -0.070667
    75  C   -0.253100
    76  C    0.635875
    77  O   -0.572973
    78  H    0.222754
    79  H    0.130927
    80  H    0.115707
    81  N   -0.613582
    82  C    0.553635
    83  C    0.338425
    84  O   -0.441206
    85  C   -0.069439
    86  C    0.113182
    87  C   -0.268227
    88  C   -0.226550
    89  C   -0.183292
    90  C   -0.239030
    91  C    0.362891
    92  O   -0.580267
    93  H    0.235629
    94  H   -0.035593
    95  H    0.010225
    96  H   -0.082134
    97  H    0.137068
    98  H    0.223569
    99  H    0.146638
   100  H    0.121980
   101  H    0.426137
   102  N   -0.594688
   103  C    0.054972
   104  C    0.605715
   105  O   -0.593952
   106  C    0.369417
   107  C    0.032622
   108  C   -0.276831
   109  C   -0.384015
   110  H    0.309670
   111  H    0.049608
   112  H   -0.065880
   113  H    0.029157
   114  H   -0.000715
   115  H    0.049438
   116  H    0.002103
   117  H    0.082006
   118  H    0.110227
   119  H    0.089071
   120  H    0.080824
   121  N   -0.382257
   122  C    0.036908
   123  C    0.467515
   124  O   -0.390768
   125  C    0.196753
   126  O   -0.586299
   127  H    0.424985
   128  H    0.066331
   129  H    0.009039
   130  H   -0.026294
   131  H    0.414412
   132  N   -0.464958
   133  C    0.149851
   134  C    0.427366
   135  O   -0.500833
   136  C   -0.358787
   137  H    0.302385
   138  H    0.098193
   139  H    0.112518
   140  H    0.086120
   141  H    0.130825
   142  N   -0.299636
   143  C    0.111272
   144  C    0.352844
   145  O   -0.558216
   146  C   -0.353916
   147  H    0.205269
   148  H    0.094283
   149  H    0.112501
   150  H    0.112077
   151  H    0.084835
   152  N    0.180827
   153  C   -0.133380
   154  C    0.581786
   155  O   -0.551904
   156  C   -0.241506
   157  C   -0.531299
   158  C    0.899877
   159  O   -0.771113
   160  O   -0.694444
   161  H   -0.116910
   162  H    0.056300
   163  H    0.210307
   164  H    0.047678
   165  H    0.144070
   166  H    0.127085
   167  N   -0.196646
   168  C   -0.253101
   169  H    0.110498
   170  H    0.097736
   171  H    0.106992
   172  H    0.177706
   173  Ca   1.481395
   174  O   -0.791744
   175  H    0.431697
   176  H    0.328188
 Sum of ESP charges =  -0.00000

 Normal termination of Gaussian 16 at Wed Sep 18 16:11:37 2019.
