 Gaussian 16, Revision A.03,
 Gaussian 16:  ES64L-G16RevA.03 25-Dec-2016

 ----------------------------------------------------------------------
 #b3lyp/svp scf=(tight,noincore) Test #IOP(5/87=12) Density=Current Pop
 =(MK,readradii) iop(6/33=2) iop(6/42=6)
 ----------------------------------------------------------------------

 -----------------
 CaMKII_loop3_45.0
 -----------------
 Symbolic Z-matrix:
 Charge =  0 Multiplicity = 1

                         Standard orientation:
 ---------------------------------------------------------------------
 Center     Atomic      Atomic             Coordinates (Angstroms)
 Number     Number       Type             X           Y           Z
 ---------------------------------------------------------------------
      1          6           0        2.473653    1.789816    5.946780
      2          6           0        1.884865    1.627727    4.554926
      3          8           0        2.542775    1.472150    3.530499
      4          1           0        3.417128    1.248136    6.006408
      5          1           0        2.649173    2.846769    6.147272
      6          1           0        1.778370    1.390052    6.685105
      7          7           0        0.562873    1.693113    4.408772
      8          6           0       -0.099284    1.777611    3.125141
      9          6           0       -0.202338    3.160687    2.486565
     10          8           0       -0.678240    4.115411    3.087745
     11          6           0       -1.410350    1.016100    3.221107
     12          6           0       -2.377398    1.077328    2.036975
     13          8           0       -2.025589    1.660073    0.992974
     14          8           0       -3.511692    0.584712    2.225936
     15          1           0        0.026466    1.679668    5.270507
     16          1           0        0.489825    1.263478    2.362830
     17          1           0       -2.004718    1.296470    4.086509
     18          1           0       -1.164198   -0.050279    3.298858
     19          7           0        0.307331    3.343800    1.270009
     20          6           0        0.599945    4.623736    0.668976
     21          6           0       -0.588115    5.317370    0.024859
     22          8           0       -0.665409    6.538789   -0.125349
     23          6           0        1.760813    4.357214   -0.287450
     24          6           0        2.502806    5.636315   -0.672480
     25          6           0        3.719897    5.294834   -1.524407
     26          6           0        4.465075    6.589273   -1.860912
     27          7           0        5.745082    6.388354   -2.563561
     28          1           0        0.624403    2.508633    0.796025
     29          1           0        0.934857    5.303290    1.446112
     30          1           0        1.316294    3.968189   -1.204871
     31          1           0        2.461026    3.734283    0.261238
     32          1           0        2.830632    6.163892    0.225292
     33          1           0        1.824160    6.253724   -1.255872
     34          1           0        3.286994    4.917815   -2.456690
     35          1           0        4.321204    4.614652   -0.924338
     36          1           0        4.608296    7.159256   -0.952062
     37          1           0        3.738321    7.226493   -2.364975
     38          1           0        5.610942    5.910269   -3.438170
     39          1           0        6.343721    7.191983   -2.650805
     40          1           0        6.363527    5.824631   -1.997309
     41          7           0       -1.543569    4.624902   -0.608540
     42          6           0       -2.748021    5.146291   -1.209497
     43          6           0       -3.986729    4.891055   -0.365366
     44          8           0       -5.110252    5.285576   -0.702780
     45          6           0       -2.885297    4.700967   -2.658926
     46          6           0       -2.917054    3.187718   -2.829720
     47          8           0       -2.811642    2.412244   -1.859912
     48          8           0       -3.000690    2.685602   -3.980322
     49          1           0       -1.353017    3.631337   -0.562522
     50          1           0       -2.624313    6.223087   -1.211778
     51          1           0       -2.112389    5.108529   -3.326912
     52          1           0       -3.882736    4.981247   -3.003538
     53          7           0       -3.946416    4.062667    0.679023
     54          6           0       -5.141592    3.865867    1.483277
     55          6           0       -6.077494    2.856118    0.837603
     56          8           0       -7.282062    2.895847    1.085470
     57          1           0       -3.087442    3.554947    0.832589
     58          1           0       -5.552393    4.859881    1.628806
     59          1           0       -4.803031    3.447466    2.425888
     60          7           0       -5.598229    2.044220   -0.109829
     61          6           0       -6.469444    1.172959   -0.875655
     62          6           0       -6.857257   -0.133047   -0.208610
     63          8           0       -7.841874   -0.735378   -0.643957
     64          6           0       -5.858409    1.041307   -2.267274
     65          6           0       -4.718341    0.034164   -2.378214
     66          7           0       -4.367231   -0.488051   -3.555122
     67          8           0       -4.160621   -0.478092   -1.414138
     68          1           0       -4.685859    2.241693   -0.502111
     69          1           0       -7.383394    1.751347   -0.988187
     70          1           0       -5.482627    2.027015   -2.576738
     71          1           0       -6.657358    0.800090   -2.958791
     72          1           0       -4.858206   -0.265182   -4.411494
     73          1           0       -3.654631   -1.204038   -3.563109
     74          7           0       -6.128661   -0.452968    0.862743
     75          6           0       -6.358321   -1.650023    1.653955
     76          6           0       -5.293013   -2.724483    1.746434
     77          8           0       -5.532030   -3.729068    2.403229
     78          1           0       -5.310916    0.075678    1.128313
     79          1           0       -7.245720   -2.188987    1.332333
     80          1           0       -6.577380   -1.413881    2.696236
     81          7           0       -4.085181   -2.470370    1.240601
     82          6           0       -2.976350   -3.344961    0.896093
     83          6           0       -1.643887   -2.597056    0.974072
     84          8           0       -1.392438   -1.463529    0.572462
     85          6           0       -3.216798   -3.836876   -0.523592
     86          6           0       -4.425569   -4.708424   -0.793176
     87          6           0       -4.549794   -6.075525   -0.554837
     88          6           0       -5.441142   -4.120697   -1.569700
     89          6           0       -5.684720   -6.832051   -0.828533
     90          6           0       -6.626068   -4.815321   -1.812283
     91          6           0       -6.785724   -6.140949   -1.366278
     92          8           0       -7.955848   -6.808227   -1.575199
     93          1           0       -3.968078   -1.618678    0.708147
     94          1           0       -2.980376   -4.229315    1.524187
     95          1           0       -2.351539   -4.464611   -0.744667
     96          1           0       -3.210796   -2.990572   -1.207795
     97          1           0       -3.730686   -6.539196   -0.006593
     98          1           0       -5.437131   -3.067662   -1.832764
     99          1           0       -5.727492   -7.916310   -0.748834
    100          1           0       -7.461704   -4.315198   -2.269983
    101          1           0       -8.496081   -6.158130   -2.017265
    102          7           0       -0.654467   -3.367069    1.434862
    103          6           0        0.760183   -3.052032    1.361943
    104          6           0        1.431076   -3.794053    0.217038
    105          8           0        1.442172   -5.020357    0.257729
    106          6           0        1.506186   -3.251776    2.678561
    107          6           0        0.934822   -2.454651    3.844852
    108          6           0        3.000253   -2.930004    2.639516
    109          6           0        1.430574   -2.778120    5.256163
    110          1           0       -0.888875   -4.233121    1.890940
    111          1           0        0.892156   -2.000273    1.123856
    112          1           0        1.386453   -4.293675    2.974553
    113          1           0       -0.149239   -2.553905    3.852590
    114          1           0        1.227773   -1.405766    3.790825
    115          1           0        3.148110   -1.876898    2.408204
    116          1           0        3.389103   -3.034753    3.652790
    117          1           0        3.476401   -3.584519    1.904266
    118          1           0        2.480685   -2.593911    5.458734
    119          1           0        1.009053   -2.069003    5.970567
    120          1           0        1.250950   -3.833920    5.473926
    121          7           0        2.129536   -3.127529   -0.696909
    122          6           0        3.159596   -3.652788   -1.560900
    123          6           0        4.570553   -3.377337   -1.056394
    124          8           0        4.800265   -2.493585   -0.250345
    125          6           0        2.890178   -3.134128   -2.980761
    126          8           0        3.142531   -1.746597   -3.021703
    127          1           0        1.929928   -2.128486   -0.752308
    128          1           0        3.042195   -4.738601   -1.527331
    129          1           0        1.890674   -3.360356   -3.352664
    130          1           0        3.624942   -3.694321   -3.558780
    131          1           0        2.406682   -1.293434   -2.611742
    132          7           0        5.528336   -4.230932   -1.434718
    133          6           0        6.906555   -4.238250   -0.989120
    134          6           0        7.621714   -2.899303   -1.057450
    135          8           0        8.358092   -2.502805   -0.161549
    136          6           0        7.657533   -5.307825   -1.784319
    137          1           0        5.318600   -4.857617   -2.205871
    138          1           0        6.935797   -4.557938    0.053878
    139          1           0        7.750930   -4.855379   -2.772230
    140          1           0        8.638071   -5.523760   -1.353834
    141          1           0        7.066052   -6.207868   -1.930854
    142          7           0        7.322392   -2.101692   -2.093655
    143          6           0        7.813914   -0.741659   -2.232282
    144          6           0        7.263294    0.221094   -1.191837
    145          8           0        7.978926    1.120292   -0.760545
    146          6           0        7.553950   -0.158995   -3.613232
    147          1           0        6.705088   -2.472281   -2.801539
    148          1           0        8.893700   -0.751150   -2.075532
    149          1           0        7.968604   -0.817256   -4.365930
    150          1           0        6.475083   -0.064180   -3.774344
    151          1           0        7.896256    0.865787   -3.601055
    152          7           0        6.006254    0.034819   -0.790773
    153          6           0        5.339860    0.813956    0.232880
    154          6           0        5.947255    0.476065    1.591961
    155          8           0        6.156257    1.410970    2.362592
    156          6           0        3.819946    0.663424    0.268951
    157          6           0        3.114566    1.029388   -1.043112
    158          6           0        1.667267    0.568651   -0.938480
    159          8           0        1.273458   -0.548710   -1.328117
    160          8           0        0.810983    1.319895   -0.408754
    161          1           0        5.475137   -0.636365   -1.330983
    162          1           0        5.542112    1.873888    0.123611
    163          1           0        3.493727    1.380623    1.024005
    164          1           0        3.484800   -0.311121    0.599010
    165          1           0        3.549815    0.493020   -1.883092
    166          1           0        3.239274    2.062522   -1.349024
    167          7           0        6.294608   -0.780135    1.898242
    168          6           0        6.881814   -1.051031    3.188011
    169          1           0        7.859939   -1.511817    3.051424
    170          1           0        6.994070   -0.117473    3.739963
    171          1           0        6.236422   -1.729029    3.746608
    172          1           0        6.024710   -1.410816    1.150850
    173         20           0       -1.545856    0.375963   -1.190102
    174          8           0       -0.508468    1.232057   -3.482487
    175          1           0       -1.172227    1.473363   -4.129322
    176          1           0        0.327793    1.384493   -3.923544
 ---------------------------------------------------------------------

 SCF Done:  E(RB3LYP) =  -5333.59096663     A.U. after   16 cycles

 The electronic state is 1-A.
 Alpha  occ. eigenvalues -- -145.39323 -19.17274 -19.15208 -19.14771 -19.13900
 Alpha  occ. eigenvalues --  -19.13860 -19.12150 -19.11952 -19.11648 -19.10362
 Alpha  occ. eigenvalues --  -19.09831 -19.09719 -19.07031 -19.06518 -19.06369
 Alpha  occ. eigenvalues --  -19.06292 -19.05499 -19.05431 -19.05287 -19.04522
 Alpha  occ. eigenvalues --  -19.04503 -19.04064 -19.03834 -19.02661 -15.45032
 Alpha  occ. eigenvalues --  -14.59668 -14.39895 -14.37975 -14.37761 -14.36892
 Alpha  occ. eigenvalues --  -14.35671 -14.35286 -14.33328 -14.32605 -14.32242
 Alpha  occ. eigenvalues --  -14.31896 -14.30829 -14.30333 -14.29893 -14.29865
 Alpha  occ. eigenvalues --  -12.58653 -12.58614 -12.58593 -10.35175 -10.32106
 Alpha  occ. eigenvalues --  -10.31534 -10.30794 -10.30466 -10.30225 -10.28448
 Alpha  occ. eigenvalues --  -10.28401 -10.27634 -10.26718 -10.26613 -10.26315
 Alpha  occ. eigenvalues --  -10.25534 -10.25410 -10.25182 -10.25014 -10.24850
 Alpha  occ. eigenvalues --  -10.24668 -10.24159 -10.23963 -10.23861 -10.23684
 Alpha  occ. eigenvalues --  -10.23586 -10.23385 -10.23096 -10.23095 -10.22937
 Alpha  occ. eigenvalues --  -10.22803 -10.22762 -10.22142 -10.22050 -10.21004
 Alpha  occ. eigenvalues --  -10.20439 -10.20095 -10.19787 -10.19641 -10.19577
 Alpha  occ. eigenvalues --  -10.19531 -10.19468 -10.19304 -10.19277 -10.18405
 Alpha  occ. eigenvalues --  -10.18367 -10.18223 -10.18121 -10.17865 -10.17677
 Alpha  occ. eigenvalues --  -10.17658 -10.17502 -10.17491 -10.17348 -10.17139
 Alpha  occ. eigenvalues --  -10.16545 -10.15021  -1.81866  -1.14777  -1.09487
 Alpha  occ. eigenvalues --   -1.09289  -1.09198  -1.07566  -1.06431  -1.06223
 Alpha  occ. eigenvalues --   -1.05602  -1.04849  -1.04396  -1.03617  -1.03247
 Alpha  occ. eigenvalues --   -1.02887  -1.02880  -1.00771  -1.00561  -1.00125
 Alpha  occ. eigenvalues --   -0.99649  -0.98999  -0.98755  -0.98285  -0.98065
 Alpha  occ. eigenvalues --   -0.97789  -0.96753  -0.96636  -0.95475  -0.94440
 Alpha  occ. eigenvalues --   -0.94371  -0.92555  -0.92375  -0.91176  -0.90197
 Alpha  occ. eigenvalues --   -0.89829  -0.89459  -0.89318  -0.88973  -0.88609
 Alpha  occ. eigenvalues --   -0.88483  -0.88136  -0.88063  -0.86800  -0.85584
 Alpha  occ. eigenvalues --   -0.83869  -0.82635  -0.81908  -0.81706  -0.80599
 Alpha  occ. eigenvalues --   -0.79294  -0.78298  -0.77837  -0.76687  -0.76125
 Alpha  occ. eigenvalues --   -0.75238  -0.75099  -0.74709  -0.74299  -0.73599
 Alpha  occ. eigenvalues --   -0.73196  -0.72418  -0.71831  -0.70950  -0.70380
 Alpha  occ. eigenvalues --   -0.69874  -0.69550  -0.68610  -0.68419  -0.67938
 Alpha  occ. eigenvalues --   -0.67847  -0.66583  -0.65458  -0.64852  -0.64352
 Alpha  occ. eigenvalues --   -0.64122  -0.63597  -0.62850  -0.62716  -0.62587
 Alpha  occ. eigenvalues --   -0.61474  -0.61390  -0.61271  -0.60785  -0.59772
 Alpha  occ. eigenvalues --   -0.59533  -0.59487  -0.57913  -0.57683  -0.57647
 Alpha  occ. eigenvalues --   -0.57301  -0.57247  -0.56526  -0.56446  -0.56254
 Alpha  occ. eigenvalues --   -0.56010  -0.55587  -0.55332  -0.55029  -0.54862
 Alpha  occ. eigenvalues --   -0.54663  -0.54371  -0.54165  -0.53963  -0.53119
 Alpha  occ. eigenvalues --   -0.53100  -0.53075  -0.52904  -0.52194  -0.51692
 Alpha  occ. eigenvalues --   -0.51130  -0.51023  -0.50774  -0.50509  -0.50260
 Alpha  occ. eigenvalues --   -0.49734  -0.49648  -0.49508  -0.49324  -0.48925
 Alpha  occ. eigenvalues --   -0.48854  -0.48560  -0.48097  -0.47872  -0.47723
 Alpha  occ. eigenvalues --   -0.47403  -0.47251  -0.47110  -0.46781  -0.46583
 Alpha  occ. eigenvalues --   -0.46283  -0.46162  -0.46082  -0.45955  -0.45578
 Alpha  occ. eigenvalues --   -0.45490  -0.45394  -0.45311  -0.45082  -0.44761
 Alpha  occ. eigenvalues --   -0.44648  -0.44456  -0.44324  -0.44160  -0.44054
 Alpha  occ. eigenvalues --   -0.43996  -0.43913  -0.43827  -0.43450  -0.43293
 Alpha  occ. eigenvalues --   -0.43246  -0.43136  -0.43060  -0.42959  -0.42754
 Alpha  occ. eigenvalues --   -0.42544  -0.42363  -0.42106  -0.42029  -0.41661
 Alpha  occ. eigenvalues --   -0.41455  -0.41396  -0.41293  -0.41037  -0.40891
 Alpha  occ. eigenvalues --   -0.40873  -0.40788  -0.40349  -0.40131  -0.40080
 Alpha  occ. eigenvalues --   -0.40012  -0.39898  -0.39819  -0.39664  -0.39336
 Alpha  occ. eigenvalues --   -0.39307  -0.39190  -0.39096  -0.39019  -0.38862
 Alpha  occ. eigenvalues --   -0.38679  -0.38565  -0.38362  -0.38323  -0.38238
 Alpha  occ. eigenvalues --   -0.38129  -0.37984  -0.37783  -0.37668  -0.37561
 Alpha  occ. eigenvalues --   -0.37519  -0.37121  -0.36974  -0.36910  -0.36598
 Alpha  occ. eigenvalues --   -0.36217  -0.36010  -0.35903  -0.35804  -0.35741
 Alpha  occ. eigenvalues --   -0.35629  -0.35559  -0.35417  -0.35165  -0.35104
 Alpha  occ. eigenvalues --   -0.34877  -0.34759  -0.34560  -0.34440  -0.34214
 Alpha  occ. eigenvalues --   -0.33873  -0.33812  -0.33416  -0.33110  -0.32907
 Alpha  occ. eigenvalues --   -0.32459  -0.32356  -0.32098  -0.31920  -0.31820
 Alpha  occ. eigenvalues --   -0.31673  -0.31409  -0.31142  -0.30751  -0.30638
 Alpha  occ. eigenvalues --   -0.29896  -0.29716  -0.29604  -0.29442  -0.29284
 Alpha  occ. eigenvalues --   -0.29144  -0.28732  -0.27937  -0.27193  -0.27009
 Alpha  occ. eigenvalues --   -0.26599  -0.26173  -0.25186  -0.25154  -0.24860
 Alpha  occ. eigenvalues --   -0.24560  -0.24354  -0.24021  -0.23811  -0.23649
 Alpha  occ. eigenvalues --   -0.23256  -0.23168  -0.23103  -0.22939  -0.22810
 Alpha  occ. eigenvalues --   -0.22506  -0.22099  -0.21907  -0.21520  -0.20901
 Alpha  occ. eigenvalues --   -0.20527  -0.20467  -0.20438  -0.20000  -0.19877
 Alpha  occ. eigenvalues --   -0.19640  -0.18828  -0.18703
 Alpha virt. eigenvalues --   -0.11238  -0.05089  -0.04862  -0.03348  -0.02433
 Alpha virt. eigenvalues --   -0.01732  -0.01327  -0.00904  -0.00434  -0.00311
 Alpha virt. eigenvalues --    0.00079   0.00523   0.00858   0.01101   0.01320

 Mulliken charges:
               1
     1  C    0.066168
     2  C    0.016659
     3  O   -0.295209
     4  H    0.033009
     5  H    0.048568
     6  H    0.004977
     7  N   -0.121360
     8  C    0.173679
     9  C    0.041225
    10  O   -0.288611
    11  C    0.033139
    12  C    0.134749
    13  O   -0.477762
    14  O   -0.364072
    15  H    0.111397
    16  H   -0.019553
    17  H    0.009908
    18  H    0.011206
    19  N   -0.137148
    20  C    0.150630
    21  C    0.054359
    22  O   -0.307084
    23  C    0.042562
    24  C   -0.043527
    25  C   -0.027290
    26  C    0.024901
    27  N    0.104753
    28  H    0.153369
    29  H   -0.004937
    30  H    0.001493
    31  H    0.036994
    32  H    0.014467
    33  H    0.026338
    34  H    0.026480
    35  H    0.049739
    36  H    0.062415
    37  H    0.075636
    38  H    0.194516
    39  H    0.185926
    40  H    0.191717
    41  N   -0.170147
    42  C    0.200739
    43  C    0.033138
    44  O   -0.305689
    45  C    0.085462
    46  C    0.095949
    47  O   -0.481753
    48  O   -0.411072
    49  H    0.139287
    50  H    0.013409
    51  H    0.002301
    52  H    0.030771
    53  N   -0.189654
    54  C    0.283928
    55  C    0.033916
    56  O   -0.293589
    57  H    0.148493
    58  H    0.024793
    59  H    0.022681
    60  N   -0.175711
    61  C    0.141960
    62  C    0.078862
    63  O   -0.292597
    64  C    0.045787
    65  C    0.060677
    66  N   -0.024554
    67  O   -0.351537
    68  H    0.147420
    69  H    0.021190
    70  H    0.073150
    71  H    0.021132
    72  H    0.129932
    73  H    0.116133
    74  N   -0.158772
    75  C    0.208185
    76  C    0.018835
    77  O   -0.291643
    78  H    0.155923
    79  H    0.032452
    80  H    0.034176
    81  N   -0.127069
    82  C    0.090188
    83  C    0.186404
    84  O   -0.366953
    85  C    0.139857
    86  C    0.019234
    87  C    0.000789
    88  C   -0.040930
    89  C   -0.009542
    90  C   -0.034817
    91  C    0.147035
    92  O   -0.177752
    93  H    0.137143
    94  H   -0.002861
    95  H   -0.012546
    96  H   -0.041695
    97  H   -0.033529
    98  H   -0.020079
    99  H   -0.018434
   100  H   -0.035047
   101  H    0.165100
   102  N   -0.120640
   103  C    0.177419
   104  C    0.045823
   105  O   -0.293381
   106  C   -0.094268
   107  C   -0.013182
   108  C    0.058398
   109  C    0.018764
   110  H    0.135116
   111  H    0.002634
   112  H   -0.018240
   113  H    0.002690
   114  H    0.021810
   115  H    0.025934
   116  H   -0.000827
   117  H    0.021659
   118  H    0.003819
   119  H    0.006436
   120  H    0.005847
   121  N   -0.137663
   122  C    0.060040
   123  C    0.097122
   124  O   -0.267496
   125  C    0.283837
   126  O   -0.346748
   127  H    0.137375
   128  H    0.014504
   129  H    0.018877
   130  H   -0.034798
   131  H    0.167002
   132  N   -0.121791
   133  C    0.074866
   134  C    0.069542
   135  O   -0.244525
   136  C    0.037761
   137  H    0.119459
   138  H    0.029096
   139  H   -0.005752
   140  H    0.055459
   141  H    0.027890
   142  N   -0.141276
   143  C    0.094806
   144  C    0.030396
   145  O   -0.278216
   146  C    0.063750
   147  H    0.104902
   148  H    0.021405
   149  H    0.025220
   150  H   -0.001605
   151  H    0.013015
   152  N   -0.136618
   153  C    0.174753
   154  C    0.034873
   155  O   -0.288846
   156  C   -0.022649
   157  C    0.115291
   158  C    0.175722
   159  O   -0.426179
   160  O   -0.418080
   161  H    0.128588
   162  H   -0.041215
   163  H    0.059436
   164  H    0.022467
   165  H   -0.035631
   166  H   -0.043795
   167  N   -0.158475
   168  C    0.139177
   169  H    0.021947
   170  H    0.044328
   171  H    0.008280
   172  H    0.132655
   173  Ca   1.306706
   174  O   -0.306915
   175  H    0.173593
   176  H    0.175437
 Sum of Mulliken charges =  -0.00000

 Dipole moment (field-independent basis, Debye):
    X=             34.7385    Y=              5.6010    Z=            -22.2337  Tot=             41.6230
 Quadrupole moment (field-independent basis, Debye-Ang):
   XX=           -626.2012   YY=           -479.9463   ZZ=           -495.1896
   XY=            134.2059   XZ=            -62.2650   YZ=            -47.2991

 ESP charges:
               1
     1  C   -0.420615
     2  C    0.899845
     3  O   -0.689829
     4  H    0.115765
     5  H    0.123362
     6  H    0.087988
     7  N   -0.836233
     8  C    0.287800
     9  C    0.571488
    10  O   -0.576603
    11  C   -0.310765
    12  C    1.022234
    13  O   -0.998884
    14  O   -0.748386
    15  H    0.377936
    16  H    0.027669
    17  H    0.080105
    18  H    0.026735
    19  N    0.102892
    20  C   -0.939217
    21  C    0.821715
    22  O   -0.618164
    23  C    0.649903
    24  C   -0.237720
    25  C   -0.145482
    26  C    0.233183
    27  N   -0.585540
    28  H   -0.081638
    29  H    0.250173
    30  H   -0.062394
    31  H   -0.003423
    32  H    0.061646
    33  H    0.080909
    34  H    0.057906
    35  H    0.057633
    36  H    0.051686
    37  H    0.056796
    38  H    0.379247
    39  H    0.380419
    40  H    0.379836
    41  N   -0.439762
    42  C    0.058242
    43  C    0.410367
    44  O   -0.536524
    45  C   -0.384555
    46  C    0.827855
    47  O   -0.675201
    48  O   -0.751808
    49  H    0.250953
    50  H    0.125976
    51  H    0.111027
    52  H    0.114686
    53  N   -0.162260
    54  C   -0.346059
    55  C    0.615830
    56  O   -0.573692
    57  H    0.198980
    58  H    0.173226
    59  H    0.142075
    60  N   -0.234047
    61  C   -0.168105
    62  C    0.517212
    63  O   -0.541957
    64  C   -0.203806
    65  C    0.766745
    66  N   -0.845924
    67  O   -0.726075
    68  H    0.239031
    69  H    0.152892
    70  H    0.132375
    71  H    0.083634
    72  H    0.384784
    73  H    0.384480
    74  N   -0.294994
    75  C    0.024418
    76  C    0.698685
    77  O   -0.598883
    78  H    0.245227
    79  H    0.050112
    80  H    0.045211
    81  N   -0.615763
    82  C    0.251819
    83  C    0.613929
    84  O   -0.588931
    85  C   -0.306505
    86  C    0.353589
    87  C   -0.317640
    88  C   -0.361205
    89  C   -0.148436
    90  C   -0.297084
    91  C    0.368575
    92  O   -0.527500
    93  H    0.259477
    94  H    0.060872
    95  H    0.043651
    96  H    0.053268
    97  H    0.148886
    98  H    0.247844
    99  H    0.141499
   100  H    0.153265
   101  H    0.392378
   102  N   -0.552132
   103  C   -0.024041
   104  C    0.592082
   105  O   -0.565689
   106  C    0.162398
   107  C    0.204186
   108  C   -0.338193
   109  C   -0.405457
   110  H    0.305097
   111  H    0.081170
   112  H    0.004206
   113  H   -0.018490
   114  H    0.029722
   115  H    0.064385
   116  H    0.085078
   117  H    0.080159
   118  H    0.109089
   119  H    0.092894
   120  H    0.076967
   121  N   -0.337958
   122  C   -0.142733
   123  C    0.808221
   124  O   -0.542212
   125  C    0.241218
   126  O   -0.628764
   127  H    0.201231
   128  H    0.060848
   129  H    0.035086
   130  H   -0.018081
   131  H    0.390097
   132  N   -0.631709
   133  C    0.217442
   134  C    0.477410
   135  O   -0.519068
   136  C   -0.267629
   137  H    0.323346
   138  H    0.052355
   139  H    0.034042
   140  H    0.110825
   141  H    0.094468
   142  N   -0.458799
   143  C    0.224922
   144  C    0.301068
   145  O   -0.513437
   146  C   -0.410496
   147  H    0.297539
   148  H    0.078294
   149  H    0.113905
   150  H    0.095345
   151  H    0.121249
   152  N    0.023357
   153  C   -0.375751
   154  C    0.535083
   155  O   -0.553741
   156  C    0.001656
   157  C    0.257449
   158  C    0.529059
   159  O   -0.664200
   160  O   -0.526921
   161  H    0.094652
   162  H    0.127511
   163  H    0.114928
   164  H    0.031341
   165  H   -0.053280
   166  H   -0.166386
   167  N   -0.071118
   168  C   -0.206875
   169  H    0.079561
   170  H    0.117222
   171  H    0.060820
   172  H    0.145441
   173  Ca   1.625743
   174  O   -0.926725
   175  H    0.440889
   176  H    0.442495
 Sum of ESP charges =  -0.00000

 Normal termination of Gaussian 16 at Wed Sep 18 16:09:50 2019.
