 Gaussian 16, Revision A.03,
 Gaussian 16:  ES64L-G16RevA.03 25-Dec-2016

 ----------------------------------------------------------------------
 #b3lyp/svp scf=(tight,noincore) Test #IOP(5/87=12) Density=Current Pop
 =(MK,readradii) iop(6/33=2) iop(6/42=6)
 ----------------------------------------------------------------------

 -----------------
 CaMKII_loop3_32.0
 -----------------
 Symbolic Z-matrix:
 Charge =  0 Multiplicity = 1

                         Standard orientation:
 ---------------------------------------------------------------------
 Center     Atomic      Atomic             Coordinates (Angstroms)
 Number     Number       Type             X           Y           Z
 ---------------------------------------------------------------------
      1          6           0        2.572975    2.145630    5.077471
      2          6           0        1.770211    2.193512    3.788372
      3          8           0        2.244909    2.467563    2.683764
      4          1           0        3.578347    2.524008    4.893001
      5          1           0        2.086479    2.762931    5.832439
      6          1           0        2.631683    1.115972    5.431633
      7          7           0        0.448869    2.050549    3.875084
      8          6           0       -0.403314    1.935568    2.706125
      9          6           0       -0.601838    3.327041    2.107718
     10          8           0       -1.328140    4.142337    2.667789
     11          6           0       -1.750316    1.281355    3.028133
     12          6           0       -2.706419    1.250790    1.845961
     13          8           0       -2.168084    1.219567    0.719941
     14          8           0       -3.921963    1.170087    2.111364
     15          1           0        0.054772    1.849225    4.780156
     16          1           0        0.077468    1.256828    2.005439
     17          1           0       -2.315798    1.924478    3.690645
     18          1           0       -1.550679    0.279155    3.418058
     19          7           0        0.047720    3.659558    0.992816
     20          6           0        0.320267    5.010798    0.541964
     21          6           0       -0.861772    5.623235   -0.204430
     22          8           0       -1.079370    6.819826   -0.028591
     23          6           0        1.634466    5.123922   -0.224055
     24          6           0        2.203951    6.527858   -0.062655
     25          6           0        3.636323    6.806134   -0.506246
     26          6           0        4.031784    8.217847   -0.099580
     27          7           0        5.086060    8.697102   -1.015559
     28          1           0        0.412638    2.865712    0.467989
     29          1           0        0.557531    5.651308    1.390465
     30          1           0        1.496860    5.005130   -1.293192
     31          1           0        2.368746    4.404708    0.130153
     32          1           0        2.139809    6.760149    1.002440
     33          1           0        1.525722    7.197823   -0.589584
     34          1           0        3.758701    6.734798   -1.591389
     35          1           0        4.303847    6.111019   -0.002831
     36          1           0        4.298167    8.437730    0.943152
     37          1           0        3.183526    8.849012   -0.354509
     38          1           0        4.654201    9.082518   -1.839362
     39          1           0        5.621712    9.444381   -0.582948
     40          1           0        5.673602    7.931962   -1.306687
     41          7           0       -1.547516    4.809038   -1.011733
     42          6           0       -2.732682    5.205176   -1.737995
     43          6           0       -4.006036    4.946634   -0.958363
     44          8           0       -5.109213    5.235084   -1.428146
     45          6           0       -2.682040    4.530726   -3.115040
     46          6           0       -2.443104    3.035721   -3.185549
     47          8           0       -2.414509    2.448153   -4.288248
     48          8           0       -2.196574    2.361252   -2.168094
     49          1           0       -1.277668    3.838199   -1.019033
     50          1           0       -2.836809    6.277607   -1.855257
     51          1           0       -1.876927    4.892391   -3.753547
     52          1           0       -3.670376    4.684224   -3.556550
     53          7           0       -3.900887    4.263488    0.192270
     54          6           0       -5.038311    3.961514    1.033030
     55          6           0       -5.950737    2.846215    0.561663
     56          8           0       -7.130176    2.794387    0.924343
     57          1           0       -2.994931    3.950057    0.502117
     58          1           0       -5.689263    4.836622    1.095060
     59          1           0       -4.688009    3.627029    2.013851
     60          7           0       -5.488825    1.917172   -0.287992
     61          6           0       -6.294637    1.030386   -1.099088
     62          6           0       -6.557528   -0.296392   -0.393859
     63          8           0       -7.222589   -1.142069   -0.989782
     64          6           0       -5.746431    0.918198   -2.517250
     65          6           0       -4.452705    0.119398   -2.583502
     66          7           0       -4.026115   -0.303279   -3.780066
     67          8           0       -3.815223   -0.276065   -1.617155
     68          1           0       -4.515952    2.012826   -0.539724
     69          1           0       -7.272295    1.513148   -1.140633
     70          1           0       -5.624572    1.920708   -2.913513
     71          1           0       -6.464115    0.426602   -3.161737
     72          1           0       -4.414616   -0.013915   -4.665467
     73          1           0       -3.287644   -0.990002   -3.811250
     74          7           0       -6.066591   -0.479614    0.833215
     75          6           0       -6.346601   -1.695117    1.559057
     76          6           0       -5.181327   -2.661230    1.721730
     77          8           0       -5.282604   -3.729687    2.306745
     78          1           0       -5.483703    0.235192    1.262045
     79          1           0       -7.178050   -2.270703    1.166766
     80          1           0       -6.587803   -1.547002    2.616168
     81          7           0       -3.992889   -2.347747    1.181411
     82          6           0       -2.879579   -3.266587    1.108785
     83          6           0       -1.544017   -2.559811    1.250357
     84          8           0       -1.429410   -1.487118    0.663249
     85          6           0       -2.968841   -4.020653   -0.221484
     86          6           0       -4.121326   -4.982423   -0.382044
     87          6           0       -3.919764   -6.351557   -0.149139
     88          6           0       -5.325079   -4.468945   -0.893629
     89          6           0       -4.923742   -7.214673   -0.597646
     90          6           0       -6.326956   -5.340819   -1.346484
     91          6           0       -6.114688   -6.724676   -1.170751
     92          8           0       -7.081198   -7.559577   -1.657988
     93          1           0       -3.904919   -1.493023    0.652442
     94          1           0       -3.001670   -3.994045    1.916930
     95          1           0       -2.072204   -4.624133   -0.366922
     96          1           0       -3.024453   -3.255059   -0.985273
     97          1           0       -2.922703   -6.661048    0.127780
     98          1           0       -5.537207   -3.444613   -1.127176
     99          1           0       -4.749293   -8.271282   -0.478286
    100          1           0       -7.281095   -4.976006   -1.668092
    101          1           0       -7.851446   -7.188888   -2.086600
    102          7           0       -0.596670   -3.185571    1.956231
    103          6           0        0.819960   -2.871688    1.962289
    104          6           0        1.482664   -3.830445    0.993472
    105          8           0        1.428104   -5.053706    1.084875
    106          6           0        1.241628   -3.080176    3.413781
    107          6           0        0.343306   -2.325331    4.380490
    108          6           0        2.738029   -2.769939    3.442714
    109          6           0        0.695381   -2.492864    5.853879
    110          1           0       -0.878710   -4.098348    2.278399
    111          1           0        1.064622   -1.847911    1.674502
    112          1           0        1.074744   -4.144121    3.590048
    113          1           0       -0.722133   -2.553350    4.348125
    114          1           0        0.342671   -1.265688    4.131981
    115          1           0        3.296490   -3.508445    2.876913
    116          1           0        3.061940   -1.777526    3.118374
    117          1           0        3.187068   -2.798298    4.429659
    118          1           0        1.728691   -2.155801    5.950097
    119          1           0        0.139647   -1.740805    6.416701
    120          1           0        0.428883   -3.480443    6.219210
    121          7           0        2.211861   -3.206927    0.066920
    122          6           0        3.059262   -3.819194   -0.935547
    123          6           0        4.525465   -3.776981   -0.542401
    124          8           0        4.941785   -3.055647    0.367795
    125          6           0        2.863952   -3.173768   -2.306744
    126          8           0        3.409200   -1.868153   -2.212019
    127          1           0        2.090738   -2.198251    0.046851
    128          1           0        2.707325   -4.849162   -1.009082
    129          1           0        1.811189   -3.185363   -2.584872
    130          1           0        3.309779   -3.831358   -3.043910
    131          1           0        2.660668   -1.314021   -1.987656
    132          7           0        5.344337   -4.554528   -1.248778
    133          6           0        6.778948   -4.535047   -1.055093
    134          6           0        7.417499   -3.229522   -1.513085
    135          8           0        8.263021   -2.682800   -0.802880
    136          6           0        7.482923   -5.670976   -1.785150
    137          1           0        4.958334   -5.088252   -2.016203
    138          1           0        6.976207   -4.779700   -0.007127
    139          1           0        8.503376   -5.828770   -1.434470
    140          1           0        7.014998   -6.586276   -1.409689
    141          1           0        7.360838   -5.655074   -2.865078
    142          7           0        6.947083   -2.508759   -2.524919
    143          6           0        7.375184   -1.143240   -2.768408
    144          6           0        6.998173   -0.069772   -1.754638
    145          8           0        7.754743    0.887973   -1.639200
    146          6           0        6.906151   -0.647503   -4.131329
    147          1           0        6.138176   -2.854268   -3.024711
    148          1           0        8.461216   -1.140659   -2.870033
    149          1           0        7.658437    0.054051   -4.513935
    150          1           0        6.716657   -1.397518   -4.897207
    151          1           0        5.966695   -0.104750   -3.999260
    152          7           0        5.857684   -0.174456   -1.059710
    153          6           0        5.435765    0.742292   -0.027984
    154          6           0        6.281169    0.436834    1.202498
    155          8           0        6.596907    1.408197    1.882544
    156          6           0        3.931684    0.643480    0.226527
    157          6           0        3.146937    1.059917   -1.014179
    158          6           0        1.650111    0.796306   -0.999226
    159          8           0        0.861755    1.731042   -1.261641
    160          8           0        1.191234   -0.356080   -0.854867
    161          1           0        5.272392   -0.969036   -1.283040
    162          1           0        5.761250    1.738107   -0.335414
    163          1           0        3.691170    1.227493    1.119042
    164          1           0        3.760390   -0.392141    0.527607
    165          1           0        3.560826    0.670185   -1.938248
    166          1           0        3.289995    2.138409   -0.978264
    167          7           0        6.499934   -0.824613    1.571813
    168          6           0        7.162489   -1.055513    2.839806
    169          1           0        8.100996   -0.502535    2.864767
    170          1           0        6.520763   -0.716654    3.652799
    171          1           0        7.365225   -2.119914    2.956326
    172          1           0        5.951580   -1.553817    1.142663
    173         20           0       -1.226488    0.025352   -1.433857
    174          8           0       -0.946338   -2.279387   -2.498515
    175          1           0       -0.454197   -3.075553   -2.313265
    176          1           0       -1.758501   -2.586419   -2.893384
 ---------------------------------------------------------------------

 SCF Done:  E(RB3LYP) =  -5333.59223711     A.U. after   18 cycles

 The electronic state is 1-A.
 Alpha  occ. eigenvalues -- -145.37263 -19.22235 -19.17372 -19.14231 -19.13697
 Alpha  occ. eigenvalues --  -19.11974 -19.11788 -19.11431 -19.10746 -19.09493
 Alpha  occ. eigenvalues --  -19.08497 -19.08071 -19.07904 -19.06553 -19.06132
 Alpha  occ. eigenvalues --  -19.06099 -19.05676 -19.05580 -19.04741 -19.03256
 Alpha  occ. eigenvalues --  -19.03147 -19.03138 -19.02191 -19.00627 -15.43060
 Alpha  occ. eigenvalues --  -14.58738 -14.39813 -14.37386 -14.37092 -14.36749
 Alpha  occ. eigenvalues --  -14.36060 -14.33887 -14.33710 -14.32014 -14.31999
 Alpha  occ. eigenvalues --  -14.31537 -14.31423 -14.30874 -14.30360 -14.29099
 Alpha  occ. eigenvalues --  -12.56677 -12.56639 -12.56599 -10.34944 -10.32185
 Alpha  occ. eigenvalues --  -10.30166 -10.29903 -10.29730 -10.28829 -10.28553
 Alpha  occ. eigenvalues --  -10.28327 -10.27450 -10.27108 -10.26828 -10.26450
 Alpha  occ. eigenvalues --  -10.26175 -10.24969 -10.24798 -10.24581 -10.24507
 Alpha  occ. eigenvalues --  -10.24212 -10.24099 -10.23918 -10.23308 -10.23304
 Alpha  occ. eigenvalues --  -10.22395 -10.22386 -10.22240 -10.22159 -10.21853
 Alpha  occ. eigenvalues --  -10.21491 -10.21337 -10.21012 -10.20117 -10.19948
 Alpha  occ. eigenvalues --  -10.19927 -10.19784 -10.19642 -10.19589 -10.19291
 Alpha  occ. eigenvalues --  -10.19229 -10.19137 -10.18925 -10.18860 -10.18400
 Alpha  occ. eigenvalues --  -10.18215 -10.18194 -10.18172 -10.17899 -10.17823
 Alpha  occ. eigenvalues --  -10.17735 -10.17664 -10.17211 -10.17133 -10.17109
 Alpha  occ. eigenvalues --  -10.14783 -10.14196  -1.80020  -1.14160  -1.08920
 Alpha  occ. eigenvalues --   -1.07923  -1.07564  -1.06996  -1.06777  -1.05543
 Alpha  occ. eigenvalues --   -1.04969  -1.04865  -1.04325  -1.03992  -1.03442
 Alpha  occ. eigenvalues --   -1.02762  -1.01381  -1.01152  -0.99743  -0.99637
 Alpha  occ. eigenvalues --   -0.99268  -0.98877  -0.98536  -0.97653  -0.97294
 Alpha  occ. eigenvalues --   -0.96925  -0.96361  -0.96096  -0.94746  -0.94083
 Alpha  occ. eigenvalues --   -0.93839  -0.92520  -0.90882  -0.90577  -0.90083
 Alpha  occ. eigenvalues --   -0.89707  -0.89357  -0.88871  -0.88353  -0.88212
 Alpha  occ. eigenvalues --   -0.88035  -0.87659  -0.86589  -0.86000  -0.85710
 Alpha  occ. eigenvalues --   -0.83475  -0.82948  -0.81912  -0.81016  -0.79263
 Alpha  occ. eigenvalues --   -0.78738  -0.77587  -0.77261  -0.76533  -0.75900
 Alpha  occ. eigenvalues --   -0.75468  -0.75251  -0.74137  -0.73100  -0.73076
 Alpha  occ. eigenvalues --   -0.72496  -0.72431  -0.71766  -0.71158  -0.70967
 Alpha  occ. eigenvalues --   -0.69895  -0.69343  -0.68275  -0.67826  -0.67340
 Alpha  occ. eigenvalues --   -0.67178  -0.65647  -0.65263  -0.64523  -0.64260
 Alpha  occ. eigenvalues --   -0.63117  -0.62981  -0.62757  -0.61822  -0.61732
 Alpha  occ. eigenvalues --   -0.61690  -0.60776  -0.60399  -0.60352  -0.60150
 Alpha  occ. eigenvalues --   -0.60109  -0.59422  -0.58597  -0.58317  -0.57929
 Alpha  occ. eigenvalues --   -0.57852  -0.57412  -0.56287  -0.56249  -0.56068
 Alpha  occ. eigenvalues --   -0.55912  -0.55683  -0.55411  -0.55216  -0.54693
 Alpha  occ. eigenvalues --   -0.54639  -0.54039  -0.53905  -0.53722  -0.53306
 Alpha  occ. eigenvalues --   -0.52652  -0.52305  -0.52225  -0.51771  -0.51453
 Alpha  occ. eigenvalues --   -0.51294  -0.51115  -0.50873  -0.50075  -0.49887
 Alpha  occ. eigenvalues --   -0.49642  -0.49194  -0.49159  -0.48740  -0.48570
 Alpha  occ. eigenvalues --   -0.48447  -0.48373  -0.48219  -0.48127  -0.47699
 Alpha  occ. eigenvalues --   -0.47612  -0.47143  -0.47033  -0.46805  -0.46740
 Alpha  occ. eigenvalues --   -0.46226  -0.46178  -0.46077  -0.45694  -0.45453
 Alpha  occ. eigenvalues --   -0.45425  -0.45117  -0.44715  -0.44662  -0.44436
 Alpha  occ. eigenvalues --   -0.44047  -0.43997  -0.43860  -0.43785  -0.43659
 Alpha  occ. eigenvalues --   -0.43583  -0.43480  -0.43305  -0.43123  -0.42779
 Alpha  occ. eigenvalues --   -0.42643  -0.42411  -0.42071  -0.42014  -0.41888
 Alpha  occ. eigenvalues --   -0.41626  -0.41513  -0.41418  -0.41317  -0.41147
 Alpha  occ. eigenvalues --   -0.40943  -0.40731  -0.40571  -0.40524  -0.40387
 Alpha  occ. eigenvalues --   -0.40207  -0.40114  -0.39891  -0.39869  -0.39710
 Alpha  occ. eigenvalues --   -0.39589  -0.39429  -0.39361  -0.39251  -0.39167
 Alpha  occ. eigenvalues --   -0.39080  -0.38891  -0.38869  -0.38719  -0.38666
 Alpha  occ. eigenvalues --   -0.38356  -0.37985  -0.37947  -0.37921  -0.37870
 Alpha  occ. eigenvalues --   -0.37739  -0.37638  -0.37571  -0.37472  -0.37190
 Alpha  occ. eigenvalues --   -0.37063  -0.36899  -0.36518  -0.36452  -0.36289
 Alpha  occ. eigenvalues --   -0.36231  -0.36097  -0.35925  -0.35679  -0.35519
 Alpha  occ. eigenvalues --   -0.35378  -0.35186  -0.34806  -0.34693  -0.34674
 Alpha  occ. eigenvalues --   -0.34540  -0.34463  -0.34238  -0.33761  -0.33544
 Alpha  occ. eigenvalues --   -0.33032  -0.32969  -0.32847  -0.32751  -0.32695
 Alpha  occ. eigenvalues --   -0.32356  -0.32264  -0.31830  -0.31778  -0.31587
 Alpha  occ. eigenvalues --   -0.31496  -0.31090  -0.31026  -0.30862  -0.30417
 Alpha  occ. eigenvalues --   -0.29574  -0.29173  -0.28571  -0.28465  -0.28030
 Alpha  occ. eigenvalues --   -0.27948  -0.27681  -0.27630  -0.27230  -0.26491
 Alpha  occ. eigenvalues --   -0.25911  -0.25615  -0.25047  -0.24806  -0.24722
 Alpha  occ. eigenvalues --   -0.24441  -0.24425  -0.24112  -0.23641  -0.23411
 Alpha  occ. eigenvalues --   -0.23200  -0.23070  -0.23056  -0.22355  -0.21610
 Alpha  occ. eigenvalues --   -0.21266  -0.21040  -0.20976  -0.20754  -0.20481
 Alpha  occ. eigenvalues --   -0.20130  -0.19817  -0.19630  -0.19550  -0.19078
 Alpha  occ. eigenvalues --   -0.18600  -0.18184  -0.16569
 Alpha virt. eigenvalues --   -0.10846  -0.05726  -0.04674  -0.04383  -0.02226
 Alpha virt. eigenvalues --   -0.00799  -0.00503  -0.00495  -0.00191   0.00122
 Alpha virt. eigenvalues --    0.00786   0.00824   0.01596   0.01716   0.02359

 Mulliken charges:
               1
     1  C    0.052686
     2  C    0.024107
     3  O   -0.297192
     4  H    0.036220
     5  H    0.028224
     6  H    0.030224
     7  N   -0.111027
     8  C    0.106282
     9  C    0.060503
    10  O   -0.294887
    11  C    0.070265
    12  C    0.146622
    13  O   -0.452552
    14  O   -0.379490
    15  H    0.108171
    16  H   -0.009570
    17  H    0.004250
    18  H   -0.000622
    19  N   -0.128125
    20  C    0.138890
    21  C    0.054211
    22  O   -0.292504
    23  C    0.092590
    24  C   -0.069335
    25  C   -0.001891
    26  C    0.020293
    27  N    0.069886
    28  H    0.151895
    29  H   -0.009740
    30  H   -0.000568
    31  H    0.029667
    32  H    0.013054
    33  H    0.025714
    34  H    0.007622
    35  H    0.052063
    36  H    0.092628
    37  H    0.058969
    38  H    0.192638
    39  H    0.192743
    40  H    0.197164
    41  N   -0.159720
    42  C    0.183291
    43  C    0.032413
    44  O   -0.293302
    45  C    0.074285
    46  C    0.070847
    47  O   -0.394120
    48  O   -0.452416
    49  H    0.144093
    50  H    0.006019
    51  H    0.005158
    52  H    0.022539
    53  N   -0.163322
    54  C    0.242711
    55  C    0.022125
    56  O   -0.306323
    57  H    0.148772
    58  H    0.020041
    59  H    0.046213
    60  N   -0.171361
    61  C    0.167937
    62  C    0.054744
    63  O   -0.314040
    64  C    0.068302
    65  C    0.093347
    66  N   -0.020054
    67  O   -0.353543
    68  H    0.137011
    69  H    0.023973
    70  H    0.065462
    71  H    0.026256
    72  H    0.131830
    73  H    0.082964
    74  N   -0.144538
    75  C    0.253192
    76  C   -0.001081
    77  O   -0.295800
    78  H    0.166285
    79  H    0.034207
    80  H    0.025781
    81  N   -0.154412
    82  C    0.106258
    83  C    0.138870
    84  O   -0.349417
    85  C    0.128658
    86  C   -0.029160
    87  C    0.026783
    88  C    0.020248
    89  C   -0.033045
    90  C   -0.066256
    91  C    0.201412
    92  O   -0.218248
    93  H    0.151344
    94  H   -0.002719
    95  H   -0.035770
    96  H   -0.057191
    97  H   -0.033492
    98  H   -0.019152
    99  H   -0.031081
   100  H   -0.028151
   101  H    0.175116
   102  N   -0.106318
   103  C    0.117634
   104  C    0.058867
   105  O   -0.276902
   106  C   -0.068791
   107  C   -0.003371
   108  C    0.049147
   109  C    0.045742
   110  H    0.137343
   111  H    0.028451
   112  H   -0.011216
   113  H    0.006700
   114  H   -0.010134
   115  H    0.023157
   116  H    0.016242
   117  H   -0.002634
   118  H    0.002315
   119  H    0.001841
   120  H    0.020276
   121  N   -0.142513
   122  C    0.073075
   123  C    0.122849
   124  O   -0.271992
   125  C    0.252996
   126  O   -0.323177
   127  H    0.143115
   128  H    0.015467
   129  H   -0.021914
   130  H   -0.011572
   131  H    0.178752
   132  N   -0.122883
   133  C    0.093161
   134  C    0.074468
   135  O   -0.266945
   136  C    0.027656
   137  H    0.114833
   138  H    0.028187
   139  H    0.048172
   140  H    0.013299
   141  H    0.014416
   142  N   -0.122706
   143  C    0.093229
   144  C    0.072154
   145  O   -0.280260
   146  C    0.041704
   147  H    0.097477
   148  H    0.020929
   149  H    0.033904
   150  H    0.001414
   151  H    0.008199
   152  N   -0.173231
   153  C    0.125018
   154  C    0.048938
   155  O   -0.294488
   156  C    0.022544
   157  C    0.078271
   158  C    0.146512
   159  O   -0.383847
   160  O   -0.469360
   161  H    0.124468
   162  H   -0.016896
   163  H    0.039356
   164  H   -0.024606
   165  H    0.011069
   166  H   -0.012093
   167  N   -0.154074
   168  C    0.157445
   169  H    0.028281
   170  H    0.003836
   171  H    0.005620
   172  H    0.127518
   173  Ca   1.296260
   174  O   -0.292984
   175  H    0.198151
   176  H    0.193595
 Sum of Mulliken charges =  -0.00000

 Dipole moment (field-independent basis, Debye):
    X=             29.6914    Y=              9.6864    Z=            -11.5430  Tot=             33.2964
 Quadrupole moment (field-independent basis, Debye-Ang):
   XX=           -653.8959   YY=           -328.4454   ZZ=           -526.3444
   XY=            173.9616   XZ=            -11.6087   YZ=              8.0588

 ESP charges:
               1
     1  C   -0.466571
     2  C    0.819204
     3  O   -0.650746
     4  H    0.138796
     5  H    0.119018
     6  H    0.118384
     7  N   -0.806709
     8  C    0.623414
     9  C    0.385326
    10  O   -0.550013
    11  C   -0.519717
    12  C    1.063258
    13  O   -0.989847
    14  O   -0.744128
    15  H    0.356569
    16  H   -0.066288
    17  H    0.078126
    18  H    0.095774
    19  N    0.062396
    20  C   -0.350954
    21  C    0.577516
    22  O   -0.588600
    23  C    0.084524
    24  C   -0.071896
    25  C   -0.054958
    26  C    0.203878
    27  N   -0.412129
    28  H    0.069678
    29  H    0.145889
    30  H    0.005147
    31  H    0.087077
    32  H    0.019556
    33  H    0.068726
    34  H    0.029237
    35  H    0.034281
    36  H    0.060861
    37  H    0.011763
    38  H    0.349572
    39  H    0.333522
    40  H    0.315141
    41  N   -0.417050
    42  C    0.179545
    43  C    0.416009
    44  O   -0.533841
    45  C   -0.448837
    46  C    0.861273
    47  O   -0.734550
    48  O   -0.800547
    49  H    0.338282
    50  H    0.068932
    51  H    0.114693
    52  H    0.104844
    53  N   -0.108450
    54  C   -0.351449
    55  C    0.647490
    56  O   -0.598497
    57  H    0.138114
    58  H    0.141592
    59  H    0.160297
    60  N   -0.335727
    61  C   -0.097427
    62  C    0.512081
    63  O   -0.553506
    64  C   -0.237722
    65  C    0.686072
    66  N   -0.857273
    67  O   -0.510677
    68  H    0.265467
    69  H    0.145082
    70  H    0.144993
    71  H    0.093277
    72  H    0.406457
    73  H    0.368280
    74  N   -0.325297
    75  C   -0.084057
    76  C    0.630399
    77  O   -0.583032
    78  H    0.325158
    79  H    0.099458
    80  H    0.070124
    81  N   -0.559719
    82  C    0.341419
    83  C    0.470310
    84  O   -0.503037
    85  C   -0.113149
    86  C   -0.192123
    87  C    0.068405
    88  C    0.184103
    89  C   -0.455817
    90  C   -0.585102
    91  C    0.623291
    92  O   -0.636924
    93  H    0.237303
    94  H    0.033667
    95  H    0.035721
    96  H   -0.031724
    97  H    0.082035
    98  H    0.087571
    99  H    0.185402
   100  H    0.210382
   101  H    0.435827
   102  N   -0.659596
   103  C    0.315972
   104  C    0.356889
   105  O   -0.514726
   106  C   -0.215399
   107  C    0.399446
   108  C   -0.117004
   109  C   -0.435945
   110  H    0.317091
   111  H    0.081623
   112  H    0.064793
   113  H   -0.024264
   114  H   -0.077689
   115  H    0.066687
   116  H    0.045232
   117  H    0.032477
   118  H    0.093117
   119  H    0.092903
   120  H    0.108581
   121  N   -0.084595
   122  C   -0.058912
   123  C    0.601669
   124  O   -0.494562
   125  C    0.241865
   126  O   -0.592597
   127  H    0.016455
   128  H    0.037261
   129  H    0.004512
   130  H    0.007271
   131  H    0.379524
   132  N   -0.522096
   133  C    0.109740
   134  C    0.520299
   135  O   -0.554677
   136  C   -0.290634
   137  H    0.307995
   138  H    0.116483
   139  H    0.119885
   140  H    0.082800
   141  H    0.074887
   142  N   -0.522310
   143  C    0.257563
   144  C    0.315183
   145  O   -0.517921
   146  C   -0.296738
   147  H    0.305864
   148  H    0.078260
   149  H    0.092856
   150  H    0.070859
   151  H    0.069596
   152  N   -0.011976
   153  C   -0.395273
   154  C    0.637744
   155  O   -0.582479
   156  C    0.505173
   157  C   -0.020503
   158  C    0.641310
   159  O   -0.688492
   160  O   -0.665391
   161  H    0.083477
   162  H    0.121239
   163  H   -0.062988
   164  H   -0.185397
   165  H   -0.000715
   166  H   -0.065602
   167  N   -0.208751
   168  C   -0.226678
   169  H    0.111940
   170  H    0.077473
   171  H    0.089106
   172  H    0.205645
   173  Ca   1.585177
   174  O   -0.836806
   175  H    0.427306
   176  H    0.417588
 Sum of ESP charges =  -0.00000

 Normal termination of Gaussian 16 at Wed Sep 18 16:09:27 2019.
