 Gaussian 16, Revision A.03,
 Gaussian 16:  ES64L-G16RevA.03 25-Dec-2016

 ----------------------------------------------------------------------
 #b3lyp/svp scf=(tight,noincore) Test #IOP(5/87=12) Density=Current Pop
 =(MK,readradii) iop(6/33=2) iop(6/42=6)
 ----------------------------------------------------------------------

 -----------------
 CaMKII_loop3_56.0
 -----------------
 Symbolic Z-matrix:
 Charge =  0 Multiplicity = 1

                         Standard orientation:
 ---------------------------------------------------------------------
 Center     Atomic      Atomic             Coordinates (Angstroms)
 Number     Number       Type             X           Y           Z
 ---------------------------------------------------------------------
      1          6           0        2.307157    2.695822    4.467038
      2          6           0        1.522182    2.373947    3.212123
      3          8           0        2.033135    2.405965    2.092613
      4          1           0        3.374108    2.631643    4.253548
      5          1           0        2.063189    3.704624    4.799945
      6          1           0        2.050302    1.982117    5.250236
      7          7           0        0.230449    2.101181    3.385103
      8          6           0       -0.785725    2.058361    2.356629
      9          6           0       -1.053509    3.476951    1.862568
     10          8           0       -2.072080    4.086116    2.155877
     11          6           0       -2.088581    1.338471    2.687268
     12          6           0       -2.990441    1.108792    1.480703
     13          8           0       -2.629855    1.450970    0.339041
     14          8           0       -4.134006    0.689478    1.751507
     15          1           0       -0.112073    1.976485    4.325331
     16          1           0       -0.333542    1.443521    1.571516
     17          1           0       -2.671584    1.863585    3.447177
     18          1           0       -1.803676    0.345530    3.025346
     19          7           0       -0.239106    3.903507    0.893911
     20          6           0       -0.223580    5.277484    0.425245
     21          6           0       -1.230452    5.772998   -0.600023
     22          8           0       -1.295063    6.951201   -0.963566
     23          6           0        1.192297    5.797500    0.171915
     24          6           0        1.453923    7.273959    0.433682
     25          6           0        2.785660    7.784391   -0.118526
     26          6           0        3.227690    9.168150    0.338334
     27          7           0        2.232125   10.141759   -0.150374
     28          1           0        0.558227    3.317247    0.671518
     29          1           0       -0.562950    5.744421    1.357660
     30          1           0        1.531729    5.626783   -0.843290
     31          1           0        1.811808    5.173650    0.819848
     32          1           0        1.468963    7.321616    1.527027
     33          1           0        0.654640    7.900309    0.043385
     34          1           0        2.677528    7.780687   -1.210494
     35          1           0        3.526442    7.046097    0.180413
     36          1           0        4.227776    9.357452   -0.039280
     37          1           0        3.207173    9.252112    1.427476
     38          1           0        2.646563   11.060936   -0.237298
     39          1           0        1.913394   10.099439   -1.102854
     40          1           0        1.414876   10.288299    0.415603
     41          7           0       -2.152369    4.870458   -0.929857
     42          6           0       -3.303582    5.030395   -1.800679
     43          6           0       -4.590275    4.682274   -1.060252
     44          8           0       -5.574178    5.403142   -1.189815
     45          6           0       -3.142824    4.251501   -3.107767
     46          6           0       -2.698127    2.810785   -2.873923
     47          8           0       -3.564034    1.982483   -2.512923
     48          8           0       -1.506534    2.445423   -2.810548
     49          1           0       -2.066771    3.934917   -0.574985
     50          1           0       -3.457466    6.075402   -2.059872
     51          1           0       -2.300372    4.716493   -3.624832
     52          1           0       -4.027488    4.188060   -3.737643
     53          7           0       -4.643771    3.574496   -0.326451
     54          6           0       -5.804674    3.126491    0.414222
     55          6           0       -6.518850    1.912265   -0.177900
     56          8           0       -7.682454    1.689167    0.172888
     57          1           0       -3.943019    2.852108   -0.336614
     58          1           0       -6.549800    3.895506    0.583937
     59          1           0       -5.510355    2.711611    1.383216
     60          7           0       -5.888828    1.095752   -1.021332
     61          6           0       -6.387419   -0.175077   -1.499350
     62          6           0       -6.446705   -1.273339   -0.444027
     63          8           0       -6.860455   -2.382886   -0.770090
     64          6           0       -5.666160   -0.676451   -2.747953
     65          6           0       -4.350612   -1.352544   -2.396339
     66          7           0       -4.011543   -2.377178   -3.194686
     67          8           0       -3.657661   -0.933122   -1.471297
     68          1           0       -4.904451    1.188505   -1.267298
     69          1           0       -7.386374   -0.054578   -1.928966
     70          1           0       -5.437180    0.108723   -3.470289
     71          1           0       -6.360651   -1.356056   -3.242643
     72          1           0       -4.547134   -2.695196   -3.980247
     73          1           0       -3.111621   -2.783073   -2.964924
     74          7           0       -6.053987   -0.941935    0.785503
     75          6           0       -5.980080   -1.818148    1.942088
     76          6           0       -4.815191   -2.796100    1.888753
     77          8           0       -4.885324   -3.820882    2.552307
     78          1           0       -5.701317   -0.024685    1.014143
     79          1           0       -6.912230   -2.378109    2.040781
     80          1           0       -5.927802   -1.233449    2.862519
     81          7           0       -3.705066   -2.521037    1.202049
     82          6           0       -2.464521   -3.269291    1.255556
     83          6           0       -1.231596   -2.383468    1.212973
     84          8           0       -1.202946   -1.309662    0.610048
     85          6           0       -2.376248   -4.296202    0.132408
     86          6           0       -3.593080   -5.172188    0.004862
     87          6           0       -3.651751   -6.452064    0.580689
     88          6           0       -4.681678   -4.836128   -0.802243
     89          6           0       -4.706334   -7.350200    0.364346
     90          6           0       -5.804492   -5.644947   -1.002241
     91          6           0       -5.804173   -6.925577   -0.408535
     92          8           0       -6.939087   -7.665460   -0.576890
     93          1           0       -3.632832   -1.608180    0.767337
     94          1           0       -2.543928   -3.857605    2.175057
     95          1           0       -1.468172   -4.895658    0.120162
     96          1           0       -2.419212   -3.709834   -0.791727
     97          1           0       -2.795931   -6.857748    1.090192
     98          1           0       -4.689335   -3.871877   -1.306785
     99          1           0       -4.778264   -8.326703    0.817743
    100          1           0       -6.656709   -5.390143   -1.608296
    101          1           0       -7.548342   -7.347096   -1.237989
    102          7           0       -0.158379   -2.922655    1.799389
    103          6           0        1.213675   -2.463155    1.822316
    104          6           0        1.991874   -3.440526    0.953033
    105          8           0        2.093295   -4.610479    1.290558
    106          6           0        1.709855   -2.481474    3.271822
    107          6           0        0.825452   -1.795632    4.305820
    108          6           0        3.125812   -1.944512    3.354518
    109          6           0        1.287656   -1.799656    5.761757
    110          1           0       -0.226037   -3.881110    2.110814
    111          1           0        1.328150   -1.427760    1.493905
    112          1           0        1.792842   -3.480139    3.722134
    113          1           0       -0.202004   -2.159419    4.335719
    114          1           0        0.677437   -0.743197    4.061131
    115          1           0        3.606450   -2.159836    4.304477
    116          1           0        3.727151   -2.298562    2.513364
    117          1           0        2.977782   -0.863457    3.357176
    118          1           0        1.143487   -2.777007    6.224141
    119          1           0        2.288380   -1.384185    5.833417
    120          1           0        0.507997   -1.185557    6.217843
    121          7           0        2.620252   -2.972196   -0.127202
    122          6           0        3.540076   -3.651129   -1.020496
    123          6           0        4.981729   -3.527340   -0.536643
    124          8           0        5.280721   -2.731107    0.361754
    125          6           0        3.376866   -3.261572   -2.484637
    126          8           0        3.750928   -1.900627   -2.553951
    127          1           0        2.334165   -2.032566   -0.368551
    128          1           0        3.359296   -4.714402   -0.871603
    129          1           0        2.374966   -3.453999   -2.856213
    130          1           0        3.936636   -3.859898   -3.204542
    131          1           0        2.978721   -1.341121   -2.465919
    132          7           0        5.914939   -4.207873   -1.200114
    133          6           0        7.312489   -4.123885   -0.829710
    134          6           0        7.878096   -2.767813   -1.229157
    135          8           0        8.624541   -2.138310   -0.488518
    136          6           0        8.029192   -5.189611   -1.656430
    137          1           0        5.692283   -4.910456   -1.887791
    138          1           0        7.341643   -4.259725    0.248481
    139          1           0        9.071704   -5.177476   -1.353742
    140          1           0        7.511727   -6.142281   -1.510654
    141          1           0        7.999631   -4.964140   -2.718310
    142          7           0        7.543028   -2.169439   -2.385954
    143          6           0        7.784089   -0.763228   -2.652147
    144          6           0        7.222647    0.225162   -1.641816
    145          8           0        7.963324    1.111917   -1.223649
    146          6           0        7.358901   -0.472248   -4.083876
    147          1           0        6.806094   -2.603245   -2.920408
    148          1           0        8.864673   -0.712598   -2.529372
    149          1           0        7.570836    0.525566   -4.466957
    150          1           0        7.724620   -1.194821   -4.806397
    151          1           0        6.278644   -0.589441   -4.165797
    152          7           0        6.025388   -0.035895   -1.120071
    153          6           0        5.454243    0.820159   -0.100088
    154          6           0        6.004206    0.646218    1.310829
    155          8           0        6.112149    1.610982    2.069235
    156          6           0        3.942309    0.641121   -0.085937
    157          6           0        3.246995    1.343452   -1.246700
    158          6           0        1.841581    0.756645   -1.349502
    159          8           0        1.642055   -0.177419   -2.162406
    160          8           0        0.885953    1.184703   -0.678650
    161          1           0        5.441423   -0.702427   -1.604138
    162          1           0        5.732484    1.845851   -0.303652
    163          1           0        3.526691    1.017044    0.848110
    164          1           0        3.727586   -0.425086   -0.032119
    165          1           0        3.742846    1.151628   -2.197192
    166          1           0        3.137348    2.425056   -1.135753
    167          7           0        6.492013   -0.540693    1.659235
    168          6           0        7.366784   -0.836891    2.787571
    169          1           0        8.352440   -0.409186    2.604648
    170          1           0        6.947800   -0.405200    3.696487
    171          1           0        7.455890   -1.917070    2.905528
    172          1           0        6.212196   -1.308031    1.062330
    173         20           0       -1.219824    0.201528   -1.563617
    174          8           0       -0.454547   -2.403063   -2.056218
    175          1           0       -0.109958   -3.230749   -1.723512
    176          1           0       -0.619335   -2.572827   -2.985048
 ---------------------------------------------------------------------

 SCF Done:  E(RB3LYP) =  -5333.59332266     A.U. after   16 cycles

 The electronic state is 1-A.
 Alpha  occ. eigenvalues -- -145.37630 -19.20204 -19.14360 -19.13639 -19.13118
 Alpha  occ. eigenvalues --  -19.12499 -19.12421 -19.11255 -19.09377 -19.08739
 Alpha  occ. eigenvalues --  -19.08085 -19.07841 -19.07513 -19.07239 -19.07217
 Alpha  occ. eigenvalues --  -19.05315 -19.05164 -19.04701 -19.04652 -19.04439
 Alpha  occ. eigenvalues --  -19.03606 -19.03140 -19.03092 -19.02869 -15.43362
 Alpha  occ. eigenvalues --  -14.58519 -14.39003 -14.37720 -14.37592 -14.37373
 Alpha  occ. eigenvalues --  -14.35544 -14.34696 -14.33255 -14.33074 -14.32567
 Alpha  occ. eigenvalues --  -14.31821 -14.30050 -14.29649 -14.29027 -14.28891
 Alpha  occ. eigenvalues --  -12.56992 -12.56928 -12.56922 -10.35574 -10.31546
 Alpha  occ. eigenvalues --  -10.30670 -10.30541 -10.29899 -10.28394 -10.27677
 Alpha  occ. eigenvalues --  -10.27320 -10.26814 -10.26701 -10.26280 -10.26220
 Alpha  occ. eigenvalues --  -10.25851 -10.25610 -10.25579 -10.24550 -10.24298
 Alpha  occ. eigenvalues --  -10.23776 -10.23596 -10.23400 -10.23100 -10.23066
 Alpha  occ. eigenvalues --  -10.22750 -10.22659 -10.22646 -10.22552 -10.22404
 Alpha  occ. eigenvalues --  -10.22071 -10.21795 -10.20828 -10.20228 -10.19955
 Alpha  occ. eigenvalues --  -10.19735 -10.19607 -10.19237 -10.19138 -10.18908
 Alpha  occ. eigenvalues --  -10.18715 -10.18620 -10.18530 -10.18524 -10.17653
 Alpha  occ. eigenvalues --  -10.17623 -10.17065 -10.17030 -10.16875 -10.16738
 Alpha  occ. eigenvalues --  -10.16698 -10.16515 -10.16425 -10.16326 -10.16147
 Alpha  occ. eigenvalues --  -10.15566 -10.15483  -1.80165  -1.14110  -1.07914
 Alpha  occ. eigenvalues --   -1.07561  -1.07503  -1.06287  -1.06114  -1.05136
 Alpha  occ. eigenvalues --   -1.04716  -1.04348  -1.03212  -1.03057  -1.02354
 Alpha  occ. eigenvalues --   -1.02349  -1.01921  -1.00959  -1.00237  -1.00203
 Alpha  occ. eigenvalues --   -0.99228  -0.99063  -0.98686  -0.98038  -0.97525
 Alpha  occ. eigenvalues --   -0.96985  -0.95970  -0.95846  -0.94489  -0.93925
 Alpha  occ. eigenvalues --   -0.92537  -0.91963  -0.91896  -0.91336  -0.90811
 Alpha  occ. eigenvalues --   -0.90053  -0.89371  -0.89277  -0.88969  -0.88927
 Alpha  occ. eigenvalues --   -0.88007  -0.87318  -0.86345  -0.86061  -0.85220
 Alpha  occ. eigenvalues --   -0.82645  -0.82240  -0.81925  -0.81448  -0.78475
 Alpha  occ. eigenvalues --   -0.77774  -0.77546  -0.77158  -0.76035  -0.75960
 Alpha  occ. eigenvalues --   -0.75477  -0.74949  -0.74389  -0.73322  -0.72080
 Alpha  occ. eigenvalues --   -0.71571  -0.71558  -0.70682  -0.70410  -0.70324
 Alpha  occ. eigenvalues --   -0.69229  -0.68873  -0.67998  -0.67718  -0.67559
 Alpha  occ. eigenvalues --   -0.66582  -0.65276  -0.64986  -0.64365  -0.64177
 Alpha  occ. eigenvalues --   -0.63960  -0.63677  -0.62734  -0.62042  -0.61389
 Alpha  occ. eigenvalues --   -0.61099  -0.60428  -0.60189  -0.60109  -0.59754
 Alpha  occ. eigenvalues --   -0.59540  -0.59286  -0.59088  -0.57445  -0.57348
 Alpha  occ. eigenvalues --   -0.57283  -0.56736  -0.56663  -0.56472  -0.56168
 Alpha  occ. eigenvalues --   -0.55577  -0.55261  -0.55103  -0.55005  -0.54612
 Alpha  occ. eigenvalues --   -0.54169  -0.53811  -0.53690  -0.53315  -0.53302
 Alpha  occ. eigenvalues --   -0.52511  -0.52084  -0.51807  -0.51341  -0.51316
 Alpha  occ. eigenvalues --   -0.50977  -0.50724  -0.50299  -0.49872  -0.49609
 Alpha  occ. eigenvalues --   -0.49468  -0.49136  -0.48687  -0.48512  -0.48411
 Alpha  occ. eigenvalues --   -0.47965  -0.47677  -0.47530  -0.47400  -0.47154
 Alpha  occ. eigenvalues --   -0.47043  -0.46741  -0.46525  -0.46250  -0.46132
 Alpha  occ. eigenvalues --   -0.46054  -0.45953  -0.45514  -0.45374  -0.44993
 Alpha  occ. eigenvalues --   -0.44707  -0.44547  -0.44272  -0.44141  -0.43911
 Alpha  occ. eigenvalues --   -0.43752  -0.43556  -0.43520  -0.43497  -0.43206
 Alpha  occ. eigenvalues --   -0.43156  -0.43025  -0.42770  -0.42644  -0.42469
 Alpha  occ. eigenvalues --   -0.42346  -0.42171  -0.42057  -0.41772  -0.41686
 Alpha  occ. eigenvalues --   -0.41511  -0.41358  -0.41234  -0.41040  -0.40869
 Alpha  occ. eigenvalues --   -0.40745  -0.40591  -0.40306  -0.40219  -0.39976
 Alpha  occ. eigenvalues --   -0.39919  -0.39874  -0.39829  -0.39699  -0.39635
 Alpha  occ. eigenvalues --   -0.39468  -0.39367  -0.39205  -0.38982  -0.38891
 Alpha  occ. eigenvalues --   -0.38820  -0.38634  -0.38505  -0.38440  -0.38302
 Alpha  occ. eigenvalues --   -0.38189  -0.38121  -0.38039  -0.37963  -0.37800
 Alpha  occ. eigenvalues --   -0.37620  -0.37556  -0.37239  -0.37135  -0.36950
 Alpha  occ. eigenvalues --   -0.36756  -0.36488  -0.36264  -0.35951  -0.35900
 Alpha  occ. eigenvalues --   -0.35822  -0.35640  -0.35514  -0.35304  -0.35093
 Alpha  occ. eigenvalues --   -0.34977  -0.34812  -0.34794  -0.34682  -0.34459
 Alpha  occ. eigenvalues --   -0.34193  -0.34066  -0.33618  -0.33384  -0.33340
 Alpha  occ. eigenvalues --   -0.33198  -0.32929  -0.32894  -0.32601  -0.32532
 Alpha  occ. eigenvalues --   -0.32068  -0.31462  -0.31390  -0.31287  -0.31005
 Alpha  occ. eigenvalues --   -0.30766  -0.30718  -0.30570  -0.30312  -0.30292
 Alpha  occ. eigenvalues --   -0.29696  -0.29164  -0.29001  -0.28395  -0.27837
 Alpha  occ. eigenvalues --   -0.27542  -0.27029  -0.26934  -0.26518  -0.25996
 Alpha  occ. eigenvalues --   -0.25587  -0.25336  -0.24890  -0.24847  -0.24721
 Alpha  occ. eigenvalues --   -0.24538  -0.23852  -0.23359  -0.23146  -0.22937
 Alpha  occ. eigenvalues --   -0.22818  -0.22692  -0.22641  -0.22544  -0.22343
 Alpha  occ. eigenvalues --   -0.22256  -0.21841  -0.21312  -0.20915  -0.20900
 Alpha  occ. eigenvalues --   -0.20342  -0.20272  -0.19752  -0.19424  -0.19323
 Alpha  occ. eigenvalues --   -0.19063  -0.18364  -0.17446
 Alpha virt. eigenvalues --   -0.10464  -0.04968  -0.04285  -0.03770  -0.01547
 Alpha virt. eigenvalues --   -0.01066  -0.00934   0.00311   0.00539   0.00700
 Alpha virt. eigenvalues --    0.00740   0.01228   0.02024   0.02319   0.02520

 Mulliken charges:
               1
     1  C    0.044707
     2  C    0.034902
     3  O   -0.284278
     4  H    0.053234
     5  H    0.027941
     6  H    0.014233
     7  N   -0.122995
     8  C    0.044778
     9  C    0.068054
    10  O   -0.263754
    11  C    0.098259
    12  C    0.178425
    13  O   -0.454872
    14  O   -0.392614
    15  H    0.111290
    16  H    0.033314
    17  H    0.018104
    18  H   -0.008894
    19  N   -0.165257
    20  C    0.119884
    21  C    0.093198
    22  O   -0.316225
    23  C    0.033910
    24  C   -0.018085
    25  C   -0.056315
    26  C    0.090417
    27  N    0.074669
    28  H    0.159036
    29  H    0.012212
    30  H    0.004565
    31  H    0.020887
    32  H   -0.002078
    33  H   -0.004274
    34  H    0.033178
    35  H    0.058221
    36  H    0.081927
    37  H    0.069887
    38  H    0.171528
    39  H    0.179568
    40  H    0.197269
    41  N   -0.110534
    42  C    0.077862
    43  C    0.061419
    44  O   -0.285811
    45  C    0.201797
    46  C    0.031870
    47  O   -0.392528
    48  O   -0.439414
    49  H    0.158439
    50  H    0.003087
    51  H   -0.018380
    52  H    0.009270
    53  N   -0.165502
    54  C    0.243651
    55  C   -0.007343
    56  O   -0.311802
    57  H    0.159053
    58  H    0.019906
    59  H    0.028879
    60  N   -0.146539
    61  C    0.138761
    62  C    0.048093
    63  O   -0.303402
    64  C    0.060779
    65  C    0.074215
    66  N   -0.048294
    67  O   -0.324930
    68  H    0.162154
    69  H    0.015436
    70  H    0.050988
    71  H    0.004144
    72  H    0.135525
    73  H    0.097124
    74  N   -0.136936
    75  C    0.246900
    76  C    0.033162
    77  O   -0.293574
    78  H    0.160121
    79  H    0.018992
    80  H    0.035161
    81  N   -0.163182
    82  C    0.085474
    83  C    0.146372
    84  O   -0.345329
    85  C    0.160994
    86  C    0.020905
    87  C   -0.005968
    88  C   -0.004598
    89  C   -0.020749
    90  C   -0.002199
    91  C    0.143623
    92  O   -0.208083
    93  H    0.172684
    94  H    0.005776
    95  H   -0.018518
    96  H   -0.059192
    97  H   -0.048311
    98  H   -0.055360
    99  H   -0.034596
   100  H   -0.052146
   101  H    0.171229
   102  N   -0.120063
   103  C    0.158551
   104  C    0.035849
   105  O   -0.272155
   106  C   -0.068408
   107  C   -0.026043
   108  C    0.027841
   109  C    0.028335
   110  H    0.138322
   111  H    0.023963
   112  H   -0.007771
   113  H   -0.006974
   114  H   -0.020383
   115  H    0.011317
   116  H    0.036332
   117  H    0.010604
   118  H    0.011195
   119  H    0.022393
   120  H    0.003973
   121  N   -0.127154
   122  C    0.113188
   123  C    0.115287
   124  O   -0.272855
   125  C    0.265858
   126  O   -0.339945
   127  H    0.134007
   128  H    0.009618
   129  H   -0.024887
   130  H   -0.011162
   131  H    0.172509
   132  N   -0.141602
   133  C    0.095439
   134  C    0.050717
   135  O   -0.249682
   136  C    0.044458
   137  H    0.113682
   138  H    0.024010
   139  H    0.046971
   140  H    0.023771
   141  H    0.009741
   142  N   -0.141824
   143  C    0.118054
   144  C    0.064746
   145  O   -0.266691
   146  C    0.035292
   147  H    0.092222
   148  H    0.017146
   149  H    0.030529
   150  H    0.004628
   151  H    0.001372
   152  N   -0.145898
   153  C    0.161000
   154  C    0.034077
   155  O   -0.302217
   156  C   -0.045518
   157  C    0.154920
   158  C    0.120429
   159  O   -0.445929
   160  O   -0.418486
   161  H    0.129075
   162  H   -0.006705
   163  H    0.044215
   164  H   -0.039626
   165  H   -0.017084
   166  H    0.000132
   167  N   -0.159158
   168  C    0.155747
   169  H    0.028402
   170  H    0.011605
   171  H    0.003151
   172  H    0.138451
   173  Ca   1.291050
   174  O   -0.260234
   175  H    0.186088
   176  H    0.169607
 Sum of Mulliken charges =  -0.00000

 Dipole moment (field-independent basis, Debye):
    X=             22.1783    Y=             16.9556    Z=             -9.3881  Tot=             29.4535
 Quadrupole moment (field-independent basis, Debye-Ang):
   XX=           -750.8243   YY=           -218.1381   ZZ=           -511.8512
   XY=             88.7735   XZ=              1.1410   YZ=             57.0222

 ESP charges:
               1
     1  C   -0.393308
     2  C    0.799597
     3  O   -0.635270
     4  H    0.125901
     5  H    0.101503
     6  H    0.088429
     7  N   -0.852907
     8  C    0.589603
     9  C    0.444541
    10  O   -0.550439
    11  C   -0.531336
    12  C    1.137673
    13  O   -0.864467
    14  O   -0.735664
    15  H    0.358388
    16  H   -0.009033
    17  H    0.107972
    18  H    0.068847
    19  N   -0.324784
    20  C   -0.067951
    21  C    0.560818
    22  O   -0.574012
    23  C    0.074766
    24  C    0.067249
    25  C   -0.056562
    26  C    0.016982
    27  N   -0.302122
    28  H    0.293395
    29  H    0.075709
    30  H    0.001284
    31  H    0.018809
    32  H   -0.010260
    33  H   -0.051382
    34  H    0.032721
    35  H    0.052858
    36  H    0.092294
    37  H    0.089548
    38  H    0.287524
    39  H    0.336950
    40  H    0.323004
    41  N   -0.414393
    42  C    0.391642
    43  C    0.324680
    44  O   -0.545817
    45  C   -0.404396
    46  C    0.819339
    47  O   -0.748424
    48  O   -0.789017
    49  H    0.224984
    50  H    0.002913
    51  H    0.075890
    52  H    0.121982
    53  N    0.077599
    54  C   -0.234175
    55  C    0.638167
    56  O   -0.612774
    57  H   -0.117178
    58  H    0.119747
    59  H    0.105356
    60  N   -0.387690
    61  C   -0.101811
    62  C    0.262267
    63  O   -0.454909
    64  C   -0.140736
    65  C    0.528620
    66  N   -0.851654
    67  O   -0.378982
    68  H    0.296936
    69  H    0.149335
    70  H    0.113327
    71  H    0.066145
    72  H    0.411265
    73  H    0.366504
    74  N    0.078111
    75  C   -0.568530
    76  C    0.803483
    77  O   -0.559009
    78  H    0.260137
    79  H    0.185894
    80  H    0.181821
    81  N   -0.462567
    82  C    0.313002
    83  C    0.688230
    84  O   -0.602456
    85  C    0.202712
    86  C   -0.186300
    87  C    0.075727
    88  C   -0.133142
    89  C   -0.432756
    90  C   -0.318248
    91  C    0.485457
    92  O   -0.573173
    93  H    0.013703
    94  H   -0.041508
    95  H   -0.032715
    96  H   -0.139422
    97  H    0.059483
    98  H    0.196007
    99  H    0.193306
   100  H    0.132162
   101  H    0.406744
   102  N   -0.856570
   103  C    0.051026
   104  C    0.566712
   105  O   -0.555489
   106  C    0.227161
   107  C    0.289597
   108  C   -0.280351
   109  C   -0.427467
   110  H    0.356185
   111  H    0.128228
   112  H   -0.050592
   113  H   -0.032822
   114  H   -0.024908
   115  H    0.096354
   116  H    0.036536
   117  H    0.022117
   118  H    0.098460
   119  H    0.098720
   120  H    0.090785
   121  N   -0.007458
   122  C   -0.474431
   123  C    0.596446
   124  O   -0.408802
   125  C    0.366584
   126  O   -0.618479
   127  H    0.102538
   128  H    0.123955
   129  H   -0.009754
   130  H    0.009367
   131  H    0.401954
   132  N   -0.385050
   133  C    0.024652
   134  C    0.608997
   135  O   -0.541809
   136  C   -0.306332
   137  H    0.282811
   138  H    0.099121
   139  H    0.116292
   140  H    0.094414
   141  H    0.077438
   142  N   -0.473594
   143  C    0.083584
   144  C    0.361868
   145  O   -0.506263
   146  C   -0.335301
   147  H    0.265957
   148  H    0.108744
   149  H    0.115892
   150  H    0.093082
   151  H    0.085933
   152  N    0.043514
   153  C   -0.301446
   154  C    0.490016
   155  O   -0.562053
   156  C    0.181583
   157  C   -0.186138
   158  C    0.857020
   159  O   -0.780422
   160  O   -0.770717
   161  H    0.115440
   162  H    0.128414
   163  H    0.055485
   164  H   -0.161579
   165  H    0.021131
   166  H    0.043957
   167  N   -0.019781
   168  C   -0.263892
   169  H    0.119417
   170  H    0.081853
   171  H    0.090738
   172  H    0.063510
   173  Ca   1.580889
   174  O   -0.657912
   175  H    0.360144
   176  H    0.357027
 Sum of ESP charges =  -0.00000

 Normal termination of Gaussian 16 at Wed Sep 18 16:55:35 2019.
