 Gaussian 16, Revision A.03,
 Gaussian 16:  ES64L-G16RevA.03 25-Dec-2016

 ----------------------------------------------------------------------
 #b3lyp/svp scf=(tight,noincore) Test #IOP(5/87=12) Density=Current Pop
 =(MK,readradii) iop(6/33=2) iop(6/42=6)
 ----------------------------------------------------------------------

 -----------------
 CaMKII_loop3_39.0
 -----------------
 Symbolic Z-matrix:
 Charge =  0 Multiplicity = 1

                         Standard orientation:
 ---------------------------------------------------------------------
 Center     Atomic      Atomic             Coordinates (Angstroms)
 Number     Number       Type             X           Y           Z
 ---------------------------------------------------------------------
      1          6           0        2.530723    1.371175    5.551689
      2          6           0        1.815850    1.586146    4.236302
      3          8           0        2.473788    1.834809    3.229384
      4          1           0        3.561619    1.713523    5.463871
      5          1           0        2.026183    1.935592    6.336055
      6          1           0        2.520458    0.310490    5.801822
      7          7           0        0.481159    1.574678    4.183671
      8          6           0       -0.208279    1.807324    2.924325
      9          6           0        0.054326    3.189380    2.349645
     10          8           0       -0.463915    4.137793    2.937045
     11          6           0       -1.671276    1.456164    3.142336
     12          6           0       -2.477587    1.663641    1.865459
     13          8           0       -1.950699    1.695745    0.731149
     14          8           0       -3.683715    1.821236    2.156178
     15          1           0       -0.051844    1.596792    5.041353
     16          1           0        0.135811    1.085605    2.185661
     17          1           0       -2.085465    2.034529    3.972301
     18          1           0       -1.720181    0.412768    3.448985
     19          7           0        0.888681    3.349122    1.321036
     20          6           0        1.445020    4.602494    0.855262
     21          6           0        0.425282    5.412580    0.056203
     22          8           0        0.558517    6.621375   -0.108912
     23          6           0        2.679032    4.296866    0.015080
     24          6           0        3.575098    5.503722   -0.281513
     25          6           0        4.838889    5.269994   -1.109706
     26          6           0        5.425006    6.595265   -1.563493
     27          7           0        6.840151    6.448350   -1.945306
     28          1           0        1.199271    2.479749    0.892172
     29          1           0        1.763435    5.287580    1.627770
     30          1           0        2.281058    3.853877   -0.894027
     31          1           0        3.250353    3.557309    0.570730
     32          1           0        3.940977    5.906381    0.665587
     33          1           0        3.020652    6.249622   -0.850391
     34          1           0        4.559117    4.693033   -1.992738
     35          1           0        5.444619    4.654824   -0.442955
     36          1           0        5.298380    7.384136   -0.825151
     37          1           0        4.928876    6.967561   -2.463910
     38          1           0        7.217998    7.313727   -2.318338
     39          1           0        7.402653    6.179313   -1.145050
     40          1           0        6.911116    5.750466   -2.665669
     41          7           0       -0.566843    4.768497   -0.573357
     42          6           0       -1.439761    5.229912   -1.639570
     43          6           0       -2.874647    5.360839   -1.154536
     44          8           0       -3.760710    5.820345   -1.868012
     45          6           0       -1.133820    4.530658   -2.960420
     46          6           0       -1.078320    3.008425   -2.810662
     47          8           0        0.023970    2.507842   -2.521401
     48          8           0       -2.088548    2.294078   -2.990517
     49          1           0       -0.576971    3.779059   -0.403034
     50          1           0       -1.298468    6.275139   -1.903076
     51          1           0       -0.185064    4.890302   -3.361691
     52          1           0       -1.839604    4.887171   -3.712528
     53          7           0       -3.130777    4.945350    0.088431
     54          6           0       -4.417395    5.012469    0.754697
     55          6           0       -5.388900    3.996621    0.184846
     56          8           0       -6.556325    4.386546    0.220565
     57          1           0       -2.378829    4.750069    0.734836
     58          1           0       -4.881047    5.992017    0.602671
     59          1           0       -4.344073    4.887407    1.831490
     60          7           0       -5.040621    2.831861   -0.367816
     61          6           0       -5.982221    1.985031   -1.083057
     62          6           0       -6.600593    0.798254   -0.362102
     63          8           0       -7.539197    0.138158   -0.794992
     64          6           0       -5.403262    1.716258   -2.469083
     65          6           0       -4.783764    0.325408   -2.406178
     66          7           0       -5.040049   -0.613673   -3.319494
     67          8           0       -3.969668    0.098360   -1.506735
     68          1           0       -4.063534    2.613673   -0.276739
     69          1           0       -6.884607    2.559377   -1.293596
     70          1           0       -4.637022    2.441269   -2.731446
     71          1           0       -6.220386    1.587682   -3.180053
     72          1           0       -5.634401   -0.484274   -4.129063
     73          1           0       -4.455010   -1.434764   -3.359968
     74          7           0       -6.096321    0.457535    0.820869
     75          6           0       -6.618736   -0.624119    1.623930
     76          6           0       -5.783496   -1.893089    1.687879
     77          8           0       -6.157343   -2.862369    2.348815
     78          1           0       -5.406155    1.083551    1.207746
     79          1           0       -7.669505   -0.910464    1.521991
     80          1           0       -6.547222   -0.249165    2.650914
     81          7           0       -4.694253   -1.888906    0.917404
     82          6           0       -3.725011   -2.932126    0.670901
     83          6           0       -2.310352   -2.391280    0.845043
     84          8           0       -2.106524   -1.237749    0.494017
     85          6           0       -3.964130   -3.537393   -0.710574
     86          6           0       -5.276401   -4.269354   -0.785261
     87          6           0       -5.272174   -5.664430   -0.670179
     88          6           0       -6.439431   -3.549711   -1.069648
     89          6           0       -6.472955   -6.383674   -0.747731
     90          6           0       -7.650427   -4.252643   -1.228005
     91          6           0       -7.626125   -5.651524   -1.081578
     92          8           0       -8.828673   -6.297984   -1.149162
     93          1           0       -4.408000   -0.967826    0.612985
     94          1           0       -3.939350   -3.720724    1.395174
     95          1           0       -3.134343   -4.231266   -0.854072
     96          1           0       -4.054507   -2.706018   -1.409966
     97          1           0       -4.411194   -6.250400   -0.412201
     98          1           0       -6.412341   -2.474415   -1.071327
     99          1           0       -6.525920   -7.447372   -0.584509
    100          1           0       -8.546657   -3.714912   -1.501166
    101          1           0       -9.564838   -5.689646   -1.267424
    102          7           0       -1.406452   -3.232650    1.360371
    103          6           0        0.021961   -2.969314    1.396311
    104          6           0        0.783936   -3.873390    0.438064
    105          8           0        0.357141   -4.990065    0.129221
    106          6           0        0.490554   -3.071111    2.844882
    107          6           0       -0.160006   -1.975945    3.681591
    108          6           0        2.011720   -3.101679    2.986732
    109          6           0       -0.188325   -2.279135    5.178312
    110          1           0       -1.715781   -4.105401    1.749241
    111          1           0        0.153150   -1.952913    1.030497
    112          1           0        0.136867   -4.044647    3.189313
    113          1           0       -1.124150   -1.674597    3.276481
    114          1           0        0.541575   -1.142005    3.585522
    115          1           0        2.269843   -2.128855    2.550285
    116          1           0        2.345566   -3.175610    4.027299
    117          1           0        2.515505   -3.866230    2.408576
    118          1           0       -0.789707   -3.175502    5.266438
    119          1           0        0.803763   -2.408715    5.618279
    120          1           0       -0.692577   -1.440624    5.647704
    121          7           0        1.936763   -3.429162   -0.093209
    122          6           0        2.800079   -4.215665   -0.948955
    123          6           0        4.263376   -4.053189   -0.561574
    124          8           0        4.571068   -3.295433    0.360614
    125          6           0        2.666763   -3.875922   -2.430238
    126          8           0        2.904754   -2.498693   -2.622858
    127          1           0        2.156840   -2.461337    0.061975
    128          1           0        2.505512   -5.247384   -0.761110
    129          1           0        1.635224   -4.054261   -2.735561
    130          1           0        3.265111   -4.464754   -3.121004
    131          1           0        2.184704   -2.021894   -2.209107
    132          7           0        5.216425   -4.670870   -1.259691
    133          6           0        6.560326   -4.829916   -0.732781
    134          6           0        7.344944   -3.538207   -0.836037
    135          8           0        8.214963   -3.288487   -0.007058
    136          6           0        7.321121   -5.931598   -1.462225
    137          1           0        4.914179   -5.327631   -1.975311
    138          1           0        6.488675   -5.088718    0.321727
    139          1           0        8.245180   -6.136793   -0.933633
    140          1           0        6.731277   -6.852129   -1.416325
    141          1           0        7.446486   -5.618775   -2.490343
    142          7           0        7.164145   -2.827041   -1.957891
    143          6           0        7.544289   -1.459401   -2.245907
    144          6           0        6.995299   -0.488230   -1.218124
    145          8           0        7.592112    0.559820   -1.020118
    146          6           0        7.206278   -1.067086   -3.675850
    147          1           0        6.541576   -3.170249   -2.682333
    148          1           0        8.626961   -1.318390   -2.210754
    149          1           0        7.226087    0.007085   -3.861229
    150          1           0        7.906693   -1.569353   -4.338530
    151          1           0        6.259504   -1.518475   -3.988846
    152          7           0        5.754530   -0.658289   -0.728052
    153          6           0        5.157893    0.258358    0.227920
    154          6           0        5.743829   -0.007860    1.603713
    155          8           0        6.259558    0.926555    2.225880
    156          6           0        3.662173    0.039685    0.074613
    157          6           0        3.085649    0.498972   -1.264631
    158          6           0        1.602334    0.135297   -1.229734
    159          8           0        0.851513    0.643884   -0.371300
    160          8           0        1.162867   -0.843667   -1.874248
    161          1           0        5.223777   -1.476688   -0.966013
    162          1           0        5.429252    1.276946   -0.048744
    163          1           0        3.115476    0.463512    0.926020
    164          1           0        3.477620   -1.023897    0.213654
    165          1           0        3.534606   -0.099453   -2.052301
    166          1           0        3.297931    1.557687   -1.393310
    167          7           0        5.908914   -1.274795    1.985449
    168          6           0        6.503166   -1.546001    3.278744
    169          1           0        7.528394   -1.175286    3.291793
    170          1           0        5.926290   -1.044899    4.056132
    171          1           0        6.503816   -2.620915    3.461139
    172          1           0        5.621851   -2.030801    1.385242
    173         20           0       -1.388667    0.309110   -1.424162
    174          8           0       -1.100884   -2.345969   -2.080694
    175          1           0       -1.128076   -3.198206   -2.524036
    176          1           0       -0.187395   -2.061195   -2.162199
 ---------------------------------------------------------------------

 SCF Done:  E(RB3LYP) =  -5333.62100224     A.U. after   18 cycles

 The electronic state is 1-A.
 Alpha  occ. eigenvalues -- -145.36675 -19.15985 -19.14302 -19.13809 -19.12410
 Alpha  occ. eigenvalues --  -19.11770 -19.11182 -19.11103 -19.10901 -19.10477
 Alpha  occ. eigenvalues --  -19.09188 -19.08629 -19.07360 -19.06973 -19.06585
 Alpha  occ. eigenvalues --  -19.06174 -19.05990 -19.05640 -19.05548 -19.05268
 Alpha  occ. eigenvalues --  -19.04940 -19.04714 -19.03403 -19.02123 -15.42415
 Alpha  occ. eigenvalues --  -14.58628 -14.39920 -14.37466 -14.37332 -14.37080
 Alpha  occ. eigenvalues --  -14.36657 -14.34810 -14.33572 -14.32382 -14.32260
 Alpha  occ. eigenvalues --  -14.32219 -14.31679 -14.31010 -14.30945 -14.30476
 Alpha  occ. eigenvalues --  -12.56032 -12.55986 -12.55982 -10.34914 -10.32539
 Alpha  occ. eigenvalues --  -10.30019 -10.29936 -10.29824 -10.29644 -10.28634
 Alpha  occ. eigenvalues --  -10.27923 -10.26463 -10.26337 -10.26193 -10.26129
 Alpha  occ. eigenvalues --  -10.25858 -10.25716 -10.25263 -10.24743 -10.24713
 Alpha  occ. eigenvalues --  -10.24664 -10.24608 -10.24261 -10.24194 -10.24169
 Alpha  occ. eigenvalues --  -10.23077 -10.22754 -10.22705 -10.22476 -10.22430
 Alpha  occ. eigenvalues --  -10.22153 -10.22002 -10.21916 -10.21399 -10.20584
 Alpha  occ. eigenvalues --  -10.20439 -10.20142 -10.19876 -10.19858 -10.19312
 Alpha  occ. eigenvalues --  -10.19099 -10.18663 -10.18549 -10.18181 -10.18142
 Alpha  occ. eigenvalues --  -10.18122 -10.18038 -10.17910 -10.17722 -10.17571
 Alpha  occ. eigenvalues --  -10.17451 -10.17050 -10.17008 -10.16994 -10.16897
 Alpha  occ. eigenvalues --  -10.16030 -10.14449  -1.79325  -1.13783  -1.07627
 Alpha  occ. eigenvalues --   -1.07295  -1.06961  -1.06806  -1.04983  -1.04714
 Alpha  occ. eigenvalues --   -1.04110  -1.03888  -1.03658  -1.02657  -1.02529
 Alpha  occ. eigenvalues --   -1.02073  -1.01718  -1.00937  -1.00445  -1.00078
 Alpha  occ. eigenvalues --   -0.99584  -0.99400  -0.98914  -0.98469  -0.98344
 Alpha  occ. eigenvalues --   -0.97410  -0.96807  -0.96718  -0.94226  -0.94161
 Alpha  occ. eigenvalues --   -0.93997  -0.93473  -0.91800  -0.90980  -0.90337
 Alpha  occ. eigenvalues --   -0.89817  -0.89671  -0.89657  -0.89010  -0.88497
 Alpha  occ. eigenvalues --   -0.88494  -0.88234  -0.88017  -0.87087  -0.86547
 Alpha  occ. eigenvalues --   -0.83040  -0.82743  -0.82046  -0.80741  -0.79512
 Alpha  occ. eigenvalues --   -0.78550  -0.77849  -0.77424  -0.76518  -0.76256
 Alpha  occ. eigenvalues --   -0.74944  -0.74608  -0.74553  -0.73235  -0.72684
 Alpha  occ. eigenvalues --   -0.72464  -0.72395  -0.72099  -0.70881  -0.70716
 Alpha  occ. eigenvalues --   -0.69471  -0.69360  -0.68828  -0.67968  -0.67419
 Alpha  occ. eigenvalues --   -0.67226  -0.66304  -0.65314  -0.64534  -0.63902
 Alpha  occ. eigenvalues --   -0.63369  -0.62795  -0.62684  -0.62334  -0.61834
 Alpha  occ. eigenvalues --   -0.61414  -0.61247  -0.60640  -0.60358  -0.60278
 Alpha  occ. eigenvalues --   -0.59978  -0.59034  -0.58069  -0.57941  -0.57298
 Alpha  occ. eigenvalues --   -0.57141  -0.56731  -0.56489  -0.56435  -0.55902
 Alpha  occ. eigenvalues --   -0.55815  -0.55487  -0.55280  -0.54898  -0.54893
 Alpha  occ. eigenvalues --   -0.54587  -0.53946  -0.53781  -0.53741  -0.53219
 Alpha  occ. eigenvalues --   -0.52803  -0.52365  -0.52199  -0.51928  -0.51449
 Alpha  occ. eigenvalues --   -0.51170  -0.50938  -0.50410  -0.49997  -0.49740
 Alpha  occ. eigenvalues --   -0.49557  -0.49028  -0.48814  -0.48807  -0.48674
 Alpha  occ. eigenvalues --   -0.48556  -0.48253  -0.48128  -0.47825  -0.47593
 Alpha  occ. eigenvalues --   -0.47473  -0.47261  -0.46607  -0.46535  -0.46442
 Alpha  occ. eigenvalues --   -0.46130  -0.46034  -0.45824  -0.45401  -0.45225
 Alpha  occ. eigenvalues --   -0.45135  -0.45035  -0.44482  -0.44319  -0.44222
 Alpha  occ. eigenvalues --   -0.44182  -0.44080  -0.43881  -0.43670  -0.43617
 Alpha  occ. eigenvalues --   -0.43491  -0.43366  -0.43292  -0.43202  -0.43030
 Alpha  occ. eigenvalues --   -0.42983  -0.42517  -0.42477  -0.42307  -0.42146
 Alpha  occ. eigenvalues --   -0.41966  -0.41886  -0.41795  -0.41760  -0.41515
 Alpha  occ. eigenvalues --   -0.41341  -0.41256  -0.41075  -0.40777  -0.40699
 Alpha  occ. eigenvalues --   -0.40551  -0.40354  -0.40207  -0.40158  -0.40081
 Alpha  occ. eigenvalues --   -0.39763  -0.39677  -0.39392  -0.39256  -0.39106
 Alpha  occ. eigenvalues --   -0.39022  -0.38923  -0.38910  -0.38732  -0.38654
 Alpha  occ. eigenvalues --   -0.38561  -0.38471  -0.38203  -0.38093  -0.38084
 Alpha  occ. eigenvalues --   -0.37831  -0.37677  -0.37613  -0.37514  -0.37306
 Alpha  occ. eigenvalues --   -0.36895  -0.36780  -0.36676  -0.36645  -0.36429
 Alpha  occ. eigenvalues --   -0.36380  -0.36044  -0.35766  -0.35500  -0.35381
 Alpha  occ. eigenvalues --   -0.35158  -0.34969  -0.34804  -0.34724  -0.34632
 Alpha  occ. eigenvalues --   -0.34531  -0.34432  -0.34114  -0.33974  -0.33805
 Alpha  occ. eigenvalues --   -0.33700  -0.33616  -0.33481  -0.33391  -0.32591
 Alpha  occ. eigenvalues --   -0.32439  -0.32428  -0.32062  -0.31998  -0.31642
 Alpha  occ. eigenvalues --   -0.31501  -0.31158  -0.31006  -0.30782  -0.30392
 Alpha  occ. eigenvalues --   -0.29159  -0.29150  -0.28695  -0.28564  -0.28328
 Alpha  occ. eigenvalues --   -0.28023  -0.27551  -0.27085  -0.26755  -0.26534
 Alpha  occ. eigenvalues --   -0.26385  -0.26263  -0.25892  -0.24985  -0.24796
 Alpha  occ. eigenvalues --   -0.24746  -0.24704  -0.24076  -0.23910  -0.23637
 Alpha  occ. eigenvalues --   -0.23379  -0.23132  -0.22900  -0.22844  -0.22819
 Alpha  occ. eigenvalues --   -0.22661  -0.21962  -0.21810  -0.21605  -0.20898
 Alpha  occ. eigenvalues --   -0.20846  -0.20782  -0.20546  -0.20434  -0.20308
 Alpha  occ. eigenvalues --   -0.20018  -0.18946  -0.17984
 Alpha virt. eigenvalues --   -0.10542  -0.04371  -0.03877  -0.02501  -0.00780
 Alpha virt. eigenvalues --   -0.00575  -0.00266  -0.00231   0.00049   0.00549
 Alpha virt. eigenvalues --    0.00627   0.01228   0.01313   0.01445   0.02482

 Mulliken charges:
               1
     1  C    0.068601
     2  C    0.024610
     3  O   -0.293785
     4  H    0.036934
     5  H    0.014932
     6  H    0.024381
     7  N   -0.131526
     8  C    0.110889
     9  C    0.068742
    10  O   -0.301226
    11  C    0.063131
    12  C    0.173645
    13  O   -0.464433
    14  O   -0.390123
    15  H    0.116577
    16  H    0.002736
    17  H    0.002653
    18  H   -0.010807
    19  N   -0.125978
    20  C    0.165944
    21  C    0.046558
    22  O   -0.292809
    23  C    0.001451
    24  C   -0.021623
    25  C   -0.041829
    26  C    0.023131
    27  N    0.076088
    28  H    0.156764
    29  H   -0.004798
    30  H    0.032724
    31  H    0.043364
    32  H    0.012456
    33  H    0.025249
    34  H    0.032901
    35  H    0.053928
    36  H    0.078465
    37  H    0.072779
    38  H    0.189130
    39  H    0.201223
    40  H    0.195536
    41  N   -0.154219
    42  C    0.097349
    43  C    0.048870
    44  O   -0.277588
    45  C    0.178310
    46  C    0.062776
    47  O   -0.396749
    48  O   -0.425574
    49  H    0.144336
    50  H    0.020880
    51  H   -0.029549
    52  H   -0.000896
    53  N   -0.157568
    54  C    0.233212
    55  C    0.026592
    56  O   -0.307209
    57  H    0.141923
    58  H    0.018999
    59  H    0.038223
    60  N   -0.139064
    61  C    0.147561
    62  C    0.032717
    63  O   -0.298218
    64  C    0.173244
    65  C    0.019385
    66  N   -0.019060
    67  O   -0.377423
    68  H    0.134279
    69  H    0.030040
    70  H    0.075761
    71  H   -0.020639
    72  H    0.131911
    73  H    0.128405
    74  N   -0.157157
    75  C    0.223969
    76  C    0.002287
    77  O   -0.291766
    78  H    0.146248
    79  H    0.043970
    80  H    0.022304
    81  N   -0.167486
    82  C    0.093771
    83  C    0.174558
    84  O   -0.343272
    85  C    0.184755
    86  C   -0.021105
    87  C   -0.015151
    88  C    0.005786
    89  C   -0.017714
    90  C   -0.037402
    91  C    0.170975
    92  O   -0.212652
    93  H    0.160803
    94  H   -0.011975
    95  H   -0.023613
    96  H   -0.030336
    97  H   -0.042240
    98  H   -0.016207
    99  H   -0.033102
   100  H   -0.033230
   101  H    0.170862
   102  N   -0.118855
   103  C    0.139866
   104  C    0.066936
   105  O   -0.288585
   106  C   -0.100277
   107  C   -0.026405
   108  C    0.057707
   109  C    0.047467
   110  H    0.130172
   111  H    0.021915
   112  H   -0.026267
   113  H    0.042137
   114  H    0.010828
   115  H    0.010448
   116  H    0.014062
   117  H    0.015932
   118  H    0.004720
   119  H    0.011718
   120  H    0.006059
   121  N   -0.147670
   122  C    0.087476
   123  C    0.108397
   124  O   -0.291239
   125  C    0.257243
   126  O   -0.350086
   127  H    0.141316
   128  H    0.027381
   129  H   -0.020716
   130  H   -0.012807
   131  H    0.173715
   132  N   -0.130737
   133  C    0.050045
   134  C    0.073879
   135  O   -0.247688
   136  C    0.072763
   137  H    0.119988
   138  H    0.019106
   139  H    0.048588
   140  H    0.022640
   141  H    0.006024
   142  N   -0.143078
   143  C    0.102750
   144  C    0.075089
   145  O   -0.287172
   146  C    0.040930
   147  H    0.109375
   148  H    0.015528
   149  H    0.031570
   150  H    0.016079
   151  H    0.012659
   152  N   -0.179199
   153  C    0.178749
   154  C    0.079584
   155  O   -0.287751
   156  C   -0.083882
   157  C    0.138466
   158  C    0.181999
   159  O   -0.410425
   160  O   -0.459811
   161  H    0.121388
   162  H   -0.025451
   163  H    0.049182
   164  H   -0.037121
   165  H   -0.004855
   166  H   -0.007108
   167  N   -0.173132
   168  C    0.160115
   169  H    0.024161
   170  H    0.015788
   171  H    0.001474
   172  H    0.126831
   173  Ca   1.285888
   174  O   -0.309589
   175  H    0.181177
   176  H    0.169117
 Sum of Mulliken charges =  -0.00000

 Dipole moment (field-independent basis, Debye):
    X=             33.3722    Y=              1.8312    Z=            -14.6422  Tot=             36.4890
 Quadrupole moment (field-independent basis, Debye-Ang):
   XX=           -540.0249   YY=           -462.4685   ZZ=           -514.9400
   XY=            161.1380   XZ=            -58.9121   YZ=            -25.8088

 ESP charges:
               1
     1  C   -0.455871
     2  C    0.896366
     3  O   -0.702466
     4  H    0.141679
     5  H    0.095876
     6  H    0.106502
     7  N   -0.841292
     8  C    0.499756
     9  C    0.375794
    10  O   -0.551925
    11  C   -0.488828
    12  C    0.863110
    13  O   -0.875026
    14  O   -0.650694
    15  H    0.379459
    16  H   -0.069402
    17  H    0.108075
    18  H    0.119938
    19  N    0.331270
    20  C   -0.831193
    21  C    0.786259
    22  O   -0.603878
    23  C    0.500155
    24  C   -0.152840
    25  C   -0.135661
    26  C    0.295408
    27  N   -0.527482
    28  H    0.040925
    29  H    0.201773
    30  H   -0.045795
    31  H   -0.002262
    32  H    0.054500
    33  H    0.037982
    34  H    0.038941
    35  H    0.045916
    36  H    0.022724
    37  H    0.045454
    38  H    0.355181
    39  H    0.371130
    40  H    0.354332
    41  N   -0.550727
    42  C    0.095860
    43  C    0.430209
    44  O   -0.525070
    45  C   -0.167258
    46  C    0.776321
    47  O   -0.741971
    48  O   -0.758181
    49  H    0.305389
    50  H    0.090044
    51  H    0.053878
    52  H    0.047296
    53  N   -0.215127
    54  C   -0.161527
    55  C    0.586764
    56  O   -0.590627
    57  H    0.210054
    58  H    0.104181
    59  H    0.114385
    60  N   -0.361035
    61  C    0.184377
    62  C    0.266180
    63  O   -0.514174
    64  C   -0.249024
    65  C    0.738418
    66  N   -0.904142
    67  O   -0.588747
    68  H    0.206798
    69  H    0.097827
    70  H    0.122943
    71  H    0.060071
    72  H    0.410557
    73  H    0.402064
    74  N   -0.051145
    75  C   -0.185600
    76  C    0.570150
    77  O   -0.564873
    78  H    0.153180
    79  H    0.128872
    80  H    0.081211
    81  N   -0.517420
    82  C    0.570450
    83  C    0.257906
    84  O   -0.411176
    85  C   -0.262509
    86  C    0.250922
    87  C   -0.388044
    88  C   -0.294265
    89  C   -0.074978
    90  C   -0.176098
    91  C    0.260911
    92  O   -0.565500
    93  H    0.235088
    94  H   -0.037486
    95  H    0.072127
    96  H    0.024768
    97  H    0.169722
    98  H    0.227293
    99  H    0.130829
   100  H    0.116143
   101  H    0.420428
   102  N   -0.607672
   103  C    0.203296
   104  C    0.417069
   105  O   -0.546169
   106  C   -0.012384
   107  C    0.223042
   108  C   -0.221007
   109  C   -0.390818
   110  H    0.331112
   111  H    0.009401
   112  H    0.025093
   113  H    0.020771
   114  H    0.027798
   115  H   -0.028598
   116  H    0.091743
   117  H    0.034993
   118  H    0.077397
   119  H    0.099711
   120  H    0.083244
   121  N    0.111161
   122  C   -0.575835
   123  C    0.673756
   124  O   -0.501473
   125  C    0.324328
   126  O   -0.633937
   127  H    0.319754
   128  H    0.169396
   129  H   -0.023005
   130  H    0.023691
   131  H    0.412599
   132  N   -0.508730
   133  C    0.233039
   134  C    0.441975
   135  O   -0.511607
   136  C   -0.289905
   137  H    0.298399
   138  H    0.043965
   139  H    0.121910
   140  H    0.079568
   141  H    0.063645
   142  N   -0.433438
   143  C    0.215876
   144  C    0.324166
   145  O   -0.533852
   146  C   -0.399462
   147  H    0.286986
   148  H    0.069124
   149  H    0.137899
   150  H    0.103961
   151  H    0.098504
   152  N    0.003185
   153  C   -0.032708
   154  C    0.490240
   155  O   -0.540539
   156  C   -0.290842
   157  C   -0.033398
   158  C    0.782252
   159  O   -0.696525
   160  O   -0.779456
   161  H    0.077838
   162  H    0.068972
   163  H    0.214269
   164  H   -0.105649
   165  H    0.004118
   166  H    0.006667
   167  N   -0.113590
   168  C   -0.304922
   169  H    0.122823
   170  H    0.105701
   171  H    0.107820
   172  H    0.171976
   173  Ca   1.526911
   174  O   -0.863871
   175  H    0.442582
   176  H    0.404867
 Sum of ESP charges =  -0.00000

 Normal termination of Gaussian 16 at Wed Sep 18 16:10:08 2019.
