 Gaussian 16, Revision A.03,
 Gaussian 16:  ES64L-G16RevA.03 25-Dec-2016

 ----------------------------------------------------------------------
 #b3lyp/svp scf=(tight,noincore) Test #IOP(5/87=12) Density=Current Pop
 =(MK,readradii) iop(6/33=2) iop(6/42=6)
 ----------------------------------------------------------------------

 -----------------
 CaMKII_loop3_35.0
 -----------------
 Symbolic Z-matrix:
 Charge =  0 Multiplicity = 1

                         Standard orientation:
 ---------------------------------------------------------------------
 Center     Atomic      Atomic             Coordinates (Angstroms)
 Number     Number       Type             X           Y           Z
 ---------------------------------------------------------------------
      1          6           0        2.245961    1.006895    5.884511
      2          6           0        1.746005    1.096583    4.449868
      3          8           0        2.543191    1.117119    3.512759
      4          1           0        3.220049    0.518747    5.899572
      5          1           0        2.336220    2.010152    6.301865
      6          1           0        1.540289    0.427138    6.479919
      7          7           0        0.437485    1.305115    4.356120
      8          6           0       -0.102404    1.590990    3.048032
      9          6           0        0.176504    2.986686    2.512453
     10          8           0       -0.225460    4.014673    3.052700
     11          6           0       -1.616063    1.379884    3.088899
     12          6           0       -2.374262    1.525136    1.772678
     13          8           0       -1.693975    1.787114    0.757849
     14          8           0       -3.619766    1.416957    1.799441
     15          1           0       -0.102974    1.493777    5.199275
     16          1           0        0.207899    0.896232    2.268082
     17          1           0       -2.240693    2.021975    3.712242
     18          1           0       -1.872812    0.446617    3.591784
     19          7           0        0.909097    3.108993    1.401936
     20          6           0        1.401958    4.378368    0.885528
     21          6           0        0.403202    5.173791    0.059520
     22          8           0        0.411492    6.399417    0.015105
     23          6           0        2.735933    4.158592    0.182955
     24          6           0        3.485297    5.484390    0.289783
     25          6           0        4.773237    5.323259   -0.498473
     26          6           0        5.544294    6.628304   -0.676599
     27          7           0        6.820624    6.449521   -1.389002
     28          1           0        1.247461    2.313659    0.882365
     29          1           0        1.640506    4.969485    1.758325
     30          1           0        2.513042    3.953897   -0.869099
     31          1           0        3.304173    3.345237    0.640949
     32          1           0        3.819893    5.613154    1.316216
     33          1           0        2.930462    6.344879   -0.101138
     34          1           0        4.590951    4.899280   -1.492512
     35          1           0        5.452471    4.619006   -0.012603
     36          1           0        5.774633    7.028450    0.312657
     37          1           0        4.901594    7.353033   -1.169250
     38          1           0        7.464313    7.209943   -1.199209
     39          1           0        7.205384    5.548499   -1.166699
     40          1           0        6.730342    6.613704   -2.382376
     41          7           0       -0.563998    4.528784   -0.610397
     42          6           0       -1.563474    5.231765   -1.380245
     43          6           0       -2.875492    5.213423   -0.629531
     44          8           0       -3.764420    5.993175   -0.984909
     45          6           0       -1.754237    4.769164   -2.831489
     46          6           0       -1.955514    3.279187   -3.032377
     47          8           0       -2.086157    2.513019   -2.053388
     48          8           0       -1.913044    2.804596   -4.192317
     49          1           0       -0.613521    3.513633   -0.565499
     50          1           0       -1.401794    6.311675   -1.436411
     51          1           0       -0.890654    4.994886   -3.454926
     52          1           0       -2.576343    5.188137   -3.414844
     53          7           0       -3.177328    4.397487    0.382864
     54          6           0       -4.498766    4.242750    0.965924
     55          6           0       -5.516536    3.477981    0.133835
     56          8           0       -6.713842    3.653501    0.318371
     57          1           0       -2.442956    3.786122    0.708948
     58          1           0       -5.016119    5.182401    1.163415
     59          1           0       -4.506392    3.862620    1.988980
     60          7           0       -5.046885    2.467518   -0.608183
     61          6           0       -5.919734    1.648441   -1.428091
     62          6           0       -6.502956    0.550563   -0.541516
     63          8           0       -7.326087   -0.206234   -1.067742
     64          6           0       -5.317248    1.181302   -2.748429
     65          6           0       -4.635619   -0.169643   -2.653945
     66          7           0       -5.037930   -1.148358   -3.470623
     67          8           0       -3.870029   -0.386687   -1.721118
     68          1           0       -4.066629    2.255681   -0.597089
     69          1           0       -6.799880    2.256631   -1.634845
     70          1           0       -4.587497    1.917972   -3.080967
     71          1           0       -6.082752    1.247847   -3.515877
     72          1           0       -5.791418   -1.060682   -4.139030
     73          1           0       -4.596195   -2.045604   -3.342870
     74          7           0       -6.120404    0.359400    0.721025
     75          6           0       -6.617287   -0.637105    1.656272
     76          6           0       -5.639931   -1.795335    1.817138
     77          8           0       -6.006279   -2.746686    2.500746
     78          1           0       -5.487745    0.995441    1.168902
     79          1           0       -7.489181   -1.163363    1.268517
     80          1           0       -6.851303   -0.198636    2.618967
     81          7           0       -4.481487   -1.776871    1.153687
     82          6           0       -3.497047   -2.840052    1.079361
     83          6           0       -2.057968   -2.361792    1.236904
     84          8           0       -1.721421   -1.241221    0.874196
     85          6           0       -3.765593   -3.624263   -0.198918
     86          6           0       -5.182976   -4.079933   -0.481036
     87          6           0       -5.640336   -5.362792   -0.167994
     88          6           0       -6.038012   -3.154208   -1.097839
     89          6           0       -6.991685   -5.713677   -0.308834
     90          6           0       -7.355744   -3.566677   -1.346741
     91          6           0       -7.873931   -4.799011   -0.913919
     92          8           0       -9.199008   -5.045821   -1.100346
     93          1           0       -4.231733   -0.898365    0.727954
     94          1           0       -3.679372   -3.501084    1.935161
     95          1           0       -3.131599   -4.501303   -0.331026
     96          1           0       -3.491335   -3.132247   -1.128758
     97          1           0       -4.975671   -6.069835    0.289948
     98          1           0       -5.758264   -2.169295   -1.438849
     99          1           0       -7.292007   -6.690274    0.034916
    100          1           0       -8.010551   -2.946713   -1.940772
    101          1           0       -9.770252   -4.311471   -1.341200
    102          7           0       -1.137174   -3.286186    1.504174
    103          6           0        0.301624   -3.102169    1.494323
    104          6           0        0.891729   -3.859957    0.306159
    105          8           0        0.503358   -4.992136    0.059704
    106          6           0        0.886291   -3.507651    2.844712
    107          6           0        0.315773   -2.824045    4.076618
    108          6           0        2.375748   -3.163582    2.838993
    109          6           0        0.669798   -3.523588    5.390508
    110          1           0       -1.525088   -4.212659    1.512640
    111          1           0        0.549818   -2.052768    1.413977
    112          1           0        0.681041   -4.565875    2.982311
    113          1           0       -0.764989   -2.756236    4.003440
    114          1           0        0.593374   -1.773967    4.141994
    115          1           0        2.440693   -2.088159    2.690512
    116          1           0        2.886319   -3.431516    3.763130
    117          1           0        2.860881   -3.655743    1.990568
    118          1           0        0.378411   -2.836571    6.190008
    119          1           0        0.058920   -4.413310    5.547421
    120          1           0        1.697520   -3.886661    5.377627
    121          7           0        1.840761   -3.302634   -0.463015
    122          6           0        2.632590   -3.935728   -1.500319
    123          6           0        4.126885   -3.770882   -1.254332
    124          8           0        4.534567   -3.067887   -0.326974
    125          6           0        2.062935   -3.685914   -2.885954
    126          8           0        1.760403   -2.303493   -2.966504
    127          1           0        2.142207   -2.377560   -0.204234
    128          1           0        2.515513   -5.003362   -1.329001
    129          1           0        1.159931   -4.284468   -2.996031
    130          1           0        2.822726   -3.999140   -3.601920
    131          1           0        2.507400   -1.894811   -3.414917
    132          7           0        4.986668   -4.538801   -1.919743
    133          6           0        6.399592   -4.711185   -1.626263
    134          6           0        7.149987   -3.394769   -1.483229
    135          8           0        7.859692   -3.188614   -0.502659
    136          6           0        7.025554   -5.616188   -2.682360
    137          1           0        4.584412   -5.271946   -2.496015
    138          1           0        6.469464   -5.276409   -0.700337
    139          1           0        6.771299   -5.376668   -3.712304
    140          1           0        8.116537   -5.670675   -2.572877
    141          1           0        6.615314   -6.617404   -2.651199
    142          7           0        6.904768   -2.424039   -2.365357
    143          6           0        7.531844   -1.114359   -2.361417
    144          6           0        7.130374   -0.168376   -1.240330
    145          8           0        7.838666    0.767752   -0.879790
    146          6           0        7.389307   -0.482506   -3.743063
    147          1           0        6.338102   -2.710928   -3.158253
    148          1           0        8.587766   -1.357163   -2.272121
    149          1           0        7.892234   -1.034986   -4.530292
    150          1           0        6.309439   -0.454136   -3.945252
    151          1           0        7.804522    0.516986   -3.841099
    152          7           0        5.936106   -0.414021   -0.703784
    153          6           0        5.359538    0.334268    0.395912
    154          6           0        5.940299   -0.219139    1.691503
    155          8           0        6.413340    0.590067    2.495380
    156          6           0        3.856100    0.136484    0.473084
    157          6           0        3.297242    0.227874   -0.934583
    158          6           0        1.783191    0.355780   -0.830703
    159          8           0        1.226615    1.410685   -1.204332
    160          8           0        1.062717   -0.487011   -0.252498
    161          1           0        5.350377   -1.126474   -1.114800
    162          1           0        5.494500    1.403544    0.207939
    163          1           0        3.480667    0.986166    1.060273
    164          1           0        3.635523   -0.855036    0.876983
    165          1           0        3.535953   -0.632333   -1.567560
    166          1           0        3.674122    1.090722   -1.489520
    167          7           0        5.979344   -1.539368    1.867485
    168          6           0        6.625012   -2.127256    3.025242
    169          1           0        7.588449   -2.544562    2.730845
    170          1           0        6.778448   -1.360701    3.784908
    171          1           0        5.995316   -2.919273    3.430350
    172          1           0        5.486318   -2.169512    1.245919
    173         20           0       -1.328394    0.238347   -1.211687
    174          8           0       -0.787574    0.484060   -3.734788
    175          1           0       -1.155574    1.290802   -4.092481
    176          1           0       -0.301316    0.087822   -4.464479
 ---------------------------------------------------------------------

 SCF Done:  E(RB3LYP) =  -5333.58482930     A.U. after   18 cycles

 The electronic state is 1-A.
 Alpha  occ. eigenvalues -- -145.36097 -19.17232 -19.15063 -19.13739 -19.12249
 Alpha  occ. eigenvalues --  -19.11898 -19.11414 -19.11209 -19.10315 -19.09848
 Alpha  occ. eigenvalues --  -19.07992 -19.06786 -19.06298 -19.05971 -19.05764
 Alpha  occ. eigenvalues --  -19.05706 -19.05316 -19.05267 -19.04442 -19.03901
 Alpha  occ. eigenvalues --  -19.03813 -19.03182 -19.02727 -19.02276 -15.41828
 Alpha  occ. eigenvalues --  -14.58415 -14.41181 -14.38767 -14.36776 -14.36421
 Alpha  occ. eigenvalues --  -14.35682 -14.35146 -14.34236 -14.32728 -14.31996
 Alpha  occ. eigenvalues --  -14.31306 -14.30938 -14.30910 -14.29354 -14.28797
 Alpha  occ. eigenvalues --  -12.55441 -12.55416 -12.55382 -10.33978 -10.33697
 Alpha  occ. eigenvalues --  -10.31050 -10.30473 -10.29841 -10.29030 -10.28772
 Alpha  occ. eigenvalues --  -10.27812 -10.27673 -10.26554 -10.26426 -10.26029
 Alpha  occ. eigenvalues --  -10.25605 -10.25530 -10.25442 -10.24731 -10.24512
 Alpha  occ. eigenvalues --  -10.24419 -10.24305 -10.23510 -10.23434 -10.23016
 Alpha  occ. eigenvalues --  -10.22948 -10.22916 -10.22784 -10.22378 -10.22369
 Alpha  occ. eigenvalues --  -10.21941 -10.21906 -10.21608 -10.20740 -10.20187
 Alpha  occ. eigenvalues --  -10.20105 -10.19757 -10.19739 -10.19108 -10.18887
 Alpha  occ. eigenvalues --  -10.18670 -10.18448 -10.18415 -10.18354 -10.18336
 Alpha  occ. eigenvalues --  -10.17522 -10.17328 -10.17191 -10.17140 -10.16985
 Alpha  occ. eigenvalues --  -10.16906 -10.16685 -10.16514 -10.16298 -10.15950
 Alpha  occ. eigenvalues --  -10.14698 -10.14629  -1.78690  -1.13648  -1.08442
 Alpha  occ. eigenvalues --   -1.06361  -1.06219  -1.06139  -1.05446  -1.05161
 Alpha  occ. eigenvalues --   -1.04727  -1.04659  -1.03541  -1.02756  -1.02224
 Alpha  occ. eigenvalues --   -1.01656  -1.00804  -0.99647  -0.99204  -0.98978
 Alpha  occ. eigenvalues --   -0.98809  -0.98711  -0.98307  -0.98208  -0.97707
 Alpha  occ. eigenvalues --   -0.97134  -0.96988  -0.95843  -0.95211  -0.93382
 Alpha  occ. eigenvalues --   -0.92670  -0.92328  -0.91501  -0.90754  -0.90416
 Alpha  occ. eigenvalues --   -0.89558  -0.89051  -0.88763  -0.88755  -0.88080
 Alpha  occ. eigenvalues --   -0.87817  -0.87758  -0.86970  -0.86559  -0.84227
 Alpha  occ. eigenvalues --   -0.83385  -0.82538  -0.81871  -0.80737  -0.80476
 Alpha  occ. eigenvalues --   -0.79040  -0.78582  -0.77185  -0.76090  -0.75803
 Alpha  occ. eigenvalues --   -0.74955  -0.74366  -0.73875  -0.72651  -0.72453
 Alpha  occ. eigenvalues --   -0.72130  -0.71566  -0.70923  -0.70740  -0.70347
 Alpha  occ. eigenvalues --   -0.70206  -0.69314  -0.68825  -0.67880  -0.67682
 Alpha  occ. eigenvalues --   -0.66828  -0.66593  -0.65200  -0.64824  -0.64181
 Alpha  occ. eigenvalues --   -0.63045  -0.62944  -0.62885  -0.62194  -0.61706
 Alpha  occ. eigenvalues --   -0.60859  -0.60391  -0.60126  -0.59929  -0.59653
 Alpha  occ. eigenvalues --   -0.59347  -0.58862  -0.58267  -0.58234  -0.57563
 Alpha  occ. eigenvalues --   -0.57195  -0.56528  -0.56201  -0.56036  -0.55981
 Alpha  occ. eigenvalues --   -0.55498  -0.55494  -0.55341  -0.54859  -0.54684
 Alpha  occ. eigenvalues --   -0.54644  -0.54532  -0.53468  -0.53143  -0.52907
 Alpha  occ. eigenvalues --   -0.52473  -0.52234  -0.52109  -0.51442  -0.51343
 Alpha  occ. eigenvalues --   -0.50969  -0.50693  -0.50481  -0.49988  -0.49942
 Alpha  occ. eigenvalues --   -0.49491  -0.49104  -0.48868  -0.48429  -0.48220
 Alpha  occ. eigenvalues --   -0.47996  -0.47808  -0.47748  -0.47599  -0.47331
 Alpha  occ. eigenvalues --   -0.47213  -0.46836  -0.46812  -0.46544  -0.46253
 Alpha  occ. eigenvalues --   -0.46171  -0.46024  -0.45933  -0.45317  -0.45305
 Alpha  occ. eigenvalues --   -0.45140  -0.44793  -0.44431  -0.44417  -0.44304
 Alpha  occ. eigenvalues --   -0.44043  -0.44039  -0.43830  -0.43329  -0.43304
 Alpha  occ. eigenvalues --   -0.43258  -0.43040  -0.42857  -0.42771  -0.42488
 Alpha  occ. eigenvalues --   -0.42438  -0.42192  -0.42007  -0.41732  -0.41642
 Alpha  occ. eigenvalues --   -0.41397  -0.41361  -0.41276  -0.41161  -0.41057
 Alpha  occ. eigenvalues --   -0.40983  -0.40707  -0.40597  -0.40441  -0.40178
 Alpha  occ. eigenvalues --   -0.40096  -0.40005  -0.39867  -0.39511  -0.39486
 Alpha  occ. eigenvalues --   -0.39354  -0.39160  -0.38966  -0.38823  -0.38737
 Alpha  occ. eigenvalues --   -0.38659  -0.38603  -0.38534  -0.38415  -0.38313
 Alpha  occ. eigenvalues --   -0.38249  -0.38050  -0.37926  -0.37745  -0.37658
 Alpha  occ. eigenvalues --   -0.37606  -0.37561  -0.37480  -0.37187  -0.37102
 Alpha  occ. eigenvalues --   -0.36784  -0.36767  -0.36648  -0.36350  -0.36179
 Alpha  occ. eigenvalues --   -0.36069  -0.35991  -0.35612  -0.35354  -0.35175
 Alpha  occ. eigenvalues --   -0.34945  -0.34749  -0.34441  -0.34401  -0.34295
 Alpha  occ. eigenvalues --   -0.34053  -0.33969  -0.33555  -0.33330  -0.33112
 Alpha  occ. eigenvalues --   -0.32842  -0.32590  -0.32487  -0.32191  -0.32147
 Alpha  occ. eigenvalues --   -0.32010  -0.31896  -0.31509  -0.31338  -0.31033
 Alpha  occ. eigenvalues --   -0.30823  -0.30743  -0.30314  -0.30289  -0.29812
 Alpha  occ. eigenvalues --   -0.29607  -0.29355  -0.29286  -0.28133  -0.27785
 Alpha  occ. eigenvalues --   -0.27694  -0.27307  -0.27072  -0.26904  -0.26026
 Alpha  occ. eigenvalues --   -0.25811  -0.25555  -0.25224  -0.24206  -0.23985
 Alpha  occ. eigenvalues --   -0.23824  -0.23690  -0.23481  -0.23186  -0.23066
 Alpha  occ. eigenvalues --   -0.22822  -0.22695  -0.22028  -0.21800  -0.21653
 Alpha  occ. eigenvalues --   -0.21575  -0.21462  -0.21278  -0.21236  -0.20945
 Alpha  occ. eigenvalues --   -0.20519  -0.20273  -0.20062  -0.19809  -0.19005
 Alpha  occ. eigenvalues --   -0.18701  -0.18177  -0.17938
 Alpha virt. eigenvalues --   -0.10441  -0.05124  -0.04081  -0.03426  -0.02313
 Alpha virt. eigenvalues --   -0.01339  -0.00841  -0.00422  -0.00023   0.00321
 Alpha virt. eigenvalues --    0.00694   0.00915   0.01468   0.01644   0.02500

 Mulliken charges:
               1
     1  C    0.039049
     2  C    0.042904
     3  O   -0.283541
     4  H    0.030406
     5  H    0.042779
     6  H    0.004399
     7  N   -0.120421
     8  C    0.165217
     9  C    0.068342
    10  O   -0.290371
    11  C    0.021985
    12  C    0.169092
    13  O   -0.486989
    14  O   -0.383577
    15  H    0.130908
    16  H    0.008855
    17  H    0.001742
    18  H   -0.012055
    19  N   -0.131072
    20  C    0.155088
    21  C    0.062414
    22  O   -0.293765
    23  C    0.018521
    24  C    0.012256
    25  C   -0.058832
    26  C    0.019433
    27  N    0.094920
    28  H    0.146756
    29  H   -0.003971
    30  H    0.024409
    31  H    0.023367
    32  H    0.013275
    33  H    0.038947
    34  H    0.012989
    35  H    0.029701
    36  H    0.066387
    37  H    0.076828
    38  H    0.185985
    39  H    0.202845
    40  H    0.187413
    41  N   -0.160948
    42  C    0.205954
    43  C    0.014484
    44  O   -0.314058
    45  C    0.091406
    46  C    0.132515
    47  O   -0.470850
    48  O   -0.421711
    49  H    0.171026
    50  H    0.015098
    51  H   -0.009458
    52  H    0.024517
    53  N   -0.138007
    54  C    0.242673
    55  C    0.025921
    56  O   -0.293632
    57  H    0.142144
    58  H    0.001472
    59  H    0.026831
    60  N   -0.169392
    61  C    0.138508
    62  C    0.037868
    63  O   -0.329888
    64  C    0.147056
    65  C    0.099054
    66  N   -0.041340
    67  O   -0.371083
    68  H    0.138152
    69  H    0.025640
    70  H    0.057886
    71  H   -0.012183
    72  H    0.139694
    73  H    0.134427
    74  N   -0.150230
    75  C    0.238724
    76  C    0.013672
    77  O   -0.299869
    78  H    0.150150
    79  H    0.039982
    80  H    0.035936
    81  N   -0.143903
    82  C    0.147123
    83  C    0.122758
    84  O   -0.347322
    85  C    0.155847
    86  C   -0.025917
    87  C    0.014192
    88  C   -0.000022
    89  C   -0.038097
    90  C   -0.047355
    91  C    0.210597
    92  O   -0.215320
    93  H    0.144357
    94  H    0.006974
    95  H   -0.030784
    96  H   -0.048478
    97  H   -0.048954
    98  H   -0.044113
    99  H   -0.036407
   100  H   -0.048339
   101  H    0.181532
   102  N   -0.110936
   103  C    0.165071
   104  C    0.054642
   105  O   -0.291950
   106  C   -0.080647
   107  C    0.014506
   108  C    0.034692
   109  C    0.042299
   110  H    0.126338
   111  H    0.037165
   112  H   -0.026664
   113  H   -0.014959
   114  H   -0.001728
   115  H    0.039320
   116  H    0.008416
   117  H   -0.000734
   118  H    0.012829
   119  H    0.000065
   120  H    0.004439
   121  N   -0.120173
   122  C    0.063428
   123  C    0.068418
   124  O   -0.284491
   125  C    0.270511
   126  O   -0.286202
   127  H    0.152254
   128  H    0.017089
   129  H    0.032366
   130  H   -0.026247
   131  H    0.168593
   132  N   -0.117890
   133  C    0.107499
   134  C    0.058713
   135  O   -0.242394
   136  C    0.015436
   137  H    0.122587
   138  H    0.026868
   139  H    0.002183
   140  H    0.054157
   141  H    0.020354
   142  N   -0.148422
   143  C    0.099754
   144  C    0.095761
   145  O   -0.287378
   146  C    0.033295
   147  H    0.101711
   148  H    0.021369
   149  H    0.018906
   150  H   -0.005054
   151  H    0.023942
   152  N   -0.149809
   153  C    0.118629
   154  C    0.102666
   155  O   -0.284477
   156  C   -0.015017
   157  C    0.105893
   158  C    0.096210
   159  O   -0.391614
   160  O   -0.423970
   161  H    0.136378
   162  H   -0.031037
   163  H    0.057533
   164  H    0.010832
   165  H   -0.073358
   166  H   -0.026106
   167  N   -0.170156
   168  C    0.129158
   169  H    0.025264
   170  H    0.036796
   171  H    0.005095
   172  H    0.131846
   173  Ca   1.305306
   174  O   -0.334313
   175  H    0.157565
   176  H    0.162450
 Sum of Mulliken charges =  -0.00000

 Dipole moment (field-independent basis, Debye):
    X=             35.4792    Y=             -0.6619    Z=            -16.1166  Tot=             38.9738
 Quadrupole moment (field-independent basis, Debye-Ang):
   XX=           -524.1458   YY=           -473.5564   ZZ=           -508.1842
   XY=            159.0480   XZ=            -69.4531   YZ=              2.4958

 ESP charges:
               1
     1  C   -0.453785
     2  C    0.901951
     3  O   -0.680113
     4  H    0.120746
     5  H    0.123456
     6  H    0.081570
     7  N   -0.726604
     8  C    0.111544
     9  C    0.548073
    10  O   -0.572643
    11  C   -0.323273
    12  C    0.581516
    13  O   -0.165202
    14  O   -0.652266
    15  H    0.380189
    16  H    0.069846
    17  H    0.091339
    18  H    0.093481
    19  N   -0.163749
    20  C   -0.344648
    21  C    0.634032
    22  O   -0.584299
    23  C    0.335467
    24  C   -0.380300
    25  C    0.226512
    26  C    0.099408
    27  N   -0.444212
    28  H    0.084596
    29  H    0.144345
    30  H   -0.000901
    31  H   -0.003745
    32  H    0.095372
    33  H    0.101183
    34  H   -0.050131
    35  H   -0.014981
    36  H    0.046276
    37  H    0.063134
    38  H    0.345183
    39  H    0.346935
    40  H    0.341810
    41  N   -0.371494
    42  C    0.096351
    43  C    0.515248
    44  O   -0.582392
    45  C   -0.375276
    46  C    0.890503
    47  O   -0.804356
    48  O   -0.756104
    49  H    0.214132
    50  H    0.099118
    51  H    0.086082
    52  H    0.119369
    53  N   -0.299072
    54  C   -0.027087
    55  C    0.526673
    56  O   -0.587460
    57  H    0.106278
    58  H    0.069392
    59  H    0.085742
    60  N   -0.249341
    61  C    0.052735
    62  C    0.339842
    63  O   -0.540647
    64  C   -0.276000
    65  C    0.595668
    66  N   -0.747771
    67  O   -0.582099
    68  H    0.093476
    69  H    0.124640
    70  H    0.151101
    71  H    0.095882
    72  H    0.386081
    73  H    0.352134
    74  N   -0.032652
    75  C   -0.361366
    76  C    0.652522
    77  O   -0.571550
    78  H    0.226148
    79  H    0.172863
    80  H    0.137144
    81  N   -0.299169
    82  C    0.113911
    83  C    0.612396
    84  O   -0.646847
    85  C    0.079237
    86  C    0.046162
    87  C   -0.244992
    88  C   -0.234183
    89  C   -0.184394
    90  C   -0.295483
    91  C    0.425935
    92  O   -0.619144
    93  H    0.004534
    94  H    0.024141
    95  H   -0.012501
    96  H   -0.021466
    97  H    0.140982
    98  H    0.271896
    99  H    0.139622
   100  H    0.116257
   101  H    0.448070
   102  N   -0.606594
   103  C    0.049778
   104  C    0.498703
   105  O   -0.557246
   106  C   -0.021577
   107  C    0.285704
   108  C   -0.235603
   109  C   -0.419233
   110  H    0.314505
   111  H    0.202914
   112  H    0.037545
   113  H   -0.030344
   114  H   -0.040867
   115  H    0.030502
   116  H    0.095333
   117  H    0.031271
   118  H    0.104020
   119  H    0.090405
   120  H    0.093663
   121  N   -0.008615
   122  C   -0.065180
   123  C    0.617689
   124  O   -0.514915
   125  C    0.093523
   126  O   -0.520982
   127  H    0.006432
   128  H    0.032498
   129  H    0.093956
   130  H   -0.014188
   131  H    0.379457
   132  N   -0.514143
   133  C    0.175937
   134  C    0.455400
   135  O   -0.521649
   136  C   -0.394076
   137  H    0.315674
   138  H    0.079145
   139  H    0.089958
   140  H    0.139472
   141  H    0.119968
   142  N   -0.347031
   143  C    0.068197
   144  C    0.292483
   145  O   -0.518944
   146  C   -0.311453
   147  H    0.230017
   148  H    0.115895
   149  H    0.097161
   150  H    0.063830
   151  H    0.116920
   152  N    0.218910
   153  C   -0.451194
   154  C    0.706812
   155  O   -0.566462
   156  C   -0.331583
   157  C   -0.503620
   158  C    0.912263
   159  O   -0.773195
   160  O   -0.822081
   161  H    0.051753
   162  H    0.150891
   163  H    0.327637
   164  H    0.135018
   165  H    0.153844
   166  H    0.109609
   167  N   -0.317298
   168  C   -0.178098
   169  H    0.087090
   170  H    0.100900
   171  H    0.064324
   172  H    0.290804
   173  Ca   1.622400
   174  O   -0.928768
   175  H    0.465201
   176  H    0.402990
 Sum of ESP charges =  -0.00000

 Normal termination of Gaussian 16 at Wed Sep 18 16:09:50 2019.
