 Gaussian 16, Revision A.03,
 Gaussian 16:  ES64L-G16RevA.03 25-Dec-2016

 ----------------------------------------------------------------------
 #b3lyp/svp scf=(tight,noincore) Test #IOP(5/87=12) Density=Current Pop
 =(MK,readradii) iop(6/33=2) iop(6/42=6)
 ----------------------------------------------------------------------

 -----------------
 CaMKII_loop3_51.0
 -----------------
 Symbolic Z-matrix:
 Charge =  0 Multiplicity = 1

                         Standard orientation:
 ---------------------------------------------------------------------
 Center     Atomic      Atomic             Coordinates (Angstroms)
 Number     Number       Type             X           Y           Z
 ---------------------------------------------------------------------
      1          6           0        2.449071    1.093657    5.707462
      2          6           0        1.690551    1.195401    4.400062
      3          8           0        2.319611    0.977075    3.362990
      4          1           0        3.476960    1.423706    5.557092
      5          1           0        1.971163    1.725681    6.456137
      6          1           0        2.446677    0.059120    6.050225
      7          7           0        0.390275    1.494110    4.251887
      8          6           0       -0.275815    1.750378    2.992225
      9          6           0       -0.087040    3.160893    2.447420
     10          8           0       -0.793439    4.113646    2.750506
     11          6           0       -1.768737    1.442487    3.060670
     12          6           0       -2.397283    1.427775    1.685856
     13          8           0       -3.632029    1.231525    1.712100
     14          8           0       -1.705514    1.675448    0.663352
     15          1           0       -0.166568    1.669437    5.076742
     16          1           0        0.153662    1.099405    2.231709
     17          1           0       -2.158245    2.151889    3.791377
     18          1           0       -1.861365    0.447072    3.498013
     19          7           0        0.855259    3.367913    1.530188
     20          6           0        1.338999    4.586163    0.923505
     21          6           0        0.371564    5.444036    0.120310
     22          8           0        0.303680    6.678629    0.191523
     23          6           0        2.621875    4.302457    0.151857
     24          6           0        3.464647    5.517659   -0.214228
     25          6           0        4.904506    5.265714   -0.659459
     26          6           0        5.599378    6.565872   -1.053976
     27          7           0        7.008672    6.387537   -1.422740
     28          1           0        1.270939    2.532601    1.131236
     29          1           0        1.621954    5.281765    1.727044
     30          1           0        2.449904    3.626154   -0.696518
     31          1           0        3.166500    3.688695    0.876688
     32          1           0        3.444997    6.216969    0.626950
     33          1           0        3.013257    6.007419   -1.080589
     34          1           0        4.897705    4.653574   -1.559813
     35          1           0        5.478629    4.745599    0.107328
     36          1           0        5.529336    7.200421   -0.175829
     37          1           0        5.088809    6.998271   -1.917544
     38          1           0        7.543448    5.930302   -0.699518
     39          1           0        7.080481    5.948242   -2.335134
     40          1           0        7.299708    7.346904   -1.547297
     41          7           0       -0.465237    4.736451   -0.634136
     42          6           0       -1.475242    5.318285   -1.492016
     43          6           0       -2.879423    5.205226   -0.912625
     44          8           0       -3.772101    5.811981   -1.493894
     45          6           0       -1.429336    4.558231   -2.809555
     46          6           0       -1.587178    3.047881   -2.657148
     47          8           0       -2.592566    2.549350   -2.117463
     48          8           0       -0.631964    2.321215   -2.998652
     49          1           0       -0.340083    3.740383   -0.536749
     50          1           0       -1.219001    6.353559   -1.725786
     51          1           0       -0.507062    4.829340   -3.336157
     52          1           0       -2.225648    4.923193   -3.450406
     53          7           0       -2.980211    4.478292    0.211123
     54          6           0       -4.096379    4.419448    1.131996
     55          6           0       -5.189865    3.486831    0.628893
     56          8           0       -6.266890    3.427796    1.229503
     57          1           0       -2.101832    4.165578    0.584701
     58          1           0       -4.536518    5.383835    1.372071
     59          1           0       -3.699977    4.145221    2.108911
     60          7           0       -5.048488    2.828477   -0.515608
     61          6           0       -6.059603    2.035960   -1.193888
     62          6           0       -6.612201    0.841341   -0.415158
     63          8           0       -7.456561    0.186400   -1.036294
     64          6           0       -5.555109    1.608910   -2.568921
     65          6           0       -4.645353    0.386119   -2.605313
     66          7           0       -4.387515   -0.030746   -3.841575
     67          8           0       -3.936541   -0.024926   -1.685679
     68          1           0       -4.131739    2.918946   -0.930682
     69          1           0       -6.853021    2.760780   -1.400581
     70          1           0       -5.053573    2.407237   -3.116037
     71          1           0       -6.446814    1.339927   -3.141118
     72          1           0       -4.790201    0.569722   -4.553109
     73          1           0       -3.853184   -0.878994   -3.925638
     74          7           0       -6.147489    0.429736    0.763156
     75          6           0       -6.460947   -0.745841    1.557676
     76          6           0       -5.498643   -1.919371    1.641334
     77          8           0       -5.847911   -2.911464    2.294605
     78          1           0       -5.415293    0.978586    1.197038
     79          1           0       -7.385340   -1.164638    1.154556
     80          1           0       -6.581209   -0.521493    2.614466
     81          7           0       -4.336029   -1.884860    0.989999
     82          6           0       -3.467737   -3.034557    0.860130
     83          6           0       -1.998310   -2.645487    0.815305
     84          8           0       -1.603954   -1.652719    0.200330
     85          6           0       -3.777251   -3.663399   -0.495621
     86          6           0       -5.209127   -4.089810   -0.708469
     87          6           0       -5.697549   -5.250836   -0.099894
     88          6           0       -6.100566   -3.222305   -1.350630
     89          6           0       -7.052721   -5.593140   -0.182580
     90          6           0       -7.433127   -3.608464   -1.425218
     91          6           0       -7.966590   -4.811714   -0.919543
     92          8           0       -9.287707   -5.065476   -1.111776
     93          1           0       -4.237345   -1.044205    0.438583
     94          1           0       -3.509377   -3.735110    1.702265
     95          1           0       -3.291585   -4.627641   -0.627403
     96          1           0       -3.394500   -3.015526   -1.278859
     97          1           0       -4.986374   -5.916104    0.374920
     98          1           0       -5.773255   -2.303974   -1.835744
     99          1           0       -7.387092   -6.555304    0.183669
    100          1           0       -8.193057   -2.994224   -1.904399
    101          1           0       -9.640363   -4.410286   -1.716060
    102          7           0       -1.171216   -3.471049    1.456758
    103          6           0        0.260094   -3.243760    1.506665
    104          6           0        0.885053   -4.051715    0.375146
    105          8           0        0.713350   -5.268556    0.389858
    106          6           0        0.742463   -3.698869    2.881691
    107          6           0        0.143340   -2.865752    4.003238
    108          6           0        2.256008   -3.494868    2.835187
    109          6           0        0.278811   -3.560092    5.360051
    110          1           0       -1.453521   -4.360003    1.851808
    111          1           0        0.543052   -2.202518    1.317061
    112          1           0        0.530477   -4.755824    3.035016
    113          1           0       -0.950303   -2.827748    3.953228
    114          1           0        0.536203   -1.853461    4.115598
    115          1           0        2.547860   -2.598521    2.292984
    116          1           0        2.622554   -3.621010    3.857700
    117          1           0        2.823126   -4.294532    2.366983
    118          1           0        1.324437   -3.543670    5.653643
    119          1           0       -0.234442   -2.982661    6.129106
    120          1           0       -0.172965   -4.536605    5.235473
    121          7           0        1.722859   -3.479477   -0.482947
    122          6           0        2.715768   -4.116359   -1.332602
    123          6           0        4.168792   -3.841203   -0.985312
    124          8           0        4.531895   -3.127696   -0.049275
    125          6           0        2.327867   -3.758142   -2.767528
    126          8           0        2.366914   -2.361981   -2.984346
    127          1           0        1.738797   -2.464662   -0.428211
    128          1           0        2.607739   -5.185000   -1.150015
    129          1           0        1.280242   -4.050108   -2.818899
    130          1           0        2.852866   -4.367095   -3.505466
    131          1           0        1.770378   -1.936437   -2.373071
    132          7           0        5.033442   -4.628370   -1.623864
    133          6           0        6.465231   -4.676800   -1.426043
    134          6           0        7.229066   -3.361731   -1.413716
    135          8           0        7.873438   -3.126060   -0.393058
    136          6           0        7.162286   -5.857538   -2.097959
    137          1           0        4.546842   -5.308183   -2.193140
    138          1           0        6.580755   -4.953849   -0.371672
    139          1           0        6.603628   -6.785397   -2.055776
    140          1           0        7.279984   -5.513202   -3.130422
    141          1           0        8.080226   -6.080315   -1.545367
    142          7           0        6.984448   -2.465744   -2.374012
    143          6           0        7.485651   -1.106671   -2.439711
    144          6           0        7.054697   -0.238800   -1.266093
    145          8           0        7.779336    0.614466   -0.755568
    146          6           0        7.027882   -0.635379   -3.820483
    147          1           0        6.271695   -2.683601   -3.045519
    148          1           0        8.569231   -1.140968   -2.526759
    149          1           0        5.949919   -0.755311   -3.917505
    150          1           0        7.204803    0.422478   -3.982153
    151          1           0        7.499800   -1.209966   -4.619259
    152          7           0        5.848455   -0.418356   -0.722733
    153          6           0        5.289478    0.361389    0.368157
    154          6           0        5.965678    0.059864    1.700274
    155          8           0        6.489943    0.956385    2.362389
    156          6           0        3.771563    0.266201    0.336938
    157          6           0        3.117931    0.547289   -1.008334
    158          6           0        1.599570    0.488895   -0.937838
    159          8           0        1.045336   -0.625589   -1.054248
    160          8           0        0.949351    1.528415   -0.741594
    161          1           0        5.245792   -1.065000   -1.208169
    162          1           0        5.563249    1.405278    0.181488
    163          1           0        3.355123    1.086719    0.917220
    164          1           0        3.542430   -0.722086    0.749474
    165          1           0        3.434922   -0.225100   -1.704777
    166          1           0        3.497837    1.473333   -1.438001
    167          7           0        6.054212   -1.229508    2.015678
    168          6           0        6.692569   -1.635941    3.255804
    169          1           0        7.734958   -1.316980    3.249409
    170          1           0        6.177184   -1.174731    4.099138
    171          1           0        6.646399   -2.721079    3.350446
    172          1           0        5.671444   -1.868888    1.326053
    173         20           0       -1.461985    0.387633   -1.433747
    174          8           0       -1.726477   -1.849385   -3.140555
    175          1           0       -1.001516   -1.930277   -3.762880
    176          1           0       -2.415220   -2.411293   -3.494804
 ---------------------------------------------------------------------

 SCF Done:  E(RB3LYP) =  -5333.57954434     A.U. after   17 cycles

 The electronic state is 1-A.
 Alpha  occ. eigenvalues -- -145.34450 -19.19525 -19.14456 -19.14118 -19.13146
 Alpha  occ. eigenvalues --  -19.11279 -19.11197 -19.11116 -19.09312 -19.09028
 Alpha  occ. eigenvalues --  -19.08623 -19.07070 -19.06875 -19.06749 -19.06489
 Alpha  occ. eigenvalues --  -19.06466 -19.05365 -19.04754 -19.04631 -19.04457
 Alpha  occ. eigenvalues --  -19.04269 -19.04194 -19.02302 -19.01926 -15.40224
 Alpha  occ. eigenvalues --  -14.59001 -14.39184 -14.37969 -14.36206 -14.36157
 Alpha  occ. eigenvalues --  -14.35439 -14.34818 -14.33922 -14.32345 -14.32056
 Alpha  occ. eigenvalues --  -14.31915 -14.31614 -14.29700 -14.29487 -14.27931
 Alpha  occ. eigenvalues --  -12.53825 -12.53803 -12.53785 -10.34886 -10.31482
 Alpha  occ. eigenvalues --  -10.30211 -10.29658 -10.29032 -10.28203 -10.27939
 Alpha  occ. eigenvalues --  -10.26760 -10.26726 -10.26544 -10.25858 -10.25545
 Alpha  occ. eigenvalues --  -10.25496 -10.25404 -10.25180 -10.25027 -10.24977
 Alpha  occ. eigenvalues --  -10.24080 -10.23852 -10.23641 -10.23114 -10.22991
 Alpha  occ. eigenvalues --  -10.22961 -10.22689 -10.22610 -10.22306 -10.22158
 Alpha  occ. eigenvalues --  -10.21881 -10.21875 -10.21570 -10.21364 -10.20069
 Alpha  occ. eigenvalues --  -10.19971 -10.19900 -10.19695 -10.19451 -10.19106
 Alpha  occ. eigenvalues --  -10.18590 -10.18445 -10.18250 -10.17847 -10.17828
 Alpha  occ. eigenvalues --  -10.17402 -10.17383 -10.17242 -10.16996 -10.16886
 Alpha  occ. eigenvalues --  -10.16725 -10.16683 -10.16641 -10.16591 -10.16099
 Alpha  occ. eigenvalues --  -10.15202 -10.14708  -1.77267  -1.14358  -1.06229
 Alpha  occ. eigenvalues --   -1.05716  -1.05318  -1.05057  -1.04649  -1.04197
 Alpha  occ. eigenvalues --   -1.03774  -1.03693  -1.03264  -1.02990  -1.02476
 Alpha  occ. eigenvalues --   -1.02350  -1.02111  -1.00804  -1.00327  -1.00015
 Alpha  occ. eigenvalues --   -0.99136  -0.99093  -0.97939  -0.97421  -0.97220
 Alpha  occ. eigenvalues --   -0.97065  -0.95854  -0.95267  -0.94950  -0.93063
 Alpha  occ. eigenvalues --   -0.92704  -0.92209  -0.91443  -0.91352  -0.90061
 Alpha  occ. eigenvalues --   -0.89816  -0.89504  -0.88928  -0.88760  -0.88425
 Alpha  occ. eigenvalues --   -0.88289  -0.88260  -0.86634  -0.86058  -0.85098
 Alpha  occ. eigenvalues --   -0.82555  -0.82167  -0.81448  -0.80715  -0.79665
 Alpha  occ. eigenvalues --   -0.78132  -0.77510  -0.76995  -0.76633  -0.75420
 Alpha  occ. eigenvalues --   -0.75122  -0.74703  -0.74142  -0.74068  -0.72238
 Alpha  occ. eigenvalues --   -0.72189  -0.71964  -0.71458  -0.71353  -0.69614
 Alpha  occ. eigenvalues --   -0.69435  -0.68708  -0.68210  -0.67933  -0.67177
 Alpha  occ. eigenvalues --   -0.67150  -0.66093  -0.64912  -0.64013  -0.63538
 Alpha  occ. eigenvalues --   -0.63369  -0.62960  -0.62169  -0.61791  -0.61509
 Alpha  occ. eigenvalues --   -0.60607  -0.60407  -0.60301  -0.59584  -0.58943
 Alpha  occ. eigenvalues --   -0.58883  -0.58820  -0.58182  -0.58048  -0.57046
 Alpha  occ. eigenvalues --   -0.57020  -0.56932  -0.56592  -0.56110  -0.55923
 Alpha  occ. eigenvalues --   -0.55155  -0.55130  -0.55040  -0.54736  -0.54315
 Alpha  occ. eigenvalues --   -0.53896  -0.53765  -0.53161  -0.52662  -0.52582
 Alpha  occ. eigenvalues --   -0.52488  -0.52076  -0.51806  -0.51422  -0.51279
 Alpha  occ. eigenvalues --   -0.50276  -0.50095  -0.49894  -0.49787  -0.49102
 Alpha  occ. eigenvalues --   -0.48783  -0.48688  -0.48617  -0.48333  -0.48049
 Alpha  occ. eigenvalues --   -0.47800  -0.47634  -0.47481  -0.47401  -0.47196
 Alpha  occ. eigenvalues --   -0.46894  -0.46755  -0.46313  -0.46226  -0.45999
 Alpha  occ. eigenvalues --   -0.45884  -0.45666  -0.45452  -0.45271  -0.45219
 Alpha  occ. eigenvalues --   -0.45014  -0.44893  -0.44810  -0.44356  -0.44195
 Alpha  occ. eigenvalues --   -0.44067  -0.44021  -0.43706  -0.43592  -0.43542
 Alpha  occ. eigenvalues --   -0.43402  -0.43268  -0.42833  -0.42624  -0.42370
 Alpha  occ. eigenvalues --   -0.42164  -0.42106  -0.41890  -0.41852  -0.41702
 Alpha  occ. eigenvalues --   -0.41626  -0.41522  -0.41435  -0.41214  -0.41076
 Alpha  occ. eigenvalues --   -0.40885  -0.40728  -0.40629  -0.40359  -0.40167
 Alpha  occ. eigenvalues --   -0.40135  -0.40019  -0.39858  -0.39762  -0.39587
 Alpha  occ. eigenvalues --   -0.39495  -0.39270  -0.39121  -0.38984  -0.38865
 Alpha  occ. eigenvalues --   -0.38829  -0.38736  -0.38642  -0.38307  -0.38134
 Alpha  occ. eigenvalues --   -0.37887  -0.37766  -0.37716  -0.37577  -0.37505
 Alpha  occ. eigenvalues --   -0.37427  -0.37302  -0.37032  -0.36817  -0.36722
 Alpha  occ. eigenvalues --   -0.36675  -0.36590  -0.36477  -0.36264  -0.36112
 Alpha  occ. eigenvalues --   -0.35929  -0.35842  -0.35745  -0.35666  -0.35334
 Alpha  occ. eigenvalues --   -0.34986  -0.34770  -0.34535  -0.34260  -0.34221
 Alpha  occ. eigenvalues --   -0.34035  -0.33637  -0.33589  -0.33177  -0.33027
 Alpha  occ. eigenvalues --   -0.33008  -0.32803  -0.32657  -0.32563  -0.32436
 Alpha  occ. eigenvalues --   -0.31937  -0.31489  -0.31370  -0.31306  -0.31272
 Alpha  occ. eigenvalues --   -0.30965  -0.30655  -0.30050  -0.29485  -0.29359
 Alpha  occ. eigenvalues --   -0.29162  -0.28778  -0.28295  -0.27657  -0.27059
 Alpha  occ. eigenvalues --   -0.26872  -0.26790  -0.26370  -0.26296  -0.26159
 Alpha  occ. eigenvalues --   -0.25618  -0.25270  -0.24748  -0.24726  -0.24585
 Alpha  occ. eigenvalues --   -0.24298  -0.23737  -0.23627  -0.23478  -0.23157
 Alpha  occ. eigenvalues --   -0.22939  -0.22818  -0.22792  -0.22247  -0.22045
 Alpha  occ. eigenvalues --   -0.21995  -0.21835  -0.21596  -0.21319  -0.21065
 Alpha  occ. eigenvalues --   -0.20659  -0.20472  -0.19845  -0.19665  -0.19433
 Alpha  occ. eigenvalues --   -0.18730  -0.17827  -0.17587
 Alpha virt. eigenvalues --   -0.10907  -0.05059  -0.04144  -0.02643  -0.01865
 Alpha virt. eigenvalues --   -0.01079  -0.00820   0.00124   0.00628   0.00740
 Alpha virt. eigenvalues --    0.00998   0.01179   0.01456   0.01960   0.02846

 Mulliken charges:
               1
     1  C    0.083674
     2  C    0.018207
     3  O   -0.311332
     4  H    0.046113
     5  H    0.001174
     6  H    0.035201
     7  N   -0.115937
     8  C    0.091758
     9  C    0.059294
    10  O   -0.290089
    11  C    0.056231
    12  C    0.190457
    13  O   -0.378207
    14  O   -0.481479
    15  H    0.107872
    16  H    0.005217
    17  H    0.017281
    18  H    0.000172
    19  N   -0.116394
    20  C    0.130299
    21  C    0.044465
    22  O   -0.292669
    23  C   -0.017879
    24  C    0.026770
    25  C   -0.022229
    26  C   -0.026843
    27  N    0.097688
    28  H    0.156409
    29  H   -0.004506
    30  H    0.041135
    31  H    0.026857
    32  H    0.013866
    33  H    0.016766
    34  H    0.018125
    35  H    0.043761
    36  H    0.076187
    37  H    0.074860
    38  H    0.207670
    39  H    0.200442
    40  H    0.193175
    41  N   -0.171034
    42  C    0.097528
    43  C    0.077828
    44  O   -0.280001
    45  C    0.145277
    46  C    0.068593
    47  O   -0.420403
    48  O   -0.410116
    49  H    0.176479
    50  H    0.016765
    51  H   -0.028196
    52  H    0.004586
    53  N   -0.175694
    54  C    0.243229
    55  C    0.026082
    56  O   -0.331115
    57  H    0.150781
    58  H    0.014587
    59  H    0.027662
    60  N   -0.147269
    61  C    0.190923
    62  C    0.064286
    63  O   -0.332231
    64  C    0.009107
    65  C    0.098011
    66  N   -0.025807
    67  O   -0.371588
    68  H    0.165843
    69  H    0.018452
    70  H    0.053164
    71  H    0.024266
    72  H    0.133494
    73  H    0.085820
    74  N   -0.129408
    75  C    0.229928
    76  C    0.009477
    77  O   -0.317192
    78  H    0.154994
    79  H    0.038655
    80  H    0.031637
    81  N   -0.125555
    82  C    0.145826
    83  C    0.157045
    84  O   -0.356002
    85  C    0.136148
    86  C   -0.024082
    87  C    0.032064
    88  C    0.016288
    89  C   -0.042839
    90  C   -0.041899
    91  C    0.165749
    92  O   -0.180472
    93  H    0.153702
    94  H   -0.005467
    95  H   -0.017284
    96  H   -0.046957
    97  H   -0.043452
    98  H   -0.046352
    99  H   -0.032082
   100  H   -0.044347
   101  H    0.173422
   102  N   -0.116686
   103  C    0.125938
   104  C    0.053199
   105  O   -0.301577
   106  C   -0.095743
   107  C    0.010913
   108  C    0.079852
   109  C    0.026264
   110  H    0.136002
   111  H    0.026874
   112  H   -0.011597
   113  H   -0.002260
   114  H    0.017987
   115  H    0.032847
   116  H   -0.012190
   117  H   -0.002223
   118  H    0.002890
   119  H    0.006163
   120  H    0.006843
   121  N   -0.143911
   122  C    0.049916
   123  C    0.095180
   124  O   -0.270280
   125  C    0.267810
   126  O   -0.335174
   127  H    0.142607
   128  H    0.024742
   129  H   -0.008909
   130  H   -0.011816
   131  H    0.168248
   132  N   -0.111854
   133  C    0.060737
   134  C    0.065405
   135  O   -0.249868
   136  C    0.051303
   137  H    0.112154
   138  H    0.021358
   139  H    0.021762
   140  H    0.012334
   141  H    0.049064
   142  N   -0.138056
   143  C    0.103541
   144  C    0.077886
   145  O   -0.281231
   146  C    0.016058
   147  H    0.111503
   148  H    0.018492
   149  H    0.015672
   150  H    0.012937
   151  H    0.029267
   152  N   -0.143560
   153  C    0.140404
   154  C    0.072097
   155  O   -0.286326
   156  C   -0.006170
   157  C    0.092046
   158  C    0.171339
   159  O   -0.452748
   160  O   -0.367797
   161  H    0.119205
   162  H   -0.043613
   163  H    0.031291
   164  H    0.023114
   165  H   -0.051647
   166  H   -0.029296
   167  N   -0.169968
   168  C    0.162120
   169  H    0.024027
   170  H    0.019164
   171  H    0.006368
   172  H    0.138272
   173  Ca   1.266793
   174  O   -0.261707
   175  H    0.184836
   176  H    0.186961
 Sum of Mulliken charges =  -0.00000

 Dipole moment (field-independent basis, Debye):
    X=             34.7187    Y=              4.0059    Z=            -17.3232  Tot=             39.0068
 Quadrupole moment (field-independent basis, Debye-Ang):
   XX=           -543.3048   YY=           -465.5563   ZZ=           -491.6388
   XY=            166.3658   XZ=            -35.5011   YZ=            -11.9629

 ESP charges:
               1
     1  C   -0.486765
     2  C    0.868276
     3  O   -0.687787
     4  H    0.156388
     5  H    0.089176
     6  H    0.145363
     7  N   -0.759341
     8  C    0.178817
     9  C    0.570691
    10  O   -0.551352
    11  C   -0.148048
    12  C    0.789919
    13  O   -0.737424
    14  O   -0.898989
    15  H    0.355489
    16  H    0.110654
    17  H    0.059458
    18  H    0.020643
    19  N   -0.287902
    20  C   -0.164498
    21  C    0.544000
    22  O   -0.575991
    23  C    0.176542
    24  C   -0.341333
    25  C    0.255489
    26  C    0.033099
    27  N   -0.565442
    28  H    0.121256
    29  H    0.110829
    30  H    0.017907
    31  H    0.035142
    32  H    0.076654
    33  H    0.077528
    34  H   -0.018423
    35  H   -0.011116
    36  H    0.079064
    37  H    0.082752
    38  H    0.399721
    39  H    0.386425
    40  H    0.373293
    41  N   -0.318665
    42  C    0.091832
    43  C    0.405038
    44  O   -0.544854
    45  C   -0.261907
    46  C    0.750654
    47  O   -0.708786
    48  O   -0.755604
    49  H    0.229721
    50  H    0.093932
    51  H    0.063396
    52  H    0.078063
    53  N   -0.140359
    54  C   -0.227558
    55  C    0.605275
    56  O   -0.617353
    57  H    0.201674
    58  H    0.119448
    59  H    0.129100
    60  N   -0.414254
    61  C    0.065280
    62  C    0.337579
    63  O   -0.537939
    64  C   -0.288854
    65  C    0.685449
    66  N   -0.809668
    67  O   -0.623825
    68  H    0.307235
    69  H    0.116645
    70  H    0.143050
    71  H    0.079519
    72  H    0.378392
    73  H    0.371356
    74  N   -0.033596
    75  C   -0.480065
    76  C    0.887649
    77  O   -0.610410
    78  H    0.288650
    79  H    0.193859
    80  H    0.126201
    81  N   -0.942443
    82  C    0.464471
    83  C    0.548751
    84  O   -0.564288
    85  C   -0.072022
    86  C    0.085048
    87  C   -0.288909
    88  C   -0.282463
    89  C   -0.027985
    90  C   -0.198382
    91  C    0.235976
    92  O   -0.507630
    93  H    0.549412
    94  H   -0.003596
    95  H   -0.003008
    96  H    0.028949
    97  H    0.146696
    98  H    0.183826
    99  H    0.091365
   100  H    0.116489
   101  H    0.398678
   102  N   -0.624738
   103  C   -0.185930
   104  C    0.630294
   105  O   -0.569701
   106  C    0.267283
   107  C    0.251198
   108  C   -0.369869
   109  C   -0.364608
   110  H    0.342624
   111  H    0.116126
   112  H   -0.001034
   113  H   -0.017989
   114  H   -0.026659
   115  H    0.070919
   116  H    0.077649
   117  H    0.092278
   118  H    0.064808
   119  H    0.087992
   120  H    0.072622
   121  N   -0.340630
   122  C   -0.156760
   123  C    0.720497
   124  O   -0.543077
   125  C    0.235661
   126  O   -0.620953
   127  H    0.323593
   128  H    0.079276
   129  H    0.002193
   130  H    0.016626
   131  H    0.399375
   132  N   -0.637855
   133  C    0.419582
   134  C    0.387678
   135  O   -0.505257
   136  C   -0.333735
   137  H    0.299277
   138  H    0.001090
   139  H    0.110414
   140  H    0.043612
   141  H    0.110611
   142  N   -0.414068
   143  C    0.178637
   144  C    0.246250
   145  O   -0.517592
   146  C   -0.373475
   147  H    0.260733
   148  H    0.094840
   149  H    0.096132
   150  H    0.111549
   151  H    0.110063
   152  N    0.196057
   153  C   -0.337482
   154  C    0.612242
   155  O   -0.550116
   156  C   -0.179068
   157  C   -0.308712
   158  C    0.853562
   159  O   -0.760652
   160  O   -0.631165
   161  H    0.088689
   162  H    0.068022
   163  H    0.209691
   164  H    0.055696
   165  H    0.022331
   166  H    0.075019
   167  N   -0.208436
   168  C   -0.272307
   169  H    0.118960
   170  H    0.097034
   171  H    0.109413
   172  H    0.242724
   173  Ca   1.559872
   174  O   -0.838618
   175  H    0.428155
   176  H    0.417139
 Sum of ESP charges =   0.00000

 Normal termination of Gaussian 16 at Wed Sep 18 16:09:13 2019.
