 Gaussian 16, Revision A.03,
 Gaussian 16:  ES64L-G16RevA.03 25-Dec-2016

 ----------------------------------------------------------------------
 #b3lyp/svp scf=(tight,noincore) Test #IOP(5/87=12) Density=Current Pop
 =(MK,readradii) iop(6/33=2) iop(6/42=6)
 ----------------------------------------------------------------------

 -----------------
 CaMKII_loop3_37.0
 -----------------
 Symbolic Z-matrix:
 Charge =  0 Multiplicity = 1

                         Standard orientation:
 ---------------------------------------------------------------------
 Center     Atomic      Atomic             Coordinates (Angstroms)
 Number     Number       Type             X           Y           Z
 ---------------------------------------------------------------------
      1          6           0        2.215485    1.778553    5.652418
      2          6           0        1.658153    2.070510    4.263626
      3          8           0        2.409221    2.210817    3.300033
      4          1           0        3.206257    2.222896    5.746795
      5          1           0        1.554308    2.204437    6.406933
      6          1           0        2.286254    0.700176    5.797197
      7          7           0        0.355042    1.920731    4.044612
      8          6           0       -0.417848    2.080844    2.830897
      9          6           0       -0.287916    3.504895    2.326319
     10          8           0       -0.711935    4.467323    2.961409
     11          6           0       -1.869104    1.608268    2.987190
     12          6           0       -2.716170    1.715307    1.727856
     13          8           0       -2.128034    1.873782    0.644167
     14          8           0       -3.960942    1.623485    1.815661
     15          1           0       -0.215952    1.887457    4.875852
     16          1           0       -0.033102    1.416377    2.057687
     17          1           0       -2.376607    2.271001    3.690202
     18          1           0       -1.884083    0.623805    3.442281
     19          7           0        0.387616    3.669726    1.180812
     20          6           0        0.970174    4.854128    0.582966
     21          6           0       -0.019059    5.535695   -0.350781
     22          8           0        0.224641    6.635551   -0.829767
     23          6           0        2.271760    4.514791   -0.143411
     24          6           0        3.265794    5.668321   -0.195057
     25          6           0        4.665132    5.187922   -0.587449
     26          6           0        5.593425    6.395956   -0.582461
     27          7           0        6.858932    6.090650   -1.272228
     28          1           0        0.664042    2.800724    0.755930
     29          1           0        1.181449    5.499309    1.439765
     30          1           0        2.050925    4.137287   -1.138259
     31          1           0        2.731854    3.669674    0.363531
     32          1           0        3.403558    6.063412    0.813568
     33          1           0        2.908357    6.445387   -0.859893
     34          1           0        4.657380    4.801494   -1.607112
     35          1           0        5.161386    4.437983    0.030550
     36          1           0        5.725611    6.627212    0.485550
     37          1           0        5.056277    7.195206   -1.081732
     38          1           0        7.178666    6.908424   -1.774638
     39          1           0        7.598773    5.817510   -0.636122
     40          1           0        6.803719    5.400763   -2.001960
     41          7           0       -1.147715    4.922714   -0.726668
     42          6           0       -2.152934    5.420256   -1.630763
     43          6           0       -3.571263    5.208688   -1.108286
     44          8           0       -4.572264    5.572375   -1.714446
     45          6           0       -2.041597    4.902053   -3.063407
     46          6           0       -2.155526    3.402779   -3.317173
     47          8           0       -2.050264    2.978297   -4.485092
     48          8           0       -2.365676    2.644107   -2.338320
     49          1           0       -1.335583    3.976322   -0.411791
     50          1           0       -2.143701    6.509099   -1.636775
     51          1           0       -1.036361    5.204142   -3.361474
     52          1           0       -2.708207    5.425274   -3.736884
     53          7           0       -3.714944    4.456070   -0.012193
     54          6           0       -4.926123    4.230367    0.746691
     55          6           0       -5.941843    3.252250    0.182334
     56          8           0       -7.148852    3.257332    0.446727
     57          1           0       -2.947052    3.872888    0.303308
     58          1           0       -5.375855    5.215906    0.870601
     59          1           0       -4.737248    3.823614    1.737034
     60          7           0       -5.390775    2.374358   -0.665623
     61          6           0       -6.191927    1.339152   -1.293239
     62          6           0       -6.647409    0.200887   -0.394523
     63          8           0       -7.458317   -0.635317   -0.790616
     64          6           0       -5.418942    0.985106   -2.567855
     65          6           0       -4.444297   -0.168283   -2.411777
     66          7           0       -4.396969   -1.173987   -3.295927
     67          8           0       -3.721363   -0.268966   -1.422722
     68          1           0       -4.391550    2.344153   -0.742681
     69          1           0       -7.099142    1.864923   -1.591612
     70          1           0       -5.066268    1.825098   -3.154058
     71          1           0       -6.255979    0.558778   -3.122122
     72          1           0       -4.832577   -0.969454   -4.180298
     73          1           0       -3.943235   -2.035816   -3.031018
     74          7           0       -6.181172    0.136220    0.851648
     75          6           0       -6.455205   -0.903103    1.818092
     76          6           0       -5.532815   -2.118204    1.745125
     77          8           0       -5.908620   -3.189225    2.203694
     78          1           0       -5.505624    0.809742    1.183616
     79          1           0       -7.486887   -1.222181    1.709819
     80          1           0       -6.389267   -0.449751    2.805576
     81          7           0       -4.394105   -1.963466    1.046344
     82          6           0       -3.375692   -2.975499    0.922953
     83          6           0       -1.940430   -2.468615    0.967576
     84          8           0       -1.610171   -1.382886    0.491423
     85          6           0       -3.609242   -3.782175   -0.341059
     86          6           0       -4.970653   -4.444518   -0.416966
     87          6           0       -5.107978   -5.797022   -0.106364
     88          6           0       -6.083157   -3.754053   -0.893193
     89          6           0       -6.332731   -6.454439   -0.344444
     90          6           0       -7.320798   -4.374552   -1.118197
     91          6           0       -7.440858   -5.749838   -0.848618
     92          8           0       -8.593891   -6.445899   -1.105747
     93          1           0       -4.201199   -1.002080    0.793514
     94          1           0       -3.575347   -3.605232    1.800492
     95          1           0       -2.961235   -4.662138   -0.384094
     96          1           0       -3.400640   -3.232911   -1.257899
     97          1           0       -4.300852   -6.400973    0.283497
     98          1           0       -5.984431   -2.716810   -1.208282
     99          1           0       -6.299400   -7.531167   -0.307747
    100          1           0       -8.077163   -3.750690   -1.583070
    101          1           0       -9.268792   -5.820892   -1.371216
    102          7           0       -1.044265   -3.341674    1.424911
    103          6           0        0.387936   -3.135049    1.442419
    104          6           0        1.082935   -4.129452    0.522289
    105          8           0        0.745312   -5.312918    0.418276
    106          6           0        0.926531   -3.088676    2.867012
    107          6           0        0.165238   -2.258117    3.901422
    108          6           0        2.434792   -2.827242    2.881216
    109          6           0        0.269466   -2.687408    5.353746
    110          1           0       -1.323610   -4.239042    1.778884
    111          1           0        0.579905   -2.194987    0.935336
    112          1           0        0.792772   -4.110638    3.234438
    113          1           0       -0.883572   -2.257598    3.615768
    114          1           0        0.531552   -1.235010    3.882302
    115          1           0        2.914292   -3.675457    2.391306
    116          1           0        2.725717   -1.899001    2.397965
    117          1           0        2.694434   -2.857298    3.940783
    118          1           0       -0.099674   -3.713117    5.446251
    119          1           0        1.283852   -2.661980    5.761637
    120          1           0       -0.419399   -2.014867    5.857983
    121          7           0        2.214069   -3.704461   -0.044561
    122          6           0        3.052185   -4.301094   -1.059544
    123          6           0        4.527782   -4.041412   -0.797287
    124          8           0        4.816560   -3.112397   -0.045996
    125          6           0        2.743152   -3.725876   -2.445084
    126          8           0        3.002235   -2.342237   -2.402408
    127          1           0        2.398597   -2.750037    0.241665
    128          1           0        2.962150   -5.390223   -1.162943
    129          1           0        1.671711   -3.905643   -2.549950
    130          1           0        3.272502   -4.238614   -3.244139
    131          1           0        2.409437   -1.941692   -1.777385
    132          7           0        5.447327   -4.755459   -1.461723
    133          6           0        6.882177   -4.565857   -1.362955
    134          6           0        7.382364   -3.134027   -1.386959
    135          8           0        8.117267   -2.737730   -0.473851
    136          6           0        7.583942   -5.514106   -2.330244
    137          1           0        5.133763   -5.599121   -1.912514
    138          1           0        7.141688   -4.913187   -0.363697
    139          1           0        8.665053   -5.642091   -2.325854
    140          1           0        7.199807   -6.534907   -2.319905
    141          1           0        7.431651   -5.111100   -3.327487
    142          7           0        7.110235   -2.333564   -2.423783
    143          6           0        7.584337   -0.966923   -2.434750
    144          6           0        7.153180   -0.138948   -1.228284
    145          8           0        7.955126    0.708218   -0.856676
    146          6           0        7.082587   -0.382494   -3.745624
    147          1           0        6.548079   -2.668998   -3.193175
    148          1           0        8.662395   -0.929910   -2.608592
    149          1           0        7.451446    0.643206   -3.723674
    150          1           0        7.371707   -1.002257   -4.586341
    151          1           0        6.006514   -0.239515   -3.687968
    152          7           0        5.927583   -0.290218   -0.716689
    153          6           0        5.425181    0.467668    0.410964
    154          6           0        6.162470    0.034978    1.670879
    155          8           0        6.501032    0.864478    2.522761
    156          6           0        3.920541    0.329094    0.581131
    157          6           0        3.191531    0.898789   -0.636815
    158          6           0        1.716784    0.551682   -0.513771
    159          8           0        0.854680    1.400460   -0.226626
    160          8           0        1.406244   -0.595994   -0.913902
    161          1           0        5.281626   -0.846040   -1.260013
    162          1           0        5.573112    1.533746    0.254139
    163          1           0        3.592400    0.732519    1.535317
    164          1           0        3.684448   -0.724583    0.669591
    165          1           0        3.529927    0.347103   -1.514101
    166          1           0        3.359495    1.974953   -0.649429
    167          7           0        6.332390   -1.273940    1.847687
    168          6           0        7.025113   -1.770372    3.021864
    169          1           0        7.924818   -1.178449    3.189507
    170          1           0        6.371789   -1.691166    3.890304
    171          1           0        7.300623   -2.813003    2.867554
    172          1           0        5.934691   -1.952899    1.223708
    173         20           0       -1.163166    0.477697   -1.453087
    174          8           0       -0.828608   -1.990051   -2.484297
    175          1           0       -1.094276   -2.914503   -2.506860
    176          1           0       -0.195175   -1.905150   -3.200924
 ---------------------------------------------------------------------

 SCF Done:  E(RB3LYP) =  -5333.57156680     A.U. after   20 cycles

 The electronic state is 1-A.
 Alpha  occ. eigenvalues -- -145.40197 -19.20719 -19.15351 -19.14602 -19.14164
 Alpha  occ. eigenvalues --  -19.12192 -19.11917 -19.11443 -19.11232 -19.11191
 Alpha  occ. eigenvalues --  -19.11018 -19.10412 -19.07694 -19.07347 -19.06394
 Alpha  occ. eigenvalues --  -19.06339 -19.05889 -19.05484 -19.04947 -19.04047
 Alpha  occ. eigenvalues --  -19.03739 -19.03670 -19.03505 -19.01419 -15.45886
 Alpha  occ. eigenvalues --  -14.58733 -14.40764 -14.38537 -14.37895 -14.37441
 Alpha  occ. eigenvalues --  -14.36442 -14.36440 -14.34076 -14.33124 -14.32468
 Alpha  occ. eigenvalues --  -14.31688 -14.30387 -14.30134 -14.29105 -14.28661
 Alpha  occ. eigenvalues --  -12.59516 -12.59473 -12.59440 -10.34415 -10.33047
 Alpha  occ. eigenvalues --  -10.31066 -10.30619 -10.30295 -10.29995 -10.29884
 Alpha  occ. eigenvalues --  -10.29416 -10.27570 -10.27436 -10.27360 -10.27084
 Alpha  occ. eigenvalues --  -10.26771 -10.26199 -10.25379 -10.25322 -10.25043
 Alpha  occ. eigenvalues --  -10.24521 -10.24263 -10.24250 -10.24161 -10.23437
 Alpha  occ. eigenvalues --  -10.23288 -10.23150 -10.23015 -10.22856 -10.22611
 Alpha  occ. eigenvalues --  -10.22065 -10.22002 -10.21987 -10.21868 -10.20408
 Alpha  occ. eigenvalues --  -10.20373 -10.20369 -10.20324 -10.20032 -10.19915
 Alpha  occ. eigenvalues --  -10.19686 -10.19255 -10.18825 -10.18706 -10.18702
 Alpha  occ. eigenvalues --  -10.18627 -10.18513 -10.18416 -10.18326 -10.17177
 Alpha  occ. eigenvalues --  -10.16941 -10.16576 -10.16476 -10.16338 -10.16315
 Alpha  occ. eigenvalues --  -10.16008 -10.13797  -1.82587  -1.13888  -1.10204
 Alpha  occ. eigenvalues --   -1.10117  -1.09693  -1.07903  -1.06433  -1.06097
 Alpha  occ. eigenvalues --   -1.05197  -1.05035  -1.04491  -1.04229  -1.03816
 Alpha  occ. eigenvalues --   -1.03437  -1.02697  -1.01107  -1.00103  -1.00057
 Alpha  occ. eigenvalues --   -0.99587  -0.99311  -0.98536  -0.98427  -0.97410
 Alpha  occ. eigenvalues --   -0.97339  -0.96903  -0.96180  -0.95825  -0.95013
 Alpha  occ. eigenvalues --   -0.94410  -0.94300  -0.93304  -0.90952  -0.90353
 Alpha  occ. eigenvalues --   -0.90176  -0.89544  -0.89289  -0.89273  -0.88883
 Alpha  occ. eigenvalues --   -0.88032  -0.87501  -0.87020  -0.86467  -0.84958
 Alpha  occ. eigenvalues --   -0.83532  -0.82819  -0.82490  -0.81121  -0.80795
 Alpha  occ. eigenvalues --   -0.79949  -0.78991  -0.77919  -0.76612  -0.75781
 Alpha  occ. eigenvalues --   -0.75425  -0.74939  -0.73692  -0.73337  -0.73177
 Alpha  occ. eigenvalues --   -0.72707  -0.71877  -0.71706  -0.71313  -0.71134
 Alpha  occ. eigenvalues --   -0.70727  -0.69474  -0.68786  -0.68376  -0.67799
 Alpha  occ. eigenvalues --   -0.67280  -0.67168  -0.65523  -0.64900  -0.64251
 Alpha  occ. eigenvalues --   -0.64032  -0.63619  -0.63376  -0.62915  -0.62045
 Alpha  occ. eigenvalues --   -0.61970  -0.61572  -0.60693  -0.60342  -0.59888
 Alpha  occ. eigenvalues --   -0.59859  -0.59731  -0.58954  -0.58665  -0.58187
 Alpha  occ. eigenvalues --   -0.57952  -0.57143  -0.57055  -0.56713  -0.56423
 Alpha  occ. eigenvalues --   -0.56086  -0.55948  -0.55798  -0.55752  -0.55284
 Alpha  occ. eigenvalues --   -0.54960  -0.54593  -0.54314  -0.53962  -0.53740
 Alpha  occ. eigenvalues --   -0.53034  -0.52841  -0.52595  -0.52292  -0.51681
 Alpha  occ. eigenvalues --   -0.51352  -0.51186  -0.50891  -0.50254  -0.50008
 Alpha  occ. eigenvalues --   -0.49893  -0.49717  -0.49533  -0.49314  -0.49027
 Alpha  occ. eigenvalues --   -0.48613  -0.48385  -0.48203  -0.47778  -0.47715
 Alpha  occ. eigenvalues --   -0.47512  -0.47413  -0.47267  -0.47052  -0.46813
 Alpha  occ. eigenvalues --   -0.46758  -0.46540  -0.46522  -0.46199  -0.46125
 Alpha  occ. eigenvalues --   -0.45709  -0.45694  -0.45507  -0.45297  -0.45171
 Alpha  occ. eigenvalues --   -0.44916  -0.44797  -0.44429  -0.44355  -0.44220
 Alpha  occ. eigenvalues --   -0.44025  -0.43892  -0.43869  -0.43562  -0.43295
 Alpha  occ. eigenvalues --   -0.43194  -0.43048  -0.42918  -0.42702  -0.42622
 Alpha  occ. eigenvalues --   -0.42232  -0.42007  -0.41969  -0.41592  -0.41538
 Alpha  occ. eigenvalues --   -0.41396  -0.41374  -0.41151  -0.41061  -0.40878
 Alpha  occ. eigenvalues --   -0.40854  -0.40534  -0.40275  -0.40120  -0.40035
 Alpha  occ. eigenvalues --   -0.40000  -0.39820  -0.39699  -0.39638  -0.39551
 Alpha  occ. eigenvalues --   -0.39347  -0.39238  -0.39125  -0.39041  -0.38850
 Alpha  occ. eigenvalues --   -0.38802  -0.38714  -0.38567  -0.38499  -0.38205
 Alpha  occ. eigenvalues --   -0.38064  -0.38022  -0.37891  -0.37750  -0.37582
 Alpha  occ. eigenvalues --   -0.37503  -0.37363  -0.37289  -0.37087  -0.36824
 Alpha  occ. eigenvalues --   -0.36742  -0.36295  -0.36136  -0.35760  -0.35647
 Alpha  occ. eigenvalues --   -0.35440  -0.35326  -0.35155  -0.35067  -0.34995
 Alpha  occ. eigenvalues --   -0.34883  -0.34350  -0.34220  -0.34077  -0.33757
 Alpha  occ. eigenvalues --   -0.33593  -0.33561  -0.33451  -0.33049  -0.32667
 Alpha  occ. eigenvalues --   -0.32572  -0.32290  -0.32036  -0.31856  -0.31748
 Alpha  occ. eigenvalues --   -0.31152  -0.31117  -0.31063  -0.30516  -0.29965
 Alpha  occ. eigenvalues --   -0.29839  -0.29485  -0.29275  -0.29010  -0.28848
 Alpha  occ. eigenvalues --   -0.28660  -0.28036  -0.27857  -0.27709  -0.27505
 Alpha  occ. eigenvalues --   -0.27173  -0.26732  -0.26594  -0.25883  -0.25480
 Alpha  occ. eigenvalues --   -0.24445  -0.24329  -0.23901  -0.23704  -0.23626
 Alpha  occ. eigenvalues --   -0.23483  -0.23369  -0.23057  -0.22828  -0.22513
 Alpha  occ. eigenvalues --   -0.22186  -0.21732  -0.21295  -0.21038  -0.20836
 Alpha  occ. eigenvalues --   -0.20597  -0.20387  -0.20074  -0.19874  -0.19350
 Alpha  occ. eigenvalues --   -0.18861  -0.17921  -0.17545
 Alpha virt. eigenvalues --   -0.10517  -0.05106  -0.04765  -0.04479  -0.02736
 Alpha virt. eigenvalues --   -0.01569  -0.01086  -0.00950  -0.00633  -0.00139
 Alpha virt. eigenvalues --    0.00162   0.00545   0.00790   0.00834   0.01674

 Mulliken charges:
               1
     1  C    0.055385
     2  C    0.024052
     3  O   -0.299198
     4  H    0.034279
     5  H    0.012517
     6  H    0.039118
     7  N   -0.108483
     8  C    0.114281
     9  C    0.045290
    10  O   -0.285984
    11  C    0.055443
    12  C    0.166297
    13  O   -0.451362
    14  O   -0.385692
    15  H    0.108536
    16  H   -0.003136
    17  H    0.008625
    18  H    0.001145
    19  N   -0.148696
    20  C    0.145778
    21  C    0.063353
    22  O   -0.303254
    23  C    0.032623
    24  C    0.028985
    25  C   -0.072569
    26  C    0.013974
    27  N    0.096336
    28  H    0.145155
    29  H    0.008250
    30  H    0.005058
    31  H    0.043136
    32  H    0.010279
    33  H    0.032290
    34  H    0.007189
    35  H    0.053856
    36  H    0.091800
    37  H    0.072063
    38  H    0.185979
    39  H    0.204277
    40  H    0.182476
    41  N   -0.143092
    42  C    0.140738
    43  C    0.044522
    44  O   -0.276953
    45  C    0.071162
    46  C    0.094986
    47  O   -0.367326
    48  O   -0.470245
    49  H    0.143918
    50  H    0.010595
    51  H   -0.008524
    52  H    0.021602
    53  N   -0.178373
    54  C    0.215028
    55  C    0.045804
    56  O   -0.300550
    57  H    0.142514
    58  H    0.006035
    59  H    0.037017
    60  N   -0.173777
    61  C    0.137449
    62  C    0.064860
    63  O   -0.303050
    64  C    0.083846
    65  C    0.055482
    66  N   -0.031989
    67  O   -0.359623
    68  H    0.143717
    69  H    0.028806
    70  H    0.084177
    71  H   -0.002197
    72  H    0.135067
    73  H    0.121711
    74  N   -0.156691
    75  C    0.231236
    76  C    0.027497
    77  O   -0.282232
    78  H    0.155542
    79  H    0.027535
    80  H    0.027289
    81  N   -0.170772
    82  C    0.143107
    83  C    0.141113
    84  O   -0.329929
    85  C    0.165571
    86  C   -0.008211
    87  C   -0.020908
    88  C    0.001004
    89  C   -0.019020
    90  C   -0.050452
    91  C    0.190665
    92  O   -0.204152
    93  H    0.154214
    94  H   -0.004230
    95  H   -0.026669
    96  H   -0.061199
    97  H   -0.044590
    98  H   -0.028177
    99  H   -0.033158
   100  H   -0.027392
   101  H    0.170598
   102  N   -0.128686
   103  C    0.131069
   104  C    0.039413
   105  O   -0.285430
   106  C   -0.071583
   107  C    0.014359
   108  C    0.051735
   109  C    0.021477
   110  H    0.128488
   111  H    0.019275
   112  H   -0.028986
   113  H    0.000070
   114  H    0.003733
   115  H    0.017092
   116  H    0.018110
   117  H    0.003976
   118  H    0.004643
   119  H    0.018964
   120  H    0.018882
   121  N   -0.130068
   122  C    0.053194
   123  C    0.106590
   124  O   -0.282666
   125  C    0.269739
   126  O   -0.341212
   127  H    0.157635
   128  H    0.014706
   129  H   -0.021980
   130  H   -0.005035
   131  H    0.158156
   132  N   -0.119247
   133  C    0.129240
   134  C    0.061306
   135  O   -0.258495
   136  C    0.025920
   137  H    0.119119
   138  H    0.018013
   139  H    0.042011
   140  H    0.024886
   141  H   -0.004148
   142  N   -0.134435
   143  C    0.095130
   144  C    0.077228
   145  O   -0.279998
   146  C    0.031443
   147  H    0.112434
   148  H    0.014014
   149  H    0.009830
   150  H    0.030159
   151  H    0.002362
   152  N   -0.141683
   153  C    0.164820
   154  C    0.066523
   155  O   -0.288793
   156  C   -0.076826
   157  C    0.128603
   158  C    0.159351
   159  O   -0.412174
   160  O   -0.431062
   161  H    0.124190
   162  H   -0.041731
   163  H    0.056876
   164  H    0.004118
   165  H   -0.008630
   166  H   -0.035128
   167  N   -0.162873
   168  C    0.152547
   169  H    0.028726
   170  H    0.011150
   171  H    0.006921
   172  H    0.131285
   173  Ca   1.311099
   174  O   -0.287644
   175  H    0.193159
   176  H    0.184366
 Sum of Mulliken charges =  -0.00000

 Dipole moment (field-independent basis, Debye):
    X=             38.8820    Y=             -2.7902    Z=            -11.9238  Tot=             40.7649
 Quadrupole moment (field-independent basis, Debye-Ang):
   XX=           -559.8748   YY=           -495.0368   ZZ=           -531.7551
   XY=            148.4620   XZ=            -66.5543   YZ=             18.0561

 ESP charges:
               1
     1  C   -0.467559
     2  C    0.824970
     3  O   -0.668698
     4  H    0.140071
     5  H    0.093160
     6  H    0.134471
     7  N   -0.695248
     8  C    0.353748
     9  C    0.409474
    10  O   -0.561613
    11  C   -0.472898
    12  C    0.952963
    13  O   -0.721285
    14  O   -0.735404
    15  H    0.330341
    16  H    0.006884
    17  H    0.099998
    18  H    0.097373
    19  N   -0.029298
    20  C   -0.557799
    21  C    0.765742
    22  O   -0.594432
    23  C    0.465511
    24  C   -0.549459
    25  C    0.383269
    26  C    0.046515
    27  N   -0.464368
    28  H    0.194631
    29  H    0.187765
    30  H   -0.028024
    31  H   -0.000100
    32  H    0.118262
    33  H    0.141169
    34  H   -0.069539
    35  H   -0.038792
    36  H    0.069289
    37  H    0.067062
    38  H    0.346665
    39  H    0.365513
    40  H    0.343907
    41  N   -0.556317
    42  C    0.106320
    43  C    0.478402
    44  O   -0.544118
    45  C   -0.250465
    46  C    0.856457
    47  O   -0.712909
    48  O   -0.954193
    49  H    0.290414
    50  H    0.085609
    51  H    0.047186
    52  H    0.086477
    53  N   -0.232418
    54  C   -0.287355
    55  C    0.622977
    56  O   -0.590578
    57  H    0.146697
    58  H    0.124475
    59  H    0.128518
    60  N   -0.436444
    61  C   -0.058117
    62  C    0.392568
    63  O   -0.504223
    64  C   -0.395726
    65  C    0.736144
    66  N   -0.901863
    67  O   -0.626208
    68  H    0.490884
    69  H    0.162885
    70  H    0.217874
    71  H    0.089574
    72  H    0.402004
    73  H    0.427267
    74  N   -0.097399
    75  C   -0.343328
    76  C    0.558152
    77  O   -0.508570
    78  H    0.256492
    79  H    0.163810
    80  H    0.127179
    81  N   -0.284155
    82  C   -0.000255
    83  C    0.703939
    84  O   -0.648083
    85  C    0.402199
    86  C   -0.217250
    87  C   -0.147396
    88  C   -0.059292
    89  C   -0.172019
    90  C   -0.283888
    91  C    0.361147
    92  O   -0.561893
    93  H    0.123914
    94  H    0.037256
    95  H   -0.077626
    96  H   -0.121488
    97  H    0.129002
    98  H    0.150681
    99  H    0.121962
   100  H    0.129668
   101  H    0.415452
   102  N   -0.671359
   103  C    0.030044
   104  C    0.617196
   105  O   -0.571408
   106  C    0.152513
   107  C    0.239796
   108  C   -0.321664
   109  C   -0.362890
   110  H    0.327032
   111  H    0.033422
   112  H   -0.007674
   113  H   -0.015818
   114  H   -0.026829
   115  H    0.048477
   116  H    0.057868
   117  H    0.094302
   118  H    0.072848
   119  H    0.087375
   120  H    0.087321
   121  N   -0.321547
   122  C   -0.129134
   123  C    0.510030
   124  O   -0.469462
   125  C    0.198257
   126  O   -0.540976
   127  H    0.362404
   128  H    0.093580
   129  H   -0.006341
   130  H    0.033549
   131  H    0.274432
   132  N   -0.425785
   133  C    0.098870
   134  C    0.482016
   135  O   -0.524683
   136  C   -0.278024
   137  H    0.283502
   138  H    0.074944
   139  H    0.120909
   140  H    0.100129
   141  H    0.046537
   142  N   -0.429104
   143  C    0.221815
   144  C    0.313832
   145  O   -0.521875
   146  C   -0.390731
   147  H    0.293361
   148  H    0.068192
   149  H    0.104270
   150  H    0.121813
   151  H    0.080599
   152  N    0.108888
   153  C   -0.600036
   154  C    0.666123
   155  O   -0.570602
   156  C    0.454223
   157  C   -0.226712
   158  C    0.744783
   159  O   -0.768173
   160  O   -0.626644
   161  H    0.108995
   162  H    0.147603
   163  H    0.053479
   164  H   -0.232501
   165  H    0.057244
   166  H   -0.047977
   167  N   -0.217559
   168  C   -0.206952
   169  H    0.109841
   170  H    0.068022
   171  H    0.085086
   172  H    0.240300
   173  Ca   1.644900
   174  O   -0.858592
   175  H    0.445072
   176  H    0.421010
 Sum of ESP charges =  -0.00000

 Normal termination of Gaussian 16 at Wed Sep 18 16:10:54 2019.
