 Gaussian 16, Revision A.03,
 Gaussian 16:  ES64L-G16RevA.03 25-Dec-2016

 ----------------------------------------------------------------------
 #b3lyp/svp scf=(tight,noincore) Test #IOP(5/87=12) Density=Current Pop
 =(MK,readradii) iop(6/33=2) iop(6/42=6)
 ----------------------------------------------------------------------

 -----------------
 CaMKII_loop3_43.0
 -----------------
 Symbolic Z-matrix:
 Charge =  0 Multiplicity = 1

                         Standard orientation:
 ---------------------------------------------------------------------
 Center     Atomic      Atomic             Coordinates (Angstroms)
 Number     Number       Type             X           Y           Z
 ---------------------------------------------------------------------
      1          6           0        2.459162    1.296438    5.570686
      2          6           0        1.884140    1.320078    4.160689
      3          8           0        2.592546    1.440560    3.160616
      4          1           0        3.505976    0.996701    5.530135
      5          1           0        2.383197    2.290175    6.011208
      6          1           0        1.901244    0.585608    6.179518
      7          7           0        0.560139    1.460989    4.073143
      8          6           0       -0.125269    1.632820    2.808592
      9          6           0        0.160181    3.052123    2.340941
     10          8           0       -0.203829    4.086365    2.891342
     11          6           0       -1.619400    1.445700    3.045779
     12          6           0       -2.461911    1.585640    1.782493
     13          8           0       -1.900313    1.763711    0.681766
     14          8           0       -3.705849    1.479820    1.939719
     15          1           0       -0.001566    1.505082    4.911680
     16          1           0        0.202943    0.941664    2.034783
     17          1           0       -1.897698    2.136681    3.848024
     18          1           0       -1.803457    0.435638    3.418871
     19          7           0        0.891177    3.175974    1.227385
     20          6           0        1.440239    4.446012    0.802492
     21          6           0        0.407520    5.437828    0.317940
     22          8           0        0.531849    6.645445    0.511597
     23          6           0        2.613173    4.286156   -0.167185
     24          6           0        3.599063    5.435412   -0.058418
     25          6           0        4.890761    5.066769   -0.791234
     26          6           0        5.873716    6.196947   -1.053718
     27          7           0        5.476929    6.982085   -2.237322
     28          1           0        1.033712    2.292112    0.757203
     29          1           0        1.867015    4.863432    1.719347
     30          1           0        2.305368    4.165328   -1.203117
     31          1           0        3.055745    3.305649    0.038087
     32          1           0        3.838804    5.755913    0.957557
     33          1           0        3.187244    6.318766   -0.553888
     34          1           0        4.615746    4.443990   -1.634628
     35          1           0        5.427270    4.352536   -0.151367
     36          1           0        6.876231    5.842875   -1.285873
     37          1           0        5.956620    6.732489   -0.102234
     38          1           0        6.071840    7.722344   -2.577171
     39          1           0        5.382807    6.351917   -3.014966
     40          1           0        4.558227    7.373795   -2.109851
     41          7           0       -0.588704    4.950532   -0.433246
     42          6           0       -1.567163    5.720965   -1.183214
     43          6           0       -2.912537    5.615892   -0.482195
     44          8           0       -3.727631    6.489885   -0.783289
     45          6           0       -1.605481    5.346229   -2.662100
     46          6           0       -1.631615    3.892351   -3.114046
     47          8           0       -1.549800    3.023130   -2.218579
     48          8           0       -1.748870    3.581909   -4.316826
     49          1           0       -0.716712    3.949840   -0.372998
     50          1           0       -1.263752    6.757661   -1.160774
     51          1           0       -0.684315    5.787986   -3.052489
     52          1           0       -2.412866    5.860381   -3.172372
     53          7           0       -3.199270    4.707705    0.458593
     54          6           0       -4.442702    4.470014    1.148651
     55          6           0       -5.470260    3.587704    0.460571
     56          8           0       -6.637470    3.961542    0.500152
     57          1           0       -2.505708    4.027064    0.738591
     58          1           0       -4.894108    5.432581    1.370229
     59          1           0       -4.185763    4.036099    2.119218
     60          7           0       -5.029981    2.679040   -0.416346
     61          6           0       -5.879065    1.903880   -1.297471
     62          6           0       -6.478798    0.670498   -0.628674
     63          8           0       -7.308562   -0.060823   -1.167156
     64          6           0       -5.209544    1.622526   -2.632680
     65          6           0       -4.512513    0.267563   -2.637247
     66          7           0       -4.694015   -0.596263   -3.635727
     67          8           0       -3.771386   -0.016130   -1.699777
     68          1           0       -4.062673    2.381241   -0.361284
     69          1           0       -6.826450    2.394921   -1.516426
     70          1           0       -4.563977    2.450131   -2.937822
     71          1           0       -5.983803    1.537197   -3.391194
     72          1           0       -5.300931   -0.339758   -4.401010
     73          1           0       -4.149648   -1.428745   -3.499204
     74          7           0       -6.152275    0.372239    0.625010
     75          6           0       -6.720313   -0.668865    1.460913
     76          6           0       -5.770725   -1.836604    1.731595
     77          8           0       -6.217517   -2.766520    2.404598
     78          1           0       -5.302638    0.776267    0.992948
     79          1           0       -7.648984   -1.043181    1.038470
     80          1           0       -6.979054   -0.236885    2.431195
     81          7           0       -4.603549   -1.848492    1.089443
     82          6           0       -3.674061   -2.956370    1.005425
     83          6           0       -2.209036   -2.550190    1.094987
     84          8           0       -1.865591   -1.466133    0.643028
     85          6           0       -3.891145   -3.750711   -0.288869
     86          6           0       -5.257347   -4.358955   -0.472263
     87          6           0       -5.388375   -5.746018   -0.409105
     88          6           0       -6.385565   -3.596736   -0.818739
     89          6           0       -6.613838   -6.376372   -0.667357
     90          6           0       -7.643055   -4.189092   -1.013506
     91          6           0       -7.756430   -5.587000   -0.928651
     92          8           0       -8.912227   -6.198657   -1.312589
     93          1           0       -4.246870   -1.007386    0.661986
     94          1           0       -3.966279   -3.688419    1.752962
     95          1           0       -3.071248   -4.453849   -0.459353
     96          1           0       -3.730988   -2.963457   -1.025809
     97          1           0       -4.508466   -6.286217   -0.086080
     98          1           0       -6.420122   -2.519020   -0.786577
     99          1           0       -6.708365   -7.438284   -0.522072
    100          1           0       -8.516338   -3.609233   -1.252964
    101          1           0       -9.540874   -5.501148   -1.484877
    102          7           0       -1.324667   -3.438998    1.562758
    103          6           0        0.105824   -3.209592    1.444574
    104          6           0        0.723722   -4.009209    0.316339
    105          8           0        0.288009   -5.134129    0.057864
    106          6           0        0.814072   -3.491371    2.773854
    107          6           0        0.199505   -2.506419    3.770788
    108          6           0        2.340252   -3.409471    2.757577
    109          6           0        0.521202   -2.908311    5.211654
    110          1           0       -1.629662   -4.371795    1.828594
    111          1           0        0.210758   -2.147619    1.249373
    112          1           0        0.514980   -4.501270    3.014783
    113          1           0       -0.884170   -2.569382    3.805219
    114          1           0        0.571219   -1.487984    3.673223
    115          1           0        2.681802   -3.587182    3.778147
    116          1           0        2.799439   -4.240585    2.231271
    117          1           0        2.688610   -2.414705    2.482828
    118          1           0        0.386245   -3.975131    5.350507
    119          1           0        1.604140   -2.838108    5.347362
    120          1           0        0.122076   -2.229484    5.958644
    121          7           0        1.725800   -3.388608   -0.299368
    122          6           0        2.591564   -4.090548   -1.225559
    123          6           0        4.063293   -3.932394   -0.864450
    124          8           0        4.498122   -3.041826   -0.141670
    125          6           0        2.169408   -3.865246   -2.677566
    126          8           0        2.358882   -2.516130   -3.079168
    127          1           0        1.981765   -2.429992   -0.074561
    128          1           0        2.436530   -5.164730   -1.157010
    129          1           0        1.132934   -4.126302   -2.881947
    130          1           0        2.734198   -4.522412   -3.331895
    131          1           0        3.164342   -2.544179   -3.596417
    132          7           0        4.911587   -4.743849   -1.503933
    133          6           0        6.307522   -4.832702   -1.130878
    134          6           0        7.077150   -3.528665   -1.211250
    135          8           0        7.802940   -3.209636   -0.264229
    136          6           0        6.928380   -6.031971   -1.848297
    137          1           0        4.638185   -5.442987   -2.174797
    138          1           0        6.297481   -5.111463   -0.077554
    139          1           0        7.997028   -6.089556   -1.649613
    140          1           0        6.381504   -6.942981   -1.586786
    141          1           0        6.777483   -5.876547   -2.915289
    142          7           0        6.754302   -2.734317   -2.229179
    143          6           0        7.449483   -1.478345   -2.411273
    144          6           0        7.132069   -0.440090   -1.348317
    145          8           0        7.930431    0.411408   -0.968490
    146          6           0        7.300531   -1.107322   -3.888282
    147          1           0        6.158803   -3.017037   -2.996740
    148          1           0        8.518077   -1.666974   -2.361006
    149          1           0        6.254962   -0.978274   -4.162201
    150          1           0        7.665206   -0.094837   -4.061445
    151          1           0        7.770474   -1.846384   -4.552467
    152          7           0        5.935857   -0.553607   -0.754440
    153          6           0        5.456093    0.288071    0.328521
    154          6           0        5.965886   -0.035653    1.724556
    155          8           0        6.239231    0.883948    2.491835
    156          6           0        3.924264    0.302702    0.337727
    157          6           0        3.363973    0.485943   -1.069006
    158          6           0        1.852201    0.537175   -0.887295
    159          8           0        1.310799    1.624983   -1.175144
    160          8           0        1.162279   -0.364588   -0.371122
    161          1           0        5.523002   -1.466207   -0.805557
    162          1           0        5.800043    1.278239    0.022797
    163          1           0        3.571599    1.180165    0.874277
    164          1           0        3.509875   -0.507698    0.933490
    165          1           0        3.723284   -0.381101   -1.624191
    166          1           0        3.831808    1.331904   -1.561430
    167          7           0        6.179252   -1.312460    2.041950
    168          6           0        6.901386   -1.689487    3.247800
    169          1           0        7.933492   -1.927467    2.992907
    170          1           0        6.883834   -0.861568    3.956125
    171          1           0        6.428529   -2.562877    3.697876
    172          1           0        6.094424   -2.092841    1.398282
    173         20           0       -1.135346    0.393643   -1.464239
    174          8           0       -1.284027   -2.131860   -2.333681
    175          1           0       -1.311636   -2.137300   -3.291025
    176          1           0       -1.223821   -3.049042   -2.089852
 ---------------------------------------------------------------------

 SCF Done:  E(RB3LYP) =  -5333.55039787     A.U. after   18 cycles

 The electronic state is 1-A.
 Alpha  occ. eigenvalues -- -145.40269 -19.21157 -19.18083 -19.15938 -19.14950
 Alpha  occ. eigenvalues --  -19.13272 -19.12461 -19.11880 -19.11803 -19.09924
 Alpha  occ. eigenvalues --  -19.08510 -19.07403 -19.06882 -19.06802 -19.06277
 Alpha  occ. eigenvalues --  -19.05837 -19.05518 -19.05500 -19.04837 -19.03851
 Alpha  occ. eigenvalues --  -19.03403 -19.02481 -19.02077 -18.99717 -15.45942
 Alpha  occ. eigenvalues --  -14.57674 -14.41377 -14.39822 -14.37791 -14.37333
 Alpha  occ. eigenvalues --  -14.36991 -14.34537 -14.33568 -14.33238 -14.33148
 Alpha  occ. eigenvalues --  -14.30576 -14.30446 -14.30224 -14.29320 -14.29218
 Alpha  occ. eigenvalues --  -12.59577 -12.59522 -12.59508 -10.34307 -10.34146
 Alpha  occ. eigenvalues --  -10.31991 -10.30770 -10.30065 -10.29784 -10.28814
 Alpha  occ. eigenvalues --  -10.28775 -10.27289 -10.27260 -10.26714 -10.26391
 Alpha  occ. eigenvalues --  -10.25873 -10.25840 -10.25518 -10.25460 -10.24600
 Alpha  occ. eigenvalues --  -10.24022 -10.23996 -10.23648 -10.23549 -10.23428
 Alpha  occ. eigenvalues --  -10.22895 -10.22826 -10.22823 -10.22637 -10.22055
 Alpha  occ. eigenvalues --  -10.21793 -10.21670 -10.20975 -10.20413 -10.20197
 Alpha  occ. eigenvalues --  -10.20119 -10.20109 -10.20058 -10.19258 -10.19199
 Alpha  occ. eigenvalues --  -10.19155 -10.19054 -10.18458 -10.17896 -10.17821
 Alpha  occ. eigenvalues --  -10.17816 -10.17738 -10.17727 -10.17634 -10.17359
 Alpha  occ. eigenvalues --  -10.17291 -10.17257 -10.17206 -10.17149 -10.16496
 Alpha  occ. eigenvalues --  -10.15555 -10.13258  -1.82538  -1.13028  -1.10136
 Alpha  occ. eigenvalues --   -1.09899  -1.09632  -1.09271  -1.07120  -1.06347
 Alpha  occ. eigenvalues --   -1.05966  -1.05493  -1.05150  -1.04078  -1.04009
 Alpha  occ. eigenvalues --   -1.03098  -1.02840  -1.00612  -0.99861  -0.99670
 Alpha  occ. eigenvalues --   -0.99077  -0.98940  -0.98631  -0.98335  -0.97566
 Alpha  occ. eigenvalues --   -0.97030  -0.96514  -0.95710  -0.95418  -0.94577
 Alpha  occ. eigenvalues --   -0.93568  -0.92547  -0.92219  -0.91832  -0.90415
 Alpha  occ. eigenvalues --   -0.90023  -0.89137  -0.89041  -0.88184  -0.88100
 Alpha  occ. eigenvalues --   -0.87497  -0.86743  -0.86442  -0.85235  -0.84903
 Alpha  occ. eigenvalues --   -0.83779  -0.83383  -0.82302  -0.80522  -0.80419
 Alpha  occ. eigenvalues --   -0.79211  -0.78363  -0.78065  -0.76759  -0.76152
 Alpha  occ. eigenvalues --   -0.74480  -0.73972  -0.72719  -0.72463  -0.72330
 Alpha  occ. eigenvalues --   -0.72177  -0.71586  -0.71339  -0.71136  -0.70973
 Alpha  occ. eigenvalues --   -0.70619  -0.69987  -0.69473  -0.68327  -0.67754
 Alpha  occ. eigenvalues --   -0.67086  -0.66790  -0.66250  -0.65176  -0.64317
 Alpha  occ. eigenvalues --   -0.64185  -0.63184  -0.63007  -0.62060  -0.61608
 Alpha  occ. eigenvalues --   -0.61103  -0.60729  -0.60698  -0.60570  -0.60541
 Alpha  occ. eigenvalues --   -0.60019  -0.59828  -0.59209  -0.58592  -0.58014
 Alpha  occ. eigenvalues --   -0.57852  -0.57748  -0.57509  -0.57023  -0.56900
 Alpha  occ. eigenvalues --   -0.56675  -0.56325  -0.55498  -0.55035  -0.54479
 Alpha  occ. eigenvalues --   -0.54192  -0.54147  -0.53333  -0.53286  -0.53162
 Alpha  occ. eigenvalues --   -0.52843  -0.52620  -0.52403  -0.52284  -0.51636
 Alpha  occ. eigenvalues --   -0.51229  -0.50944  -0.50710  -0.50359  -0.50063
 Alpha  occ. eigenvalues --   -0.49886  -0.49499  -0.49191  -0.48701  -0.48629
 Alpha  occ. eigenvalues --   -0.48262  -0.48083  -0.47952  -0.47710  -0.47570
 Alpha  occ. eigenvalues --   -0.47429  -0.47413  -0.47099  -0.46961  -0.46841
 Alpha  occ. eigenvalues --   -0.46682  -0.46528  -0.46066  -0.46051  -0.45669
 Alpha  occ. eigenvalues --   -0.45467  -0.45272  -0.44994  -0.44910  -0.44630
 Alpha  occ. eigenvalues --   -0.44346  -0.44164  -0.44005  -0.43930  -0.43833
 Alpha  occ. eigenvalues --   -0.43603  -0.43515  -0.43485  -0.43272  -0.43189
 Alpha  occ. eigenvalues --   -0.43094  -0.42896  -0.42636  -0.42439  -0.42229
 Alpha  occ. eigenvalues --   -0.42078  -0.41893  -0.41778  -0.41548  -0.41390
 Alpha  occ. eigenvalues --   -0.41164  -0.41015  -0.40816  -0.40665  -0.40529
 Alpha  occ. eigenvalues --   -0.40465  -0.40309  -0.40248  -0.39885  -0.39841
 Alpha  occ. eigenvalues --   -0.39723  -0.39619  -0.39468  -0.39290  -0.39060
 Alpha  occ. eigenvalues --   -0.38883  -0.38754  -0.38702  -0.38662  -0.38555
 Alpha  occ. eigenvalues --   -0.38425  -0.38323  -0.38311  -0.38024  -0.38012
 Alpha  occ. eigenvalues --   -0.37897  -0.37875  -0.37376  -0.37301  -0.37202
 Alpha  occ. eigenvalues --   -0.37055  -0.37001  -0.36849  -0.36713  -0.36418
 Alpha  occ. eigenvalues --   -0.35861  -0.35626  -0.35460  -0.35376  -0.35286
 Alpha  occ. eigenvalues --   -0.35239  -0.35034  -0.34853  -0.34629  -0.34382
 Alpha  occ. eigenvalues --   -0.34139  -0.34103  -0.34002  -0.33751  -0.33600
 Alpha  occ. eigenvalues --   -0.33533  -0.33168  -0.33085  -0.32688  -0.32646
 Alpha  occ. eigenvalues --   -0.32634  -0.32232  -0.32100  -0.31918  -0.31682
 Alpha  occ. eigenvalues --   -0.31513  -0.31498  -0.31275  -0.30871  -0.30853
 Alpha  occ. eigenvalues --   -0.30429  -0.30039  -0.29424  -0.28792  -0.28626
 Alpha  occ. eigenvalues --   -0.28248  -0.28027  -0.27702  -0.27575  -0.26455
 Alpha  occ. eigenvalues --   -0.26270  -0.25681  -0.25371  -0.25160  -0.24450
 Alpha  occ. eigenvalues --   -0.24173  -0.23793  -0.23724  -0.23657  -0.23370
 Alpha  occ. eigenvalues --   -0.23021  -0.22794  -0.22457  -0.22248  -0.22147
 Alpha  occ. eigenvalues --   -0.21930  -0.21334  -0.20930  -0.20810  -0.20515
 Alpha  occ. eigenvalues --   -0.20350  -0.19881  -0.19270  -0.19229  -0.18410
 Alpha  occ. eigenvalues --   -0.18162  -0.17516  -0.15924
 Alpha virt. eigenvalues --   -0.09465  -0.04858  -0.04719  -0.03537  -0.03505
 Alpha virt. eigenvalues --   -0.02746  -0.02439  -0.00202  -0.00174  -0.00048
 Alpha virt. eigenvalues --    0.00092   0.00139   0.00258   0.00706   0.01671

 Mulliken charges:
               1
     1  C    0.043547
     2  C    0.039021
     3  O   -0.280952
     4  H    0.035686
     5  H    0.046743
     6  H    0.005348
     7  N   -0.125849
     8  C    0.101934
     9  C    0.057241
    10  O   -0.285668
    11  C    0.052890
    12  C    0.171848
    13  O   -0.459468
    14  O   -0.390666
    15  H    0.115024
    16  H   -0.000555
    17  H    0.016306
    18  H    0.005470
    19  N   -0.139486
    20  C    0.161103
    21  C    0.052922
    22  O   -0.302509
    23  C    0.057558
    24  C    0.032375
    25  C   -0.097858
    26  C    0.068998
    27  N    0.080575
    28  H    0.141502
    29  H   -0.005049
    30  H    0.007814
    31  H    0.010367
    32  H    0.022591
    33  H   -0.018963
    34  H    0.023414
    35  H    0.073430
    36  H    0.060549
    37  H    0.090504
    38  H    0.185283
    39  H    0.181985
    40  H    0.186411
    41  N   -0.172859
    42  C    0.190111
    43  C    0.056756
    44  O   -0.303439
    45  C    0.054180
    46  C    0.098940
    47  O   -0.448357
    48  O   -0.380141
    49  H    0.150902
    50  H   -0.005610
    51  H   -0.026459
    52  H    0.014669
    53  N   -0.147212
    54  C    0.204551
    55  C    0.064821
    56  O   -0.283414
    57  H    0.135178
    58  H    0.015712
    59  H    0.024673
    60  N   -0.154681
    61  C    0.155800
    62  C    0.013490
    63  O   -0.318646
    64  C    0.128928
    65  C    0.007300
    66  N   -0.000976
    67  O   -0.365820
    68  H    0.134077
    69  H    0.032258
    70  H    0.093323
    71  H   -0.016583
    72  H    0.144435
    73  H    0.119720
    74  N   -0.161904
    75  C    0.230616
    76  C    0.022701
    77  O   -0.294363
    78  H    0.141232
    79  H    0.039050
    80  H    0.031866
    81  N   -0.132459
    82  C    0.110787
    83  C    0.133163
    84  O   -0.318109
    85  C    0.100542
    86  C    0.018548
    87  C   -0.018084
    88  C    0.006552
    89  C   -0.013305
    90  C   -0.049751
    91  C    0.159361
    92  O   -0.188973
    93  H    0.144221
    94  H   -0.006625
    95  H   -0.022455
    96  H   -0.032725
    97  H   -0.044087
    98  H   -0.013362
    99  H   -0.029981
   100  H   -0.035172
   101  H    0.166371
   102  N   -0.130893
   103  C    0.132073
   104  C    0.076624
   105  O   -0.299778
   106  C   -0.117691
   107  C    0.007347
   108  C    0.086263
   109  C    0.038094
   110  H    0.131207
   111  H    0.039285
   112  H   -0.029515
   113  H    0.012334
   114  H    0.023306
   115  H   -0.006380
   116  H   -0.002002
   117  H    0.040831
   118  H   -0.007139
   119  H   -0.015703
   120  H    0.012276
   121  N   -0.129227
   122  C    0.116609
   123  C    0.106276
   124  O   -0.271988
   125  C    0.222520
   126  O   -0.291035
   127  H    0.163696
   128  H    0.009035
   129  H   -0.002720
   130  H   -0.027825
   131  H    0.163827
   132  N   -0.136134
   133  C    0.062562
   134  C    0.080150
   135  O   -0.256289
   136  C    0.042812
   137  H    0.114085
   138  H    0.022459
   139  H    0.052346
   140  H    0.037700
   141  H   -0.004030
   142  N   -0.146143
   143  C    0.102416
   144  C    0.066330
   145  O   -0.267757
   146  C    0.020474
   147  H    0.105749
   148  H    0.023174
   149  H   -0.005916
   150  H    0.027244
   151  H    0.034221
   152  N   -0.186937
   153  C    0.165314
   154  C    0.111018
   155  O   -0.279614
   156  C   -0.086637
   157  C    0.175841
   158  C    0.087341
   159  O   -0.393344
   160  O   -0.413263
   161  H    0.150697
   162  H   -0.027175
   163  H    0.045238
   164  H    0.017983
   165  H   -0.059884
   166  H   -0.037137
   167  N   -0.179474
   168  C    0.117643
   169  H    0.025098
   170  H    0.040469
   171  H    0.004748
   172  H    0.125441
   173  Ca   1.297264
   174  O   -0.282838
   175  H    0.176865
   176  H    0.199488
 Sum of Mulliken charges =  -0.00000

 Dipole moment (field-independent basis, Debye):
    X=             32.9199    Y=             -7.4198    Z=            -18.3042  Tot=             38.3903
 Quadrupole moment (field-independent basis, Debye-Ang):
   XX=           -574.5874   YY=           -479.4431   ZZ=           -507.2776
   XY=            131.7179   XZ=            -67.8816   YZ=            -14.5317

 ESP charges:
               1
     1  C   -0.489374
     2  C    0.872689
     3  O   -0.657320
     4  H    0.135198
     5  H    0.142213
     6  H    0.096244
     7  N   -0.761505
     8  C    0.136476
     9  C    0.592120
    10  O   -0.577193
    11  C   -0.436717
    12  C    1.047282
    13  O   -0.985079
    14  O   -0.743212
    15  H    0.380119
    16  H    0.095781
    17  H    0.122173
    18  H    0.086343
    19  N    0.018110
    20  C   -0.758339
    21  C    0.747888
    22  O   -0.597640
    23  C    0.291878
    24  C   -0.177122
    25  C    0.006407
    26  C    0.019069
    27  N   -0.348973
    28  H    0.235780
    29  H    0.214644
    30  H    0.001400
    31  H    0.044035
    32  H    0.085582
    33  H    0.034873
    34  H    0.000977
    35  H    0.055218
    36  H    0.075581
    37  H    0.101079
    38  H    0.330446
    39  H    0.324135
    40  H    0.321468
    41  N   -0.501943
    42  C    0.142881
    43  C    0.422793
    44  O   -0.539254
    45  C   -0.245432
    46  C    0.836042
    47  O   -0.888845
    48  O   -0.726920
    49  H    0.449514
    50  H    0.070900
    51  H    0.036512
    52  H    0.069572
    53  N   -0.249246
    54  C    0.027590
    55  C    0.447992
    56  O   -0.556414
    57  H    0.130747
    58  H    0.070773
    59  H    0.041560
    60  N   -0.127195
    61  C   -0.109813
    62  C    0.529844
    63  O   -0.572824
    64  C   -0.177866
    65  C    0.386615
    66  N   -0.731809
    67  O   -0.361470
    68  H    0.144082
    69  H    0.139861
    70  H    0.152558
    71  H    0.075031
    72  H    0.405563
    73  H    0.358152
    74  N   -0.338359
    75  C   -0.094669
    76  C    0.548390
    77  O   -0.562526
    78  H    0.297008
    79  H    0.118141
    80  H    0.082889
    81  N   -0.347465
    82  C    0.152594
    83  C    0.531245
    84  O   -0.487690
    85  C   -0.074461
    86  C    0.174264
    87  C   -0.242429
    88  C   -0.218035
    89  C   -0.247537
    90  C   -0.316241
    91  C    0.415715
    92  O   -0.562062
    93  H    0.129054
    94  H    0.037593
    95  H    0.028910
    96  H   -0.078645
    97  H    0.135241
    98  H    0.233290
    99  H    0.161214
   100  H    0.143521
   101  H    0.407671
   102  N   -0.639952
   103  C   -0.039372
   104  C    0.735932
   105  O   -0.587049
   106  C    0.161715
   107  C    0.197317
   108  C   -0.301167
   109  C   -0.373425
   110  H    0.346022
   111  H    0.059401
   112  H    0.000682
   113  H    0.009499
   114  H    0.011438
   115  H    0.093733
   116  H    0.069754
   117  H    0.031842
   118  H    0.071293
   119  H    0.061986
   120  H    0.096214
   121  N   -0.621796
   122  C   -0.161874
   123  C    0.857239
   124  O   -0.628854
   125  C    0.270003
   126  O   -0.622600
   127  H    0.544878
   128  H    0.067051
   129  H    0.039553
   130  H   -0.027896
   131  H    0.394864
   132  N   -0.675080
   133  C    0.230769
   134  C    0.453145
   135  O   -0.524314
   136  C   -0.418323
   137  H    0.342885
   138  H    0.068729
   139  H    0.147293
   140  H    0.135113
   141  H    0.086656
   142  N   -0.278175
   143  C    0.007426
   144  C    0.460066
   145  O   -0.537321
   146  C   -0.332398
   147  H    0.233723
   148  H    0.113312
   149  H    0.077195
   150  H    0.117878
   151  H    0.105742
   152  N   -0.036346
   153  C   -0.362402
   154  C    0.662755
   155  O   -0.554953
   156  C   -0.047410
   157  C   -0.423193
   158  C    0.862030
   159  O   -0.761375
   160  O   -0.861439
   161  H    0.049272
   162  H    0.150145
   163  H    0.114101
   164  H    0.060450
   165  H    0.069332
   166  H    0.124960
   167  N   -0.279622
   168  C   -0.220274
   169  H    0.099312
   170  H    0.113468
   171  H    0.070210
   172  H    0.306311
   173  Ca   1.605202
   174  O   -0.739358
   175  H    0.380016
   176  H    0.429150
 Sum of ESP charges =  -0.00000

 Normal termination of Gaussian 16 at Wed Sep 18 16:09:46 2019.
