 Gaussian 16, Revision A.03,
 Gaussian 16:  ES64L-G16RevA.03 25-Dec-2016

 ----------------------------------------------------------------------
 #b3lyp/svp scf=(tight,noincore) Test #IOP(5/87=12) Density=Current Pop
 =(MK,readradii) iop(6/33=2) iop(6/42=6)
 ----------------------------------------------------------------------

 -----------------
 CaMKII_loop3_44.0
 -----------------
 Symbolic Z-matrix:
 Charge =  0 Multiplicity = 1

                         Standard orientation:
 ---------------------------------------------------------------------
 Center     Atomic      Atomic             Coordinates (Angstroms)
 Number     Number       Type             X           Y           Z
 ---------------------------------------------------------------------
      1          6           0        2.332455    1.974826    5.584951
      2          6           0        1.666113    1.801390    4.224470
      3          8           0        2.430690    1.801930    3.252193
      4          1           0        3.275744    1.428636    5.599383
      5          1           0        2.523240    3.032766    5.764900
      6          1           0        1.676427    1.586199    6.363985
      7          7           0        0.350344    1.592256    4.124890
      8          6           0       -0.400902    1.683427    2.897732
      9          6           0       -0.403006    3.123813    2.425096
     10          8           0       -0.935530    4.075840    2.982199
     11          6           0       -1.794761    1.118000    3.156281
     12          6           0       -2.638052    1.110914    1.882503
     13          8           0       -2.099830    1.361382    0.785333
     14          8           0       -3.851424    0.825866    2.000299
     15          1           0       -0.187741    1.305572    4.922747
     16          1           0        0.125153    1.070599    2.157591
     17          1           0       -2.246918    1.744710    3.927183
     18          1           0       -1.701157    0.079206    3.468444
     19          7           0        0.471269    3.303576    1.420493
     20          6           0        0.918258    4.611942    0.985085
     21          6           0       -0.176532    5.406815    0.278678
     22          8           0       -0.402568    6.536902    0.679066
     23          6           0        2.124514    4.353758    0.095767
     24          6           0        2.838273    5.532584   -0.554707
     25          6           0        3.958100    5.126621   -1.511045
     26          6           0        4.800367    6.349743   -1.875821
     27          7           0        5.775186    6.038936   -2.926595
     28          1           0        0.826827    2.529284    0.883232
     29          1           0        1.215173    5.270470    1.801591
     30          1           0        1.752564    3.722133   -0.708661
     31          1           0        2.902455    3.778845    0.612375
     32          1           0        3.287800    6.152287    0.211774
     33          1           0        2.229582    6.274454   -1.062373
     34          1           0        3.432616    4.705313   -2.363375
     35          1           0        4.565060    4.326713   -1.083557
     36          1           0        5.314517    6.774678   -1.010905
     37          1           0        4.130687    7.179744   -2.114204
     38          1           0        5.198074    5.748621   -3.704258
     39          1           0        6.264314    6.876952   -3.228229
     40          1           0        6.447983    5.334125   -2.657921
     41          7           0       -0.822875    4.750922   -0.694331
     42          6           0       -2.010708    5.288380   -1.330878
     43          6           0       -3.328351    4.953820   -0.641177
     44          8           0       -4.363873    5.487533   -1.060038
     45          6           0       -2.151828    4.725542   -2.733875
     46          6           0       -2.002782    3.221148   -2.952695
     47          8           0       -2.175842    2.516169   -1.936007
     48          8           0       -1.751147    2.819287   -4.104037
     49          1           0       -0.591974    3.792680   -0.917389
     50          1           0       -1.909235    6.365447   -1.319498
     51          1           0       -1.452012    5.229653   -3.416977
     52          1           0       -3.105485    5.036382   -3.157805
     53          7           0       -3.318606    4.201031    0.458556
     54          6           0       -4.496916    3.915115    1.259704
     55          6           0       -5.467092    3.013853    0.518700
     56          8           0       -6.618939    2.942636    0.948090
     57          1           0       -2.388598    3.890628    0.718046
     58          1           0       -5.050412    4.846345    1.327187
     59          1           0       -4.227024    3.419587    2.193786
     60          7           0       -5.040333    2.340926   -0.563680
     61          6           0       -5.961912    1.562867   -1.359995
     62          6           0       -6.514723    0.300428   -0.707349
     63          8           0       -7.237272   -0.428732   -1.386206
     64          6           0       -5.385790    1.138333   -2.705229
     65          6           0       -4.525289   -0.119250   -2.680296
     66          7           0       -4.812093   -1.120008   -3.516194
     67          8           0       -3.585659   -0.121255   -1.897166
     68          1           0       -4.139849    2.632710   -0.901602
     69          1           0       -6.823155    2.163930   -1.649277
     70          1           0       -4.848169    2.004137   -3.090387
     71          1           0       -6.293314    0.906555   -3.264943
     72          1           0       -5.675214   -1.134681   -4.026985
     73          1           0       -4.167381   -1.898539   -3.497873
     74          7           0       -6.254174    0.023241    0.576505
     75          6           0       -6.639457   -1.081543    1.421970
     76          6           0       -5.551609   -2.097186    1.740805
     77          8           0       -5.667056   -2.790713    2.750455
     78          1           0       -5.565884    0.606608    1.036113
     79          1           0       -7.477102   -1.700838    1.116318
     80          1           0       -6.872939   -0.655429    2.391977
     81          7           0       -4.407100   -2.094611    1.054444
     82          6           0       -3.378357   -3.120546    1.029040
     83          6           0       -1.982205   -2.539212    1.212917
     84          8           0       -1.681446   -1.474294    0.676267
     85          6           0       -3.399865   -3.988481   -0.218046
     86          6           0       -4.755896   -4.474468   -0.671366
     87          6           0       -5.832379   -4.734042    0.182101
     88          6           0       -4.987940   -4.619786   -2.054094
     89          6           0       -7.114881   -5.125526   -0.240190
     90          6           0       -6.256259   -4.986258   -2.518494
     91          6           0       -7.329254   -5.201262   -1.635004
     92          8           0       -8.565019   -5.551488   -2.090664
     93          1           0       -4.466879   -1.389160    0.320574
     94          1           0       -3.585469   -3.780487    1.882903
     95          1           0       -2.871232   -4.936551   -0.104426
     96          1           0       -2.948287   -3.471323   -1.064878
     97          1           0       -5.644248   -4.638694    1.237760
     98          1           0       -4.244590   -4.306409   -2.762209
     99          1           0       -7.931776   -5.249433    0.458329
    100          1           0       -6.386156   -5.042839   -3.588506
    101          1           0       -8.626305   -5.542395   -3.046311
    102          7           0       -1.032069   -3.308165    1.757760
    103          6           0        0.358614   -2.937376    1.838483
    104          6           0        1.211197   -3.773769    0.892676
    105          8           0        0.968695   -4.980290    0.823393
    106          6           0        0.957284   -3.012493    3.249387
    107          6           0        0.095909   -2.157492    4.181913
    108          6           0        2.434629   -2.647192    3.234927
    109          6           0        0.307569   -2.310338    5.679891
    110          1           0       -1.248707   -4.120965    2.313389
    111          1           0        0.403394   -1.879526    1.581877
    112          1           0        0.935808   -4.061668    3.540368
    113          1           0       -0.943798   -2.298901    3.866455
    114          1           0        0.377274   -1.171456    3.841225
    115          1           0        2.522045   -1.680092    2.725050
    116          1           0        2.892768   -2.472163    4.200884
    117          1           0        2.981069   -3.398170    2.664195
    118          1           0        1.389456   -2.285858    5.780993
    119          1           0       -0.163439   -1.465805    6.196239
    120          1           0       -0.097196   -3.273351    6.014061
    121          7           0        2.231652   -3.207541    0.249980
    122          6           0        2.942939   -3.997351   -0.725249
    123          6           0        4.419880   -3.692385   -0.500210
    124          8           0        4.744749   -2.820317    0.295816
    125          6           0        2.544650   -3.510826   -2.114011
    126          8           0        2.963411   -2.179840   -2.303265
    127          1           0        2.482611   -2.234366    0.378238
    128          1           0        2.754805   -5.068930   -0.641447
    129          1           0        1.455969   -3.634694   -2.176696
    130          1           0        2.970506   -4.187372   -2.854505
    131          1           0        2.400806   -1.619850   -1.763555
    132          7           0        5.310529   -4.548607   -1.024641
    133          6           0        6.718101   -4.573002   -0.695635
    134          6           0        7.365567   -3.242865   -1.060084
    135          8           0        8.213264   -2.762660   -0.315966
    136          6           0        7.326882   -5.758504   -1.434601
    137          1           0        4.903227   -5.259272   -1.607702
    138          1           0        6.908437   -4.677409    0.379851
    139          1           0        7.235402   -5.740425   -2.523318
    140          1           0        8.360888   -5.946962   -1.148391
    141          1           0        6.782079   -6.631690   -1.077619
    142          7           0        6.929697   -2.564117   -2.116975
    143          6           0        7.536023   -1.313374   -2.535315
    144          6           0        7.226842   -0.095876   -1.678807
    145          8           0        8.105256    0.683434   -1.318996
    146          6           0        7.019347   -1.164636   -3.965114
    147          1           0        6.235533   -2.982051   -2.724896
    148          1           0        8.621303   -1.399862   -2.629596
    149          1           0        7.329192   -1.892536   -4.715818
    150          1           0        5.944393   -1.017083   -3.942698
    151          1           0        7.421882   -0.202947   -4.277074
    152          7           0        6.024374   -0.100790   -1.115471
    153          6           0        5.623408    0.902537   -0.136870
    154          6           0        6.277771    0.578617    1.197254
    155          8           0        6.502380    1.481246    1.989537
    156          6           0        4.106759    0.883884    0.020385
    157          6           0        3.173302    1.121689   -1.166800
    158          6           0        1.752875    0.682461   -0.849362
    159          8           0        1.409476   -0.509428   -0.981935
    160          8           0        0.865523    1.544764   -0.657425
    161          1           0        5.439894   -0.928155   -1.164970
    162          1           0        5.992253    1.888765   -0.414730
    163          1           0        3.910677    1.673199    0.736648
    164          1           0        3.781955   -0.028467    0.523195
    165          1           0        3.557036    0.631519   -2.062502
    166          1           0        3.232611    2.195439   -1.335450
    167          7           0        6.549659   -0.688945    1.545196
    168          6           0        7.217361   -1.194612    2.721238
    169          1           0        8.155847   -1.665638    2.430796
    170          1           0        7.420568   -0.371359    3.406682
    171          1           0        6.579849   -1.928887    3.214519
    172          1           0        6.228175   -1.339270    0.839275
    173         20           0       -1.183869    0.221596   -1.342860
    174          8           0       -1.370732   -2.126196   -2.415639
    175          1           0       -0.873800   -2.943874   -2.391980
    176          1           0       -1.817624   -2.139065   -3.267238
 ---------------------------------------------------------------------

 SCF Done:  E(RB3LYP) =  -5333.59679320     A.U. after   18 cycles

 The electronic state is 1-A.
 Alpha  occ. eigenvalues -- -145.37037 -19.21739 -19.15434 -19.14404 -19.14393
 Alpha  occ. eigenvalues --  -19.12400 -19.11605 -19.11572 -19.11570 -19.10950
 Alpha  occ. eigenvalues --  -19.10842 -19.10749 -19.07020 -19.06706 -19.06381
 Alpha  occ. eigenvalues --  -19.06160 -19.05674 -19.05077 -19.04538 -19.03595
 Alpha  occ. eigenvalues --  -19.02905 -19.02586 -19.02429 -19.01012 -15.42853
 Alpha  occ. eigenvalues --  -14.59172 -14.40102 -14.38237 -14.37058 -14.37053
 Alpha  occ. eigenvalues --  -14.36914 -14.36356 -14.33419 -14.32698 -14.32343
 Alpha  occ. eigenvalues --  -14.31805 -14.30589 -14.30181 -14.29353 -14.28851
 Alpha  occ. eigenvalues --  -12.56472 -12.56412 -12.56401 -10.34995 -10.32385
 Alpha  occ. eigenvalues --  -10.30736 -10.30292 -10.30078 -10.29941 -10.29333
 Alpha  occ. eigenvalues --  -10.29303 -10.27111 -10.27015 -10.26935 -10.26294
 Alpha  occ. eigenvalues --  -10.25953 -10.25792 -10.25423 -10.24736 -10.24628
 Alpha  occ. eigenvalues --  -10.24526 -10.24223 -10.23976 -10.23961 -10.23672
 Alpha  occ. eigenvalues --  -10.23399 -10.22942 -10.22619 -10.22551 -10.22184
 Alpha  occ. eigenvalues --  -10.21679 -10.21597 -10.21589 -10.20575 -10.20291
 Alpha  occ. eigenvalues --  -10.20278 -10.19926 -10.19819 -10.19659 -10.19636
 Alpha  occ. eigenvalues --  -10.19554 -10.19430 -10.19075 -10.19044 -10.18651
 Alpha  occ. eigenvalues --  -10.18634 -10.18570 -10.18035 -10.17975 -10.17873
 Alpha  occ. eigenvalues --  -10.17734 -10.17699 -10.17654 -10.17364 -10.16601
 Alpha  occ. eigenvalues --  -10.14674 -10.13790  -1.79847  -1.14273  -1.08470
 Alpha  occ. eigenvalues --   -1.08060  -1.07852  -1.07434  -1.06552  -1.06225
 Alpha  occ. eigenvalues --   -1.05279  -1.04773  -1.04226  -1.04090  -1.03930
 Alpha  occ. eigenvalues --   -1.03752  -1.03035  -1.00291  -1.00131  -0.99530
 Alpha  occ. eigenvalues --   -0.99200  -0.98517  -0.98168  -0.98088  -0.97198
 Alpha  occ. eigenvalues --   -0.96714  -0.96307  -0.96301  -0.95599  -0.95046
 Alpha  occ. eigenvalues --   -0.93910  -0.93435  -0.93131  -0.91893  -0.90127
 Alpha  occ. eigenvalues --   -0.89646  -0.89539  -0.88742  -0.88719  -0.88435
 Alpha  occ. eigenvalues --   -0.87851  -0.87231  -0.86601  -0.86321  -0.85150
 Alpha  occ. eigenvalues --   -0.84144  -0.82879  -0.82157  -0.81042  -0.80580
 Alpha  occ. eigenvalues --   -0.79356  -0.78443  -0.78071  -0.76035  -0.75593
 Alpha  occ. eigenvalues --   -0.74660  -0.74447  -0.74128  -0.73930  -0.73669
 Alpha  occ. eigenvalues --   -0.73506  -0.72868  -0.72081  -0.70620  -0.70212
 Alpha  occ. eigenvalues --   -0.70090  -0.69541  -0.68970  -0.67991  -0.67777
 Alpha  occ. eigenvalues --   -0.67078  -0.66953  -0.65499  -0.64637  -0.64228
 Alpha  occ. eigenvalues --   -0.63984  -0.63111  -0.62787  -0.62464  -0.62102
 Alpha  occ. eigenvalues --   -0.61723  -0.61383  -0.61093  -0.60825  -0.60786
 Alpha  occ. eigenvalues --   -0.60588  -0.60204  -0.59422  -0.58795  -0.58321
 Alpha  occ. eigenvalues --   -0.58182  -0.57450  -0.56394  -0.56194  -0.56096
 Alpha  occ. eigenvalues --   -0.55991  -0.55629  -0.55204  -0.55056  -0.54965
 Alpha  occ. eigenvalues --   -0.54590  -0.54344  -0.54071  -0.53906  -0.53614
 Alpha  occ. eigenvalues --   -0.53471  -0.52168  -0.51980  -0.51633  -0.51531
 Alpha  occ. eigenvalues --   -0.51024  -0.50888  -0.50391  -0.50319  -0.49775
 Alpha  occ. eigenvalues --   -0.49727  -0.49523  -0.49384  -0.48829  -0.48799
 Alpha  occ. eigenvalues --   -0.48747  -0.48400  -0.48123  -0.48022  -0.47754
 Alpha  occ. eigenvalues --   -0.47613  -0.47357  -0.47235  -0.46772  -0.46642
 Alpha  occ. eigenvalues --   -0.46572  -0.46295  -0.46140  -0.45865  -0.45824
 Alpha  occ. eigenvalues --   -0.45446  -0.45303  -0.45170  -0.45053  -0.44801
 Alpha  occ. eigenvalues --   -0.44588  -0.44416  -0.44276  -0.44065  -0.43794
 Alpha  occ. eigenvalues --   -0.43759  -0.43671  -0.43635  -0.43476  -0.43370
 Alpha  occ. eigenvalues --   -0.43114  -0.43053  -0.42800  -0.42639  -0.42371
 Alpha  occ. eigenvalues --   -0.42284  -0.41810  -0.41649  -0.41589  -0.41462
 Alpha  occ. eigenvalues --   -0.41358  -0.41245  -0.41147  -0.40925  -0.40833
 Alpha  occ. eigenvalues --   -0.40779  -0.40554  -0.40440  -0.40092  -0.40044
 Alpha  occ. eigenvalues --   -0.39848  -0.39840  -0.39718  -0.39662  -0.39639
 Alpha  occ. eigenvalues --   -0.39591  -0.39283  -0.39019  -0.38979  -0.38916
 Alpha  occ. eigenvalues --   -0.38768  -0.38415  -0.38375  -0.38080  -0.38006
 Alpha  occ. eigenvalues --   -0.37883  -0.37670  -0.37646  -0.37440  -0.37239
 Alpha  occ. eigenvalues --   -0.36915  -0.36746  -0.36721  -0.36682  -0.36544
 Alpha  occ. eigenvalues --   -0.36193  -0.36068  -0.35811  -0.35765  -0.35704
 Alpha  occ. eigenvalues --   -0.35590  -0.35364  -0.35080  -0.35047  -0.34806
 Alpha  occ. eigenvalues --   -0.34659  -0.34393  -0.33980  -0.33796  -0.33607
 Alpha  occ. eigenvalues --   -0.33557  -0.33323  -0.33253  -0.33073  -0.32647
 Alpha  occ. eigenvalues --   -0.32489  -0.32295  -0.31812  -0.31724  -0.31657
 Alpha  occ. eigenvalues --   -0.31373  -0.31192  -0.30979  -0.30439  -0.30132
 Alpha  occ. eigenvalues --   -0.29948  -0.29716  -0.29644  -0.29454  -0.29383
 Alpha  occ. eigenvalues --   -0.28322  -0.28261  -0.27592  -0.27452  -0.27168
 Alpha  occ. eigenvalues --   -0.26841  -0.26720  -0.26096  -0.25945  -0.25142
 Alpha  occ. eigenvalues --   -0.25011  -0.24607  -0.23881  -0.23633  -0.23135
 Alpha  occ. eigenvalues --   -0.23039  -0.22685  -0.22492  -0.22448  -0.21899
 Alpha  occ. eigenvalues --   -0.21464  -0.21431  -0.21306  -0.21148  -0.20702
 Alpha  occ. eigenvalues --   -0.20458  -0.19786  -0.19287  -0.18954  -0.18914
 Alpha  occ. eigenvalues --   -0.18632  -0.17827  -0.17097
 Alpha virt. eigenvalues --   -0.10842  -0.04987  -0.04644  -0.04456  -0.02512
 Alpha virt. eigenvalues --   -0.01207  -0.01172  -0.00824  -0.00384  -0.00364
 Alpha virt. eigenvalues --   -0.00146   0.00048   0.00762   0.01083   0.01418

 Mulliken charges:
               1
     1  C    0.074651
     2  C    0.027829
     3  O   -0.307982
     4  H    0.031729
     5  H    0.044569
     6  H   -0.013185
     7  N   -0.116323
     8  C    0.085341
     9  C    0.098397
    10  O   -0.272839
    11  C    0.050411
    12  C    0.157855
    13  O   -0.451726
    14  O   -0.385491
    15  H    0.117593
    16  H   -0.018418
    17  H    0.015328
    18  H   -0.002951
    19  N   -0.139454
    20  C    0.178964
    21  C    0.034237
    22  O   -0.249586
    23  C   -0.030189
    24  C    0.011576
    25  C   -0.063694
    26  C    0.003138
    27  N    0.092366
    28  H    0.146745
    29  H   -0.010762
    30  H    0.023337
    31  H    0.033074
    32  H   -0.002757
    33  H    0.016330
    34  H    0.038150
    35  H    0.048352
    36  H    0.074460
    37  H    0.077488
    38  H    0.195051
    39  H    0.193741
    40  H    0.208749
    41  N   -0.180696
    42  C    0.179399
    43  C    0.010129
    44  O   -0.306035
    45  C    0.044870
    46  C    0.091139
    47  O   -0.456052
    48  O   -0.365667
    49  H    0.148993
    50  H    0.003575
    51  H   -0.032994
    52  H    0.022485
    53  N   -0.175018
    54  C    0.321703
    55  C   -0.019573
    56  O   -0.313767
    57  H    0.156244
    58  H    0.015777
    59  H    0.044672
    60  N   -0.139726
    61  C    0.149295
    62  C    0.017894
    63  O   -0.315658
    64  C    0.079299
    65  C    0.055371
    66  N   -0.015264
    67  O   -0.353802
    68  H    0.169282
    69  H    0.025878
    70  H    0.064647
    71  H   -0.004638
    72  H    0.143423
    73  H    0.099715
    74  N   -0.140696
    75  C    0.262241
    76  C   -0.023566
    77  O   -0.307842
    78  H    0.163390
    79  H    0.033322
    80  H    0.036024
    81  N   -0.099210
    82  C    0.114870
    83  C    0.158334
    84  O   -0.338035
    85  C    0.168350
    86  C   -0.033023
    87  C   -0.000593
    88  C   -0.029762
    89  C   -0.014105
    90  C   -0.034649
    91  C    0.183556
    92  O   -0.196264
    93  H    0.141258
    94  H    0.002059
    95  H    0.015813
    96  H   -0.058249
    97  H   -0.008628
    98  H   -0.084736
    99  H   -0.011970
   100  H   -0.059044
   101  H    0.170126
   102  N   -0.116062
   103  C    0.112450
   104  C    0.080093
   105  O   -0.301106
   106  C   -0.113497
   107  C   -0.013596
   108  C    0.045777
   109  C    0.082796
   110  H    0.130572
   111  H    0.009260
   112  H   -0.023476
   113  H    0.010292
   114  H   -0.006010
   115  H    0.012892
   116  H    0.015329
   117  H    0.025409
   118  H   -0.001782
   119  H    0.015792
   120  H    0.013578
   121  N   -0.125709
   122  C    0.018924
   123  C    0.098798
   124  O   -0.281470
   125  C    0.295731
   126  O   -0.347810
   127  H    0.153458
   128  H    0.031274
   129  H   -0.030322
   130  H   -0.020962
   131  H    0.172840
   132  N   -0.124521
   133  C    0.109747
   134  C    0.049503
   135  O   -0.254149
   136  C    0.029084
   137  H    0.114632
   138  H    0.030042
   139  H    0.015749
   140  H    0.044295
   141  H    0.022987
   142  N   -0.131525
   143  C    0.109646
   144  C    0.062535
   145  O   -0.259777
   146  C    0.009000
   147  H    0.115253
   148  H    0.019213
   149  H    0.032695
   150  H    0.016608
   151  H    0.001442
   152  N   -0.170903
   153  C    0.141609
   154  C    0.046837
   155  O   -0.280067
   156  C   -0.048898
   157  C    0.143103
   158  C    0.178174
   159  O   -0.436605
   160  O   -0.425054
   161  H    0.137476
   162  H   -0.028142
   163  H    0.048291
   164  H    0.013363
   165  H    0.000895
   166  H   -0.054319
   167  N   -0.163031
   168  C    0.138951
   169  H    0.029650
   170  H    0.033750
   171  H    0.011873
   172  H    0.124557
   173  Ca   1.300456
   174  O   -0.266057
   175  H    0.200188
   176  H    0.180004
 Sum of Mulliken charges =  -0.00000

 Dipole moment (field-independent basis, Debye):
    X=             31.6022    Y=             -4.1114    Z=            -21.6321  Tot=             38.5169
 Quadrupole moment (field-independent basis, Debye-Ang):
   XX=           -601.3083   YY=           -468.5696   ZZ=           -500.9693
   XY=            139.6346   XZ=            -57.7397   YZ=            -36.7517

 ESP charges:
               1
     1  C   -0.408451
     2  C    0.777518
     3  O   -0.628387
     4  H    0.121690
     5  H    0.127684
     6  H    0.067562
     7  N   -0.710389
     8  C    0.161135
     9  C    0.586302
    10  O   -0.535384
    11  C   -0.364798
    12  C    0.860409
    13  O   -0.961013
    14  O   -0.708513
    15  H    0.363227
    16  H    0.088723
    17  H    0.104327
    18  H    0.069182
    19  N   -0.120099
    20  C   -0.337622
    21  C    0.637415
    22  O   -0.547862
    23  C    0.073344
    24  C   -0.087153
    25  C   -0.195195
    26  C    0.241098
    27  N   -0.563281
    28  H    0.122382
    29  H    0.134754
    30  H    0.039175
    31  H    0.074629
    32  H    0.036954
    33  H    0.067944
    34  H    0.071052
    35  H    0.059719
    36  H    0.055779
    37  H    0.048122
    38  H    0.363498
    39  H    0.370914
    40  H    0.398666
    41  N   -0.544704
    42  C    0.073388
    43  C    0.367748
    44  O   -0.552032
    45  C   -0.225030
    46  C    0.778606
    47  O   -0.879410
    48  O   -0.699480
    49  H    0.339151
    50  H    0.100736
    51  H    0.032360
    52  H    0.085348
    53  N    0.034189
    54  C   -0.470283
    55  C    0.812259
    56  O   -0.626351
    57  H    0.131277
    58  H    0.160204
    59  H    0.192055
    60  N   -0.823364
    61  C    0.258622
    62  C    0.321034
    63  O   -0.535489
    64  C   -0.461823
    65  C    0.743531
    66  N   -0.869980
    67  O   -0.549444
    68  H    0.571073
    69  H    0.096458
    70  H    0.191918
    71  H    0.101213
    72  H    0.417532
    73  H    0.408659
    74  N   -0.078516
    75  C   -0.309057
    76  C    0.699885
    77  O   -0.604361
    78  H    0.277809
    79  H    0.132957
    80  H    0.131614
    81  N   -0.468291
    82  C   -0.043236
    83  C    0.866921
    84  O   -0.567771
    85  C    0.049070
    86  C    0.008767
    87  C   -0.153612
    88  C   -0.098446
    89  C   -0.247451
    90  C   -0.356491
    91  C    0.415633
    92  O   -0.558427
    93  H    0.298325
    94  H    0.083881
    95  H    0.034991
    96  H   -0.058780
    97  H    0.137110
    98  H    0.086167
    99  H    0.175047
   100  H    0.139421
   101  H    0.411182
   102  N   -0.838598
   103  C    0.057550
   104  C    0.699307
   105  O   -0.582109
   106  C    0.223748
   107  C    0.093364
   108  C   -0.381819
   109  C   -0.367897
   110  H    0.365384
   111  H    0.029506
   112  H   -0.024593
   113  H    0.015399
   114  H    0.046885
   115  H    0.058473
   116  H    0.125831
   117  H    0.076187
   118  H    0.070758
   119  H    0.099736
   120  H    0.092497
   121  N   -0.461842
   122  C   -0.061668
   123  C    0.652822
   124  O   -0.515000
   125  C    0.274562
   126  O   -0.631971
   127  H    0.351011
   128  H    0.068064
   129  H   -0.040357
   130  H   -0.002648
   131  H    0.383509
   132  N   -0.550110
   133  C    0.176836
   134  C    0.497668
   135  O   -0.527743
   136  C   -0.336650
   137  H    0.300003
   138  H    0.080780
   139  H    0.090419
   140  H    0.118338
   141  H    0.101301
   142  N   -0.413770
   143  C    0.144402
   144  C    0.382388
   145  O   -0.510948
   146  C   -0.305518
   147  H    0.268796
   148  H    0.084200
   149  H    0.104237
   150  H    0.068359
   151  H    0.071446
   152  N   -0.092415
   153  C   -0.463151
   154  C    0.616357
   155  O   -0.577547
   156  C    0.334767
   157  C   -0.203391
   158  C    0.756842
   159  O   -0.724123
   160  O   -0.666528
   161  H    0.140517
   162  H    0.165899
   163  H    0.021117
   164  H   -0.112895
   165  H    0.030061
   166  H    0.001971
   167  N   -0.139232
   168  C   -0.207994
   169  H    0.094448
   170  H    0.111361
   171  H    0.072169
   172  H    0.171754
   173  Ca   1.587862
   174  O   -0.795776
   175  H    0.445564
   176  H    0.372469
 Sum of ESP charges =   0.00000

 Normal termination of Gaussian 16 at Wed Sep 18 16:10:18 2019.
