 Gaussian 16, Revision A.03,
 Gaussian 16:  ES64L-G16RevA.03 25-Dec-2016

 ----------------------------------------------------------------------
 #b3lyp/svp scf=(tight,noincore) Test #IOP(5/87=12) Density=Current Pop
 =(MK,readradii) iop(6/33=2) iop(6/42=6)
 ----------------------------------------------------------------------

 ------------------
 holoCaM_loop3_34.0
 ------------------
 Symbolic Z-matrix:
 Charge =  0 Multiplicity = 1

                         Standard orientation:
 ---------------------------------------------------------------------
 Center     Atomic      Atomic             Coordinates (Angstroms)
 Number     Number       Type             X           Y           Z
 ---------------------------------------------------------------------
      1          6           0        2.232603    1.705779    5.609475
      2          6           0        1.517977    1.507309    4.278265
      3          8           0        2.138447    1.107927    3.288309
      4          1           0        3.271817    1.978529    5.426587
      5          1           0        1.743158    2.501650    6.170478
      6          1           0        2.196238    0.779693    6.183297
      7          7           0        0.220057    1.795217    4.212599
      8          6           0       -0.519173    1.965442    2.981680
      9          6           0       -0.411416    3.382579    2.418909
     10          8           0       -1.407238    4.099938    2.510755
     11          6           0       -1.967831    1.614098    3.296716
     12          6           0       -2.762880    1.279290    2.045157
     13          8           0       -2.245848    1.383148    0.915736
     14          8           0       -3.962518    0.914474    2.093908
     15          1           0       -0.240063    1.956154    5.099441
     16          1           0       -0.137963    1.335917    2.184826
     17          1           0       -2.450402    2.236997    4.050190
     18          1           0       -1.951594    0.685919    3.866208
     19          7           0        0.710321    3.711050    1.764758
     20          6           0        0.972933    5.026971    1.215227
     21          6           0       -0.113789    5.639301    0.343741
     22          8           0       -0.439716    6.802937    0.528737
     23          6           0        2.280033    4.934513    0.432002
     24          6           0        3.024905    6.241756    0.142375
     25          6           0        4.274022    5.829223   -0.627057
     26          6           0        5.241083    6.925497   -1.064752
     27          7           0        4.692356    7.839479   -2.070652
     28          1           0        1.500730    3.080520    1.823798
     29          1           0        0.993792    5.750786    2.033308
     30          1           0        2.073988    4.414260   -0.500834
     31          1           0        2.947552    4.328016    1.039604
     32          1           0        3.389577    6.762969    1.024844
     33          1           0        2.320669    6.831955   -0.432269
     34          1           0        4.006418    5.405289   -1.599049
     35          1           0        4.877601    5.116679   -0.052102
     36          1           0        6.222592    6.565073   -1.387450
     37          1           0        5.382010    7.532738   -0.170550
     38          1           0        4.049051    8.513572   -1.689394
     39          1           0        5.415473    8.478805   -2.378001
     40          1           0        4.328567    7.427159   -2.916495
     41          7           0       -0.643357    4.897147   -0.631433
     42          6           0       -1.705066    5.326993   -1.528878
     43          6           0       -3.129760    5.048617   -1.087345
     44          8           0       -4.069643    5.432698   -1.780673
     45          6           0       -1.484445    4.663060   -2.885756
     46          6           0       -1.414762    3.153074   -2.963137
     47          8           0       -1.955225    2.488420   -2.055209
     48          8           0       -0.999024    2.561571   -3.994004
     49          1           0       -0.386826    3.927407   -0.697733
     50          1           0       -1.552095    6.401713   -1.582526
     51          1           0       -0.474775    4.957951   -3.180723
     52          1           0       -2.123076    5.088433   -3.659971
     53          7           0       -3.280919    4.387944    0.056010
     54          6           0       -4.507309    4.167831    0.783691
     55          6           0       -5.555859    3.287852    0.127048
     56          8           0       -6.741709    3.626112    0.192931
     57          1           0       -2.488698    4.007189    0.568272
     58          1           0       -5.012616    5.112124    0.997174
     59          1           0       -4.197868    3.727653    1.729994
     60          7           0       -5.074420    2.300500   -0.634957
     61          6           0       -5.931347    1.497798   -1.476827
     62          6           0       -6.475039    0.242621   -0.800786
     63          8           0       -7.150846   -0.563890   -1.433656
     64          6           0       -5.228671    1.304522   -2.819433
     65          6           0       -4.146145    0.223279   -2.885392
     66          7           0       -3.666085   -0.239198   -4.044770
     67          8           0       -3.603740   -0.205695   -1.874265
     68          1           0       -4.065663    2.193059   -0.656561
     69          1           0       -6.798668    2.116831   -1.690955
     70          1           0       -4.721797    2.219014   -3.131498
     71          1           0       -5.993367    1.178100   -3.588235
     72          1           0       -3.880471    0.266891   -4.888993
     73          1           0       -2.961420   -0.938704   -3.887801
     74          7           0       -6.211715    0.053779    0.491498
     75          6           0       -6.665129   -1.114495    1.229165
     76          6           0       -5.671207   -2.242263    1.451103
     77          8           0       -6.133134   -3.345781    1.756179
     78          1           0       -5.521974    0.610584    0.970900
     79          1           0       -7.552065   -1.511570    0.727392
     80          1           0       -6.922419   -0.746642    2.216731
     81          7           0       -4.372946   -2.097203    1.212403
     82          6           0       -3.409784   -3.177591    1.114014
     83          6           0       -2.018769   -2.549081    1.144892
     84          8           0       -1.832917   -1.460983    0.597443
     85          6           0       -3.478477   -3.869934   -0.233332
     86          6           0       -4.705771   -4.673944   -0.560006
     87          6           0       -5.760433   -4.108888   -1.291715
     88          6           0       -4.761915   -6.037669   -0.222809
     89          6           0       -6.936671   -4.812597   -1.584731
     90          6           0       -5.928186   -6.744650   -0.506338
     91          6           0       -7.017565   -6.164002   -1.196194
     92          8           0       -8.158645   -6.828855   -1.512750
     93          1           0       -3.984133   -1.164977    1.178091
     94          1           0       -3.426440   -3.840924    1.978082
     95          1           0       -2.629272   -4.544422   -0.367193
     96          1           0       -3.363036   -3.053729   -0.948162
     97          1           0       -5.673794   -3.064356   -1.570727
     98          1           0       -3.865614   -6.496146    0.184922
     99          1           0       -7.804934   -4.333925   -2.014955
    100          1           0       -5.976549   -7.795442   -0.269702
    101          1           0       -8.006920   -7.751616   -1.262966
    102          7           0       -1.132667   -3.243592    1.861465
    103          6           0        0.264918   -2.844531    1.859022
    104          6           0        0.927000   -3.775146    0.852989
    105          8           0        0.699752   -4.976139    0.825163
    106          6           0        0.834195   -2.896522    3.277655
    107          6           0        0.224981   -1.780102    4.134082
    108          6           0        2.355672   -2.774867    3.376189
    109          6           0        0.127882   -2.284255    5.569805
    110          1           0       -1.377024   -4.016959    2.462958
    111          1           0        0.321287   -1.813683    1.512213
    112          1           0        0.495773   -3.875220    3.590895
    113          1           0       -0.769101   -1.450168    3.826928
    114          1           0        0.809369   -0.869017    4.097842
    115          1           0        2.657556   -2.993674    4.396232
    116          1           0        2.898040   -3.417393    2.679628
    117          1           0        2.751717   -1.777816    3.209041
    118          1           0        1.163195   -2.448720    5.859076
    119          1           0       -0.335924   -1.475383    6.135764
    120          1           0       -0.442064   -3.212154    5.595615
    121          7           0        1.818194   -3.240299    0.016741
    122          6           0        2.669008   -3.939423   -0.928533
    123          6           0        4.122077   -4.040999   -0.497753
    124          8           0        4.492880   -3.083998    0.170120
    125          6           0        2.643490   -3.156717   -2.244786
    126          8           0        2.969864   -1.795087   -2.118118
    127          1           0        1.950065   -2.244227    0.137361
    128          1           0        2.207387   -4.920185   -1.108566
    129          1           0        1.673984   -3.211212   -2.741965
    130          1           0        3.286586   -3.645950   -2.962685
    131          1           0        2.256003   -1.307286   -1.716431
    132          7           0        4.887286   -5.024907   -0.987428
    133          6           0        6.333099   -5.076835   -1.059024
    134          6           0        6.988577   -3.747602   -1.373651
    135          8           0        7.811768   -3.215710   -0.621357
    136          6           0        6.633089   -6.068661   -2.180134
    137          1           0        4.440569   -5.821575   -1.414821
    138          1           0        6.779403   -5.463767   -0.143275
    139          1           0        6.047744   -6.972090   -2.013739
    140          1           0        6.312325   -5.656787   -3.134843
    141          1           0        7.691738   -6.308489   -2.120593
    142          7           0        6.531038   -3.064067   -2.428325
    143          6           0        7.067453   -1.741430   -2.715012
    144          6           0        6.871008   -0.633976   -1.694445
    145          8           0        7.748961    0.199651   -1.496549
    146          6           0        6.570940   -1.230914   -4.062509
    147          1           0        5.790700   -3.372767   -3.032563
    148          1           0        8.117848   -1.939167   -2.916929
    149          1           0        6.588659   -1.968440   -4.862597
    150          1           0        5.565105   -0.819977   -3.960394
    151          1           0        7.125100   -0.318298   -4.277309
    152          7           0        5.708909   -0.593299   -1.039258
    153          6           0        5.543912    0.334803    0.055093
    154          6           0        6.345579   -0.117326    1.270786
    155          8           0        6.870734    0.800044    1.899867
    156          6           0        4.083392    0.296002    0.511464
    157          6           0        3.231788    1.012803   -0.528857
    158          6           0        1.733753    0.731742   -0.443434
    159          8           0        1.282361   -0.422456   -0.588602
    160          8           0        0.934698    1.676381   -0.311267
    161          1           0        5.050563   -1.344150   -1.133613
    162          1           0        5.865219    1.282379   -0.356322
    163          1           0        4.030022    0.778032    1.482288
    164          1           0        3.744854   -0.745633    0.465762
    165          1           0        3.516913    0.719278   -1.530579
    166          1           0        3.339390    2.090857   -0.449349
    167          7           0        6.517392   -1.410456    1.550957
    168          6           0        7.165452   -1.923457    2.738369
    169          1           0        8.225298   -1.671291    2.711198
    170          1           0        6.709115   -1.478988    3.623080
    171          1           0        7.051363   -3.006421    2.775731
    172          1           0        6.045946   -2.048344    0.919658
    173         20           0       -1.115429    0.364496   -1.150396
    174          8           0        0.393435    0.389609   -3.243647
    175          1           0        0.316034   -0.150299   -4.033779
    176          1           0        0.346875    1.289408   -3.569674
 ---------------------------------------------------------------------

 SCF Done:  E(RB3LYP) =  -5333.62119389     A.U. after   21 cycles

 The electronic state is 1-A.
 Alpha  occ. eigenvalues -- -145.35642 -19.15256 -19.13730 -19.13399 -19.13087
 Alpha  occ. eigenvalues --  -19.11891 -19.11067 -19.10579 -19.09800 -19.09739
 Alpha  occ. eigenvalues --  -19.09238 -19.09088 -19.08721 -19.08354 -19.07910
 Alpha  occ. eigenvalues --  -19.06298 -19.05221 -19.05021 -19.05012 -19.04115
 Alpha  occ. eigenvalues --  -19.03923 -19.03881 -19.03652 -19.02304 -15.41451
 Alpha  occ. eigenvalues --  -14.59764 -14.39655 -14.37257 -14.36562 -14.35850
 Alpha  occ. eigenvalues --  -14.35502 -14.35283 -14.34895 -14.33859 -14.33014
 Alpha  occ. eigenvalues --  -14.31568 -14.30592 -14.30208 -14.29487 -14.28903
 Alpha  occ. eigenvalues --  -12.55063 -12.55019 -12.55002 -10.35920 -10.31608
 Alpha  occ. eigenvalues --  -10.30006 -10.29399 -10.29120 -10.28695 -10.28311
 Alpha  occ. eigenvalues --  -10.27759 -10.27668 -10.27414 -10.27325 -10.26722
 Alpha  occ. eigenvalues --  -10.26328 -10.25638 -10.25447 -10.25369 -10.25011
 Alpha  occ. eigenvalues --  -10.24096 -10.23920 -10.23768 -10.23327 -10.23300
 Alpha  occ. eigenvalues --  -10.23197 -10.22951 -10.22827 -10.22493 -10.22489
 Alpha  occ. eigenvalues --  -10.22274 -10.21638 -10.21556 -10.21466 -10.20709
 Alpha  occ. eigenvalues --  -10.20458 -10.19828 -10.19816 -10.19715 -10.19452
 Alpha  occ. eigenvalues --  -10.19433 -10.18322 -10.17503 -10.17417 -10.17414
 Alpha  occ. eigenvalues --  -10.17401 -10.17243 -10.17062 -10.16919 -10.16898
 Alpha  occ. eigenvalues --  -10.16889 -10.16463 -10.16077 -10.15911 -10.15520
 Alpha  occ. eigenvalues --  -10.15036 -10.14880  -1.78541  -1.15213  -1.06778
 Alpha  occ. eigenvalues --   -1.06667  -1.06195  -1.06125  -1.04336  -1.04189
 Alpha  occ. eigenvalues --   -1.04053  -1.03672  -1.02914  -1.02700  -1.02466
 Alpha  occ. eigenvalues --   -1.02318  -1.01797  -1.01528  -1.01379  -1.01195
 Alpha  occ. eigenvalues --   -1.00457  -0.98307  -0.98261  -0.97891  -0.97608
 Alpha  occ. eigenvalues --   -0.97026  -0.96737  -0.95987  -0.93741  -0.93616
 Alpha  occ. eigenvalues --   -0.93386  -0.92640  -0.92325  -0.91733  -0.90881
 Alpha  occ. eigenvalues --   -0.90623  -0.90129  -0.90095  -0.89847  -0.87890
 Alpha  occ. eigenvalues --   -0.87813  -0.87554  -0.87249  -0.86555  -0.85320
 Alpha  occ. eigenvalues --   -0.83543  -0.82131  -0.81564  -0.81269  -0.78853
 Alpha  occ. eigenvalues --   -0.78268  -0.77828  -0.77091  -0.76825  -0.76395
 Alpha  occ. eigenvalues --   -0.75615  -0.75168  -0.74712  -0.73778  -0.72501
 Alpha  occ. eigenvalues --   -0.72091  -0.71181  -0.71115  -0.70682  -0.69864
 Alpha  occ. eigenvalues --   -0.69568  -0.69181  -0.68883  -0.67705  -0.67518
 Alpha  occ. eigenvalues --   -0.66825  -0.65662  -0.65389  -0.65308  -0.64240
 Alpha  occ. eigenvalues --   -0.64122  -0.63057  -0.62815  -0.62522  -0.61885
 Alpha  occ. eigenvalues --   -0.61609  -0.61071  -0.60447  -0.60146  -0.58987
 Alpha  occ. eigenvalues --   -0.58679  -0.58296  -0.58085  -0.57859  -0.57767
 Alpha  occ. eigenvalues --   -0.57289  -0.56749  -0.55988  -0.55949  -0.55667
 Alpha  occ. eigenvalues --   -0.55369  -0.54880  -0.54823  -0.54466  -0.54338
 Alpha  occ. eigenvalues --   -0.54249  -0.53937  -0.53770  -0.53561  -0.53211
 Alpha  occ. eigenvalues --   -0.52931  -0.52626  -0.52474  -0.51699  -0.51222
 Alpha  occ. eigenvalues --   -0.51066  -0.50668  -0.50378  -0.50277  -0.49982
 Alpha  occ. eigenvalues --   -0.49699  -0.49413  -0.48931  -0.48765  -0.48446
 Alpha  occ. eigenvalues --   -0.48055  -0.48022  -0.47935  -0.47600  -0.47422
 Alpha  occ. eigenvalues --   -0.47104  -0.46941  -0.46479  -0.46439  -0.46300
 Alpha  occ. eigenvalues --   -0.46116  -0.45875  -0.45712  -0.45397  -0.45278
 Alpha  occ. eigenvalues --   -0.44996  -0.44690  -0.44439  -0.44048  -0.44001
 Alpha  occ. eigenvalues --   -0.43883  -0.43855  -0.43618  -0.43532  -0.43437
 Alpha  occ. eigenvalues --   -0.43276  -0.43187  -0.42863  -0.42786  -0.42732
 Alpha  occ. eigenvalues --   -0.42353  -0.42217  -0.42133  -0.42000  -0.41764
 Alpha  occ. eigenvalues --   -0.41681  -0.41660  -0.41574  -0.41432  -0.41363
 Alpha  occ. eigenvalues --   -0.41210  -0.41059  -0.40878  -0.40704  -0.40591
 Alpha  occ. eigenvalues --   -0.40384  -0.40315  -0.40199  -0.40072  -0.40044
 Alpha  occ. eigenvalues --   -0.39821  -0.39647  -0.39560  -0.39460  -0.39320
 Alpha  occ. eigenvalues --   -0.39114  -0.38995  -0.38969  -0.38814  -0.38659
 Alpha  occ. eigenvalues --   -0.38440  -0.38332  -0.38271  -0.38186  -0.37979
 Alpha  occ. eigenvalues --   -0.37889  -0.37713  -0.37657  -0.37603  -0.37363
 Alpha  occ. eigenvalues --   -0.37132  -0.36821  -0.36713  -0.36300  -0.36266
 Alpha  occ. eigenvalues --   -0.36098  -0.35874  -0.35817  -0.35518  -0.35449
 Alpha  occ. eigenvalues --   -0.35330  -0.35145  -0.34855  -0.34386  -0.34336
 Alpha  occ. eigenvalues --   -0.34100  -0.34050  -0.33686  -0.33649  -0.33513
 Alpha  occ. eigenvalues --   -0.33308  -0.33147  -0.32922  -0.32580  -0.32454
 Alpha  occ. eigenvalues --   -0.32287  -0.31860  -0.31675  -0.31415  -0.30921
 Alpha  occ. eigenvalues --   -0.30675  -0.30581  -0.30416  -0.30159  -0.29894
 Alpha  occ. eigenvalues --   -0.28383  -0.28264  -0.28071  -0.27873  -0.27819
 Alpha  occ. eigenvalues --   -0.27530  -0.27413  -0.26899  -0.26654  -0.26481
 Alpha  occ. eigenvalues --   -0.26339  -0.26190  -0.25876  -0.25572  -0.25482
 Alpha  occ. eigenvalues --   -0.25055  -0.24675  -0.24324  -0.24059  -0.23749
 Alpha  occ. eigenvalues --   -0.23572  -0.23543  -0.23133  -0.22408  -0.22295
 Alpha  occ. eigenvalues --   -0.22074  -0.22056  -0.21613  -0.21423  -0.20762
 Alpha  occ. eigenvalues --   -0.20707  -0.20439  -0.20338  -0.18949  -0.18904
 Alpha  occ. eigenvalues --   -0.18787  -0.18170  -0.17898
 Alpha virt. eigenvalues --   -0.11582  -0.05913  -0.05423  -0.02342  -0.02032
 Alpha virt. eigenvalues --   -0.01390  -0.00433   0.00394   0.00568   0.00892
 Alpha virt. eigenvalues --    0.01493   0.01880   0.01929   0.02004   0.02087

 Mulliken charges:
               1
     1  C    0.066773
     2  C    0.023338
     3  O   -0.309196
     4  H    0.042575
     5  H    0.009584
     6  H    0.036403
     7  N   -0.121383
     8  C    0.088147
     9  C    0.089868
    10  O   -0.279944
    11  C    0.079025
    12  C    0.157452
    13  O   -0.450720
    14  O   -0.391511
    15  H    0.120190
    16  H    0.033555
    17  H    0.007984
    18  H   -0.016783
    19  N   -0.099164
    20  C    0.178569
    21  C    0.025402
    22  O   -0.266913
    23  C   -0.033447
    24  C    0.035397
    25  C   -0.052165
    26  C    0.052726
    27  N    0.077026
    28  H    0.141313
    29  H   -0.002732
    30  H    0.035904
    31  H    0.015581
    32  H    0.014656
    33  H    0.006017
    34  H    0.015889
    35  H    0.075468
    36  H    0.086655
    37  H    0.053167
    38  H    0.191597
    39  H    0.183941
    40  H    0.192260
    41  N   -0.174062
    42  C    0.144887
    43  C    0.087468
    44  O   -0.286132
    45  C    0.071855
    46  C    0.104933
    47  O   -0.459427
    48  O   -0.408308
    49  H    0.149223
    50  H    0.001225
    51  H   -0.038635
    52  H    0.037821
    53  N   -0.152799
    54  C    0.213745
    55  C    0.035307
    56  O   -0.290620
    57  H    0.153097
    58  H    0.009345
    59  H    0.030136
    60  N   -0.186074
    61  C    0.181938
    62  C    0.060686
    63  O   -0.304623
    64  C    0.057761
    65  C    0.058575
    66  N   -0.021368
    67  O   -0.352619
    68  H    0.162043
    69  H    0.022571
    70  H    0.055413
    71  H    0.018085
    72  H    0.131914
    73  H    0.116350
    74  N   -0.149939
    75  C    0.229245
    76  C    0.027009
    77  O   -0.309932
    78  H    0.145639
    79  H    0.040621
    80  H    0.017011
    81  N   -0.132318
    82  C    0.167101
    83  C    0.099212
    84  O   -0.351273
    85  C    0.112142
    86  C    0.008376
    87  C    0.016668
    88  C   -0.007696
    89  C   -0.016687
    90  C   -0.028540
    91  C    0.150700
    92  O   -0.190263
    93  H    0.150155
    94  H   -0.020029
    95  H   -0.010659
    96  H   -0.013572
    97  H   -0.015016
    98  H   -0.045337
    99  H   -0.019433
   100  H   -0.063294
   101  H    0.167799
   102  N   -0.118972
   103  C    0.100215
   104  C    0.053643
   105  O   -0.287685
   106  C   -0.076439
   107  C   -0.013545
   108  C    0.061969
   109  C    0.047265
   110  H    0.138340
   111  H    0.025864
   112  H   -0.024361
   113  H    0.008435
   114  H    0.014278
   115  H   -0.006236
   116  H    0.015531
   117  H    0.029992
   118  H   -0.001196
   119  H    0.002058
   120  H    0.009085
   121  N   -0.135236
   122  C    0.085356
   123  C    0.121068
   124  O   -0.277143
   125  C    0.259208
   126  O   -0.340489
   127  H    0.152913
   128  H    0.007672
   129  H   -0.004678
   130  H   -0.042485
   131  H    0.180616
   132  N   -0.106049
   133  C    0.102541
   134  C    0.063910
   135  O   -0.243569
   136  C    0.023354
   137  H    0.126174
   138  H    0.020227
   139  H    0.017545
   140  H    0.009734
   141  H    0.043389
   142  N   -0.149749
   143  C    0.105894
   144  C    0.076993
   145  O   -0.277281
   146  C    0.031271
   147  H    0.115486
   148  H    0.008233
   149  H    0.014781
   150  H    0.007728
   151  H    0.021974
   152  N   -0.175796
   153  C    0.130694
   154  C    0.052388
   155  O   -0.305924
   156  C    0.012159
   157  C    0.081074
   158  C    0.168794
   159  O   -0.467803
   160  O   -0.409988
   161  H    0.133596
   162  H   -0.025471
   163  H    0.032344
   164  H    0.015828
   165  H    0.005139
   166  H   -0.048181
   167  N   -0.146344
   168  C    0.159852
   169  H    0.025228
   170  H    0.012041
   171  H    0.004907
   172  H    0.129392
   173  Ca   1.276994
   174  O   -0.304833
   175  H    0.169523
   176  H    0.176858
 Sum of Mulliken charges =  -0.00000

 Dipole moment (field-independent basis, Debye):
    X=             32.3766    Y=             12.0939    Z=            -11.4970  Tot=             36.4237
 Quadrupole moment (field-independent basis, Debye-Ang):
   XX=           -700.3360   YY=           -347.7073   ZZ=           -492.3151
   XY=            147.3686   XZ=            -55.5695   YZ=            -34.5663

 ESP charges:
               1
     1  C   -0.430034
     2  C    0.791256
     3  O   -0.646077
     4  H    0.138320
     5  H    0.091300
     6  H    0.121836
     7  N   -0.821694
     8  C    0.229905
     9  C    0.560297
    10  O   -0.502047
    11  C   -0.238111
    12  C    0.754308
    13  O   -0.736337
    14  O   -0.698067
    15  H    0.394765
    16  H    0.064789
    17  H    0.093489
    18  H    0.052371
    19  N   -0.284247
    20  C   -0.265462
    21  C    0.617783
    22  O   -0.568810
    23  C    0.037357
    24  C   -0.131835
    25  C    0.043639
    26  C    0.041026
    27  N   -0.327313
    28  H    0.243989
    29  H    0.116196
    30  H    0.046244
    31  H    0.095342
    32  H    0.061229
    33  H    0.032737
    34  H    0.012378
    35  H    0.053163
    36  H    0.080953
    37  H    0.063130
    38  H    0.319387
    39  H    0.306342
    40  H    0.337644
    41  N   -0.272704
    42  C   -0.059029
    43  C    0.438579
    44  O   -0.532182
    45  C   -0.188972
    46  C    0.736138
    47  O   -0.578696
    48  O   -0.730905
    49  H    0.172870
    50  H    0.107108
    51  H    0.001976
    52  H    0.097801
    53  N   -0.079781
    54  C   -0.066124
    55  C    0.497341
    56  O   -0.568052
    57  H    0.050539
    58  H    0.068405
    59  H    0.066973
    60  N   -0.158720
    61  C   -0.264262
    62  C    0.511003
    63  O   -0.546413
    64  C   -0.050850
    65  C    0.553215
    66  N   -0.789653
    67  O   -0.508995
    68  H    0.110168
    69  H    0.187005
    70  H    0.095661
    71  H    0.054618
    72  H    0.385704
    73  H    0.373149
    74  N   -0.252311
    75  C   -0.315056
    76  C    0.661093
    77  O   -0.545740
    78  H    0.297252
    79  H    0.175266
    80  H    0.117560
    81  N   -0.639818
    82  C    0.442719
    83  C    0.622646
    84  O   -0.533725
    85  C   -0.225024
    86  C    0.222990
    87  C   -0.371904
    88  C   -0.241320
    89  C   -0.155169
    90  C   -0.206422
    91  C    0.303394
    92  O   -0.515594
    93  H    0.320363
    94  H   -0.046808
    95  H    0.041134
    96  H    0.029748
    97  H    0.238643
    98  H    0.137582
    99  H    0.158983
   100  H    0.103564
   101  H    0.380705
   102  N   -0.781877
   103  C   -0.280608
   104  C    0.904096
   105  O   -0.600847
   106  C    0.100543
   107  C    0.313736
   108  C   -0.305459
   109  C   -0.454915
   110  H    0.423859
   111  H    0.106107
   112  H    0.038868
   113  H    0.010296
   114  H    0.014578
   115  H    0.072410
   116  H    0.057929
   117  H    0.103372
   118  H    0.092797
   119  H    0.087426
   120  H    0.102359
   121  N   -0.561816
   122  C   -0.164720
   123  C    0.634101
   124  O   -0.402740
   125  C    0.243863
   126  O   -0.645739
   127  H    0.335241
   128  H    0.095400
   129  H    0.030505
   130  H   -0.010341
   131  H    0.425273
   132  N   -0.618442
   133  C    0.315085
   134  C    0.430162
   135  O   -0.514857
   136  C   -0.332987
   137  H    0.326043
   138  H    0.030989
   139  H    0.101440
   140  H    0.056618
   141  H    0.107596
   142  N   -0.389869
   143  C    0.051257
   144  C    0.431324
   145  O   -0.529794
   146  C   -0.294095
   147  H    0.321353
   148  H    0.097214
   149  H    0.078242
   150  H    0.074266
   151  H    0.100247
   152  N   -0.119913
   153  C   -0.149891
   154  C    0.523005
   155  O   -0.574331
   156  C   -0.039669
   157  C    0.323508
   158  C    0.601885
   159  O   -0.626767
   160  O   -0.659067
   161  H    0.157103
   162  H    0.093992
   163  H    0.066002
   164  H   -0.098568
   165  H   -0.096318
   166  H   -0.164001
   167  N   -0.076489
   168  C   -0.282320
   169  H    0.116861
   170  H    0.092370
   171  H    0.108488
   172  H    0.112540
   173  Ca   1.404857
   174  O   -0.817317
   175  H    0.416880
   176  H    0.392864
 Sum of ESP charges =  -0.00000

 Normal termination of Gaussian 16 at Wed Sep 18 17:31:44 2019.
