 Gaussian 16, Revision A.03,
 Gaussian 16:  ES64L-G16RevA.03 25-Dec-2016

 ----------------------------------------------------------------------
 #b3lyp/svp scf=(tight,noincore) Test #IOP(5/87=12) Density=Current Pop
 =(MK,readradii) iop(6/33=2) iop(6/42=6)
 ----------------------------------------------------------------------

 ------------------
 holoCaM_loop3_47.0
 ------------------
 Symbolic Z-matrix:
 Charge =  0 Multiplicity = 1

                         Standard orientation:
 ---------------------------------------------------------------------
 Center     Atomic      Atomic             Coordinates (Angstroms)
 Number     Number       Type             X           Y           Z
 ---------------------------------------------------------------------
      1          6           0        2.091700    2.312694    5.568055
      2          6           0        1.617552    2.019681    4.151747
      3          8           0        2.335642    1.527702    3.286875
      4          1           0        2.186592    1.377668    6.119412
      5          1           0        3.059649    2.813172    5.531645
      6          1           0        1.367739    2.956043    6.068599
      7          7           0        0.314588    2.199356    3.913629
      8          6           0       -0.252501    2.159123    2.586002
      9          6           0       -0.062770    3.537840    1.964921
     10          8           0       -0.527241    4.528738    2.528204
     11          6           0       -1.741303    1.807329    2.626101
     12          6           0       -2.368964    1.520977    1.264468
     13          8           0       -3.550073    1.121063    1.331191
     14          8           0       -1.774611    1.821335    0.208045
     15          1           0       -0.181607    2.689561    4.637223
     16          1           0        0.343685    1.417198    2.062255
     17          1           0       -2.293266    2.695561    2.903194
     18          1           0       -1.964293    0.969618    3.287250
     19          7           0        0.580146    3.744573    0.820316
     20          6           0        0.957662    5.012256    0.209611
     21          6           0        0.176077    5.459156   -1.015095
     22          8           0        0.368694    6.612409   -1.412217
     23          6           0        2.455681    5.006723   -0.072009
     24          6           0        3.235665    4.958717    1.238609
     25          6           0        4.745743    5.049902    1.041252
     26          6           0        5.415997    6.293515    0.474430
     27          7           0        5.409988    7.389590    1.450691
     28          1           0        0.854262    2.928596    0.282876
     29          1           0        0.707608    5.828212    0.889602
     30          1           0        2.683454    5.934533   -0.588040
     31          1           0        2.759567    4.182419   -0.716894
     32          1           0        2.974685    3.984235    1.663431
     33          1           0        2.957634    5.803481    1.865804
     34          1           0        5.049000    4.270193    0.345271
     35          1           0        5.135133    4.975595    2.055823
     36          1           0        4.813584    6.666624   -0.358929
     37          1           0        6.456587    6.088058    0.231410
     38          1           0        6.066960    7.179658    2.185073
     39          1           0        5.609068    8.266511    0.986496
     40          1           0        4.548270    7.508971    1.968658
     41          7           0       -0.813317    4.679466   -1.446585
     42          6           0       -1.864633    5.035769   -2.373235
     43          6           0       -3.221454    5.001531   -1.699465
     44          8           0       -4.236668    5.270872   -2.340399
     45          6           0       -1.804870    4.269272   -3.686822
     46          6           0       -1.969767    2.752938   -3.657809
     47          8           0       -2.721843    2.116464   -4.413443
     48          8           0       -1.270423    2.117858   -2.833134
     49          1           0       -0.821363    3.697522   -1.197742
     50          1           0       -1.642073    6.058891   -2.690549
     51          1           0       -0.816465    4.477068   -4.104766
     52          1           0       -2.514763    4.629102   -4.432593
     53          7           0       -3.285637    4.492191   -0.465993
     54          6           0       -4.429438    4.490936    0.415946
     55          6           0       -5.413048    3.365015    0.106893
     56          8           0       -6.568771    3.505828    0.508235
     57          1           0       -2.428951    4.067759   -0.128730
     58          1           0       -4.996209    5.389180    0.191162
     59          1           0       -4.135284    4.482960    1.464140
     60          7           0       -5.083547    2.397689   -0.739457
     61          6           0       -6.084660    1.556231   -1.349965
     62          6           0       -6.770562    0.519592   -0.453572
     63          8           0       -7.811339   -0.013244   -0.821635
     64          6           0       -5.530212    0.875941   -2.598321
     65          6           0       -4.720989   -0.377249   -2.271408
     66          7           0       -4.873203   -1.550035   -2.872327
     67          8           0       -3.783450   -0.313746   -1.472104
     68          1           0       -4.097854    2.351625   -0.991427
     69          1           0       -6.915658    2.201888   -1.625590
     70          1           0       -4.974322    1.546928   -3.242730
     71          1           0       -6.360466    0.393475   -3.114853
     72          1           0       -5.400267   -1.627054   -3.737412
     73          1           0       -4.083463   -2.164615   -2.751078
     74          7           0       -6.250464    0.336587    0.761996
     75          6           0       -6.619489   -0.691680    1.718546
     76          6           0       -5.593090   -1.764325    2.051619
     77          8           0       -5.911025   -2.615249    2.892241
     78          1           0       -5.379997    0.790894    1.010779
     79          1           0       -7.484220   -1.236324    1.334094
     80          1           0       -6.780674   -0.164642    2.652168
     81          7           0       -4.393851   -1.746697    1.478804
     82          6           0       -3.443184   -2.837575    1.493550
     83          6           0       -1.985864   -2.452605    1.298828
     84          8           0       -1.638328   -1.422109    0.726119
     85          6           0       -3.870726   -3.746100    0.337959
     86          6           0       -5.267701   -4.301255    0.260109
     87          6           0       -6.225415   -3.543224   -0.432548
     88          6           0       -5.603998   -5.596946    0.644283
     89          6           0       -7.520839   -4.056617   -0.590668
     90          6           0       -6.867532   -6.167933    0.449204
     91          6           0       -7.829682   -5.386090   -0.216745
     92          8           0       -9.158287   -5.683534   -0.258396
     93          1           0       -4.161843   -0.996383    0.837165
     94          1           0       -3.556770   -3.441342    2.398627
     95          1           0       -3.135320   -4.531168    0.504832
     96          1           0       -3.669549   -3.168199   -0.559459
     97          1           0       -6.063477   -2.523195   -0.745943
     98          1           0       -4.820102   -6.084486    1.209184
     99          1           0       -8.229630   -3.493382   -1.184369
    100          1           0       -7.207821   -7.109780    0.846731
    101          1           0       -9.247963   -6.326512    0.449727
    102          7           0       -1.072140   -3.259558    1.859305
    103          6           0        0.361128   -3.140258    1.695261
    104          6           0        0.862133   -4.033144    0.575149
    105          8           0        0.331011   -5.114165    0.334935
    106          6           0        1.099711   -3.474934    2.981257
    107          6           0        0.632990   -2.594593    4.136969
    108          6           0        2.609837   -3.282123    2.839326
    109          6           0        0.467245   -1.079537    3.968049
    110          1           0       -1.414426   -4.030917    2.411524
    111          1           0        0.667627   -2.111729    1.506885
    112          1           0        0.878605   -4.512525    3.233084
    113          1           0        1.251425   -2.798144    5.020261
    114          1           0       -0.371619   -2.941973    4.347178
    115          1           0        3.145048   -3.424253    3.785078
    116          1           0        3.096607   -4.005167    2.194452
    117          1           0        2.765168   -2.290642    2.426727
    118          1           0       -0.249061   -0.686400    3.251425
    119          1           0        0.270422   -0.666885    4.949058
    120          1           0        1.461973   -0.684685    3.770037
    121          7           0        1.891941   -3.525810   -0.114205
    122          6           0        2.791957   -4.159706   -1.058209
    123          6           0        4.286639   -3.950890   -0.865021
    124          8           0        4.714764   -3.175720   -0.009790
    125          6           0        2.329479   -3.790405   -2.460254
    126          8           0        2.845327   -2.510890   -2.758990
    127          1           0        2.096625   -2.554397    0.042197
    128          1           0        2.655944   -5.218643   -0.859331
    129          1           0        1.240815   -3.827932   -2.540263
    130          1           0        2.716123   -4.487649   -3.204672
    131          1           0        2.677024   -1.925545   -2.017070
    132          7           0        5.137967   -4.625250   -1.649991
    133          6           0        6.578723   -4.611340   -1.602760
    134          6           0        7.200866   -3.222627   -1.625494
    135          8           0        8.053108   -2.946809   -0.778790
    136          6           0        7.075397   -5.529983   -2.708115
    137          1           0        4.776401   -5.346848   -2.249879
    138          1           0        6.832813   -4.962714   -0.603273
    139          1           0        6.613972   -6.514718   -2.610732
    140          1           0        6.893466   -5.083772   -3.690305
    141          1           0        8.148292   -5.751356   -2.617065
    142          7           0        6.851334   -2.269300   -2.503557
    143          6           0        7.445452   -0.953408   -2.634513
    144          6           0        7.113479   -0.076461   -1.438411
    145          8           0        7.927574    0.712702   -0.980838
    146          6           0        6.881965   -0.437235   -3.952142
    147          1           0        6.105716   -2.492801   -3.139562
    148          1           0        8.521497   -1.027370   -2.786691
    149          1           0        5.793754   -0.410420   -3.872276
    150          1           0        7.165447    0.601265   -4.156975
    151          1           0        7.145475   -1.006879   -4.842012
    152          7           0        6.035603   -0.403164   -0.712156
    153          6           0        5.549789    0.192671    0.510573
    154          6           0        6.108744   -0.502943    1.744059
    155          8           0        6.246050    0.080479    2.823025
    156          6           0        4.024378    0.093656    0.439037
    157          6           0        3.273227    0.842085   -0.663791
    158          6           0        1.834102    0.347248   -0.682606
    159          8           0        0.969069    1.247893   -0.543475
    160          8           0        1.539377   -0.836805   -0.945200
    161          1           0        5.522421   -1.160057   -1.133531
    162          1           0        5.715648    1.262876    0.374002
    163          1           0        3.590103    0.507561    1.345782
    164          1           0        3.811924   -0.971381    0.394769
    165          1           0        3.681027    0.544145   -1.633395
    166          1           0        3.380294    1.926608   -0.575776
    167          7           0        6.547484   -1.750600    1.626325
    168          6           0        7.347100   -2.451253    2.623470
    169          1           0        6.690636   -2.868417    3.387312
    170          1           0        7.902832   -3.256995    2.143161
    171          1           0        8.044791   -1.753062    3.086648
    172          1           0        6.355609   -2.244376    0.769139
    173         20           0       -1.093879   -0.079280   -1.550332
    174          8           0        0.446691   -0.633525   -3.597173
    175          1           0        0.067938   -0.874717   -4.441017
    176          1           0        1.392839   -0.673361   -3.741451
 ---------------------------------------------------------------------

 SCF Done:  E(RB3LYP) =  -5333.56811821     A.U. after   18 cycles

 The electronic state is 1-A.
 Alpha  occ. eigenvalues -- -145.38705 -19.17795 -19.15174 -19.14499 -19.14372
 Alpha  occ. eigenvalues --  -19.12757 -19.11718 -19.11076 -19.11075 -19.10774
 Alpha  occ. eigenvalues --  -19.09040 -19.08774 -19.08716 -19.07436 -19.06940
 Alpha  occ. eigenvalues --  -19.06168 -19.05107 -19.05102 -19.04782 -19.04436
 Alpha  occ. eigenvalues --  -19.03576 -19.02725 -19.02448 -19.00942 -15.44426
 Alpha  occ. eigenvalues --  -14.58217 -14.40002 -14.38188 -14.37460 -14.36815
 Alpha  occ. eigenvalues --  -14.36096 -14.34676 -14.34210 -14.32417 -14.32336
 Alpha  occ. eigenvalues --  -14.31961 -14.31935 -14.30891 -14.30033 -14.29774
 Alpha  occ. eigenvalues --  -12.58040 -12.58002 -12.57993 -10.34561 -10.33044
 Alpha  occ. eigenvalues --  -10.30886 -10.30833 -10.29746 -10.29268 -10.28521
 Alpha  occ. eigenvalues --  -10.28075 -10.27620 -10.27245 -10.26567 -10.26414
 Alpha  occ. eigenvalues --  -10.26277 -10.26184 -10.25815 -10.25482 -10.25469
 Alpha  occ. eigenvalues --  -10.24451 -10.23780 -10.23733 -10.23627 -10.23442
 Alpha  occ. eigenvalues --  -10.23252 -10.23083 -10.22959 -10.22955 -10.22639
 Alpha  occ. eigenvalues --  -10.22491 -10.22472 -10.21475 -10.21231 -10.20916
 Alpha  occ. eigenvalues --  -10.20700 -10.19991 -10.19851 -10.19797 -10.19547
 Alpha  occ. eigenvalues --  -10.19431 -10.18991 -10.18745 -10.18537 -10.18360
 Alpha  occ. eigenvalues --  -10.18220 -10.18061 -10.17806 -10.17804 -10.17764
 Alpha  occ. eigenvalues --  -10.17516 -10.17415 -10.16781 -10.16302 -10.16244
 Alpha  occ. eigenvalues --  -10.15329 -10.14226  -1.81173  -1.13740  -1.08775
 Alpha  occ. eigenvalues --   -1.08499  -1.08370  -1.07597  -1.05416  -1.05105
 Alpha  occ. eigenvalues --   -1.04679  -1.04457  -1.03816  -1.03705  -1.03679
 Alpha  occ. eigenvalues --   -1.03129  -1.02480  -1.02118  -1.00717  -0.99958
 Alpha  occ. eigenvalues --   -0.99264  -0.98572  -0.98265  -0.98087  -0.97837
 Alpha  occ. eigenvalues --   -0.97039  -0.96770  -0.96648  -0.94877  -0.94578
 Alpha  occ. eigenvalues --   -0.94017  -0.93528  -0.91897  -0.91226  -0.91073
 Alpha  occ. eigenvalues --   -0.90319  -0.89506  -0.89360  -0.88769  -0.88189
 Alpha  occ. eigenvalues --   -0.87928  -0.87731  -0.87009  -0.86100  -0.85896
 Alpha  occ. eigenvalues --   -0.83098  -0.82946  -0.82144  -0.81430  -0.79936
 Alpha  occ. eigenvalues --   -0.78553  -0.78033  -0.77700  -0.77070  -0.76048
 Alpha  occ. eigenvalues --   -0.75882  -0.74339  -0.73971  -0.73063  -0.72957
 Alpha  occ. eigenvalues --   -0.72495  -0.72057  -0.71785  -0.71023  -0.70476
 Alpha  occ. eigenvalues --   -0.70264  -0.69553  -0.68688  -0.68493  -0.68106
 Alpha  occ. eigenvalues --   -0.67962  -0.66802  -0.65171  -0.64878  -0.64383
 Alpha  occ. eigenvalues --   -0.63946  -0.63453  -0.63334  -0.62017  -0.61777
 Alpha  occ. eigenvalues --   -0.61129  -0.60907  -0.60663  -0.59963  -0.59445
 Alpha  occ. eigenvalues --   -0.59373  -0.58515  -0.58437  -0.58042  -0.57210
 Alpha  occ. eigenvalues --   -0.57070  -0.56833  -0.56699  -0.56502  -0.55822
 Alpha  occ. eigenvalues --   -0.55714  -0.55591  -0.55481  -0.55129  -0.54857
 Alpha  occ. eigenvalues --   -0.54752  -0.54261  -0.53866  -0.53638  -0.53503
 Alpha  occ. eigenvalues --   -0.53483  -0.52707  -0.52520  -0.52378  -0.52116
 Alpha  occ. eigenvalues --   -0.51782  -0.51385  -0.50819  -0.50408  -0.50227
 Alpha  occ. eigenvalues --   -0.49689  -0.49404  -0.49242  -0.48994  -0.48756
 Alpha  occ. eigenvalues --   -0.48492  -0.48444  -0.48183  -0.47885  -0.47555
 Alpha  occ. eigenvalues --   -0.47287  -0.46924  -0.46780  -0.46616  -0.46474
 Alpha  occ. eigenvalues --   -0.46293  -0.46014  -0.45694  -0.45426  -0.45322
 Alpha  occ. eigenvalues --   -0.45243  -0.45049  -0.44996  -0.44959  -0.44829
 Alpha  occ. eigenvalues --   -0.44671  -0.44579  -0.44443  -0.44191  -0.44040
 Alpha  occ. eigenvalues --   -0.43872  -0.43779  -0.43543  -0.43299  -0.43241
 Alpha  occ. eigenvalues --   -0.42970  -0.42702  -0.42471  -0.42403  -0.42141
 Alpha  occ. eigenvalues --   -0.41894  -0.41784  -0.41658  -0.41643  -0.41302
 Alpha  occ. eigenvalues --   -0.41283  -0.41178  -0.40875  -0.40781  -0.40663
 Alpha  occ. eigenvalues --   -0.40533  -0.40504  -0.40161  -0.40074  -0.39949
 Alpha  occ. eigenvalues --   -0.39875  -0.39717  -0.39607  -0.39462  -0.39380
 Alpha  occ. eigenvalues --   -0.39319  -0.39199  -0.39039  -0.38758  -0.38583
 Alpha  occ. eigenvalues --   -0.38569  -0.38420  -0.38385  -0.38325  -0.38277
 Alpha  occ. eigenvalues --   -0.38133  -0.37865  -0.37594  -0.37358  -0.37129
 Alpha  occ. eigenvalues --   -0.37024  -0.36796  -0.36750  -0.36530  -0.36293
 Alpha  occ. eigenvalues --   -0.36151  -0.36062  -0.36009  -0.35958  -0.35488
 Alpha  occ. eigenvalues --   -0.35366  -0.35161  -0.35120  -0.34965  -0.34965
 Alpha  occ. eigenvalues --   -0.34533  -0.34378  -0.34031  -0.33965  -0.33799
 Alpha  occ. eigenvalues --   -0.33578  -0.33249  -0.33121  -0.32940  -0.32869
 Alpha  occ. eigenvalues --   -0.32341  -0.32250  -0.31999  -0.31677  -0.31121
 Alpha  occ. eigenvalues --   -0.30966  -0.30806  -0.30653  -0.30582  -0.30309
 Alpha  occ. eigenvalues --   -0.29933  -0.29575  -0.29314  -0.28950  -0.28556
 Alpha  occ. eigenvalues --   -0.27892  -0.27582  -0.27435  -0.26900  -0.26666
 Alpha  occ. eigenvalues --   -0.26547  -0.26379  -0.26149  -0.25462  -0.25278
 Alpha  occ. eigenvalues --   -0.24772  -0.24712  -0.24629  -0.23880  -0.23525
 Alpha  occ. eigenvalues --   -0.23279  -0.23042  -0.22722  -0.22645  -0.22565
 Alpha  occ. eigenvalues --   -0.22334  -0.21696  -0.21622  -0.20791  -0.20460
 Alpha  occ. eigenvalues --   -0.20152  -0.20060  -0.19995  -0.19658  -0.19387
 Alpha  occ. eigenvalues --   -0.18715  -0.18465  -0.16605
 Alpha virt. eigenvalues --   -0.10375  -0.04540  -0.04180  -0.03314  -0.02487
 Alpha virt. eigenvalues --   -0.01380  -0.00882  -0.00297  -0.00190   0.00040
 Alpha virt. eigenvalues --    0.00560   0.00723   0.00977   0.01282   0.01690

 Mulliken charges:
               1
     1  C    0.081612
     2  C    0.023922
     3  O   -0.291668
     4  H    0.044836
     5  H    0.023398
     6  H   -0.000764
     7  N   -0.122410
     8  C    0.142641
     9  C    0.033818
    10  O   -0.319720
    11  C    0.080082
    12  C    0.142725
    13  O   -0.385057
    14  O   -0.449599
    15  H    0.110145
    16  H   -0.003869
    17  H    0.011463
    18  H    0.009529
    19  N   -0.142813
    20  C    0.138318
    21  C    0.079657
    22  O   -0.316585
    23  C   -0.014749
    24  C    0.029536
    25  C   -0.014502
    26  C    0.039393
    27  N    0.063379
    28  H    0.149120
    29  H    0.016157
    30  H   -0.015020
    31  H    0.013233
    32  H    0.065008
    33  H   -0.035635
    34  H    0.058028
    35  H    0.013108
    36  H    0.071819
    37  H    0.080966
    38  H    0.184523
    39  H    0.197634
    40  H    0.184695
    41  N   -0.149995
    42  C    0.110569
    43  C    0.054355
    44  O   -0.274249
    45  C    0.106970
    46  C    0.075483
    47  O   -0.354417
    48  O   -0.475406
    49  H    0.163663
    50  H    0.017148
    51  H   -0.010938
    52  H    0.005806
    53  N   -0.184201
    54  C    0.244671
    55  C    0.019302
    56  O   -0.311001
    57  H    0.139904
    58  H    0.024818
    59  H    0.033515
    60  N   -0.125369
    61  C    0.155583
    62  C    0.020664
    63  O   -0.288964
    64  C    0.123003
    65  C    0.011409
    66  N   -0.015813
    67  O   -0.362687
    68  H    0.149451
    69  H    0.030327
    70  H    0.084077
    71  H   -0.008263
    72  H    0.136665
    73  H    0.118466
    74  N   -0.163192
    75  C    0.238212
    76  C    0.002322
    77  O   -0.317430
    78  H    0.153447
    79  H    0.046728
    80  H    0.028419
    81  N   -0.124633
    82  C    0.093966
    83  C    0.152613
    84  O   -0.346875
    85  C    0.127478
    86  C    0.037868
    87  C   -0.033614
    88  C    0.014471
    89  C   -0.004086
    90  C   -0.017168
    91  C    0.118127
    92  O   -0.193322
    93  H    0.162504
    94  H   -0.001239
    95  H   -0.021881
    96  H   -0.053997
    97  H   -0.016359
    98  H   -0.042776
    99  H   -0.007774
   100  H   -0.044570
   101  H    0.167204
   102  N   -0.098335
   103  C    0.091489
   104  C    0.084442
   105  O   -0.275558
   106  C   -0.103573
   107  C    0.066366
   108  C    0.062582
   109  C   -0.046197
   110  H    0.133999
   111  H    0.026598
   112  H   -0.018950
   113  H   -0.002070
   114  H   -0.031072
   115  H    0.006881
   116  H   -0.002261
   117  H    0.026464
   118  H    0.056742
   119  H   -0.007894
   120  H    0.035034
   121  N   -0.148180
   122  C    0.040200
   123  C    0.111851
   124  O   -0.274367
   125  C    0.286160
   126  O   -0.355168
   127  H    0.155136
   128  H    0.017804
   129  H    0.005807
   130  H   -0.017369
   131  H    0.171963
   132  N   -0.114714
   133  C    0.107945
   134  C    0.040491
   135  O   -0.263222
   136  C    0.023892
   137  H    0.113899
   138  H    0.017886
   139  H    0.029341
   140  H    0.025729
   141  H    0.046008
   142  N   -0.147072
   143  C    0.113981
   144  C    0.062355
   145  O   -0.268045
   146  C    0.006485
   147  H    0.111813
   148  H    0.027972
   149  H    0.007508
   150  H    0.028742
   151  H    0.026607
   152  N   -0.163499
   153  C    0.186290
   154  C    0.105388
   155  O   -0.299919
   156  C   -0.141692
   157  C    0.145297
   158  C    0.167036
   159  O   -0.390255
   160  O   -0.443232
   161  H    0.113847
   162  H   -0.025491
   163  H    0.053612
   164  H    0.017458
   165  H   -0.029996
   166  H   -0.029581
   167  N   -0.157902
   168  C    0.145728
   169  H    0.010688
   170  H    0.014765
   171  H    0.024538
   172  H    0.136667
   173  Ca   1.303032
   174  O   -0.294442
   175  H    0.181018
   176  H    0.179177
 Sum of Mulliken charges =  -0.00000

 Dipole moment (field-independent basis, Debye):
    X=             33.5585    Y=              2.9726    Z=             -0.9871  Tot=             33.7044
 Quadrupole moment (field-independent basis, Debye-Ang):
   XX=           -630.2325   YY=           -387.2706   ZZ=           -533.6435
   XY=            163.0857   XZ=            -16.3649   YZ=             93.9412

 ESP charges:
               1
     1  C   -0.431645
     2  C    0.728376
     3  O   -0.610473
     4  H    0.137372
     5  H    0.122658
     6  H    0.088474
     7  N   -0.642928
     8  C    0.061600
     9  C    0.584898
    10  O   -0.597566
    11  C   -0.222123
    12  C    1.052003
    13  O   -0.873754
    14  O   -0.812596
    15  H    0.350827
    16  H   -0.002796
    17  H    0.069591
    18  H    0.045595
    19  N   -0.290983
    20  C   -0.243840
    21  C    0.632862
    22  O   -0.593686
    23  C    0.022365
    24  C    0.148123
    25  C   -0.185116
    26  C    0.097882
    27  N   -0.319340
    28  H    0.327060
    29  H    0.135430
    30  H    0.016985
    31  H   -0.005920
    32  H   -0.012143
    33  H   -0.026417
    34  H    0.087969
    35  H    0.047628
    36  H    0.056108
    37  H    0.077935
    38  H    0.314110
    39  H    0.312522
    40  H    0.322010
    41  N   -0.451698
    42  C    0.059268
    43  C    0.402932
    44  O   -0.516134
    45  C   -0.282566
    46  C    0.835490
    47  O   -0.714845
    48  O   -0.850345
    49  H    0.340978
    50  H    0.108843
    51  H    0.082767
    52  H    0.072254
    53  N   -0.198032
    54  C   -0.348955
    55  C    0.544115
    56  O   -0.581526
    57  H    0.193203
    58  H    0.172874
    59  H    0.155833
    60  N   -0.151012
    61  C   -0.146458
    62  C    0.492873
    63  O   -0.545904
    64  C   -0.234557
    65  C    0.619218
    66  N   -0.707443
    67  O   -0.706913
    68  H    0.253369
    69  H    0.148084
    70  H    0.152351
    71  H    0.077054
    72  H    0.359489
    73  H    0.348322
    74  N   -0.183617
    75  C   -0.285283
    76  C    0.788611
    77  O   -0.605627
    78  H    0.267577
    79  H    0.121754
    80  H    0.108973
    81  N   -0.861987
    82  C    0.390237
    83  C    0.629388
    84  O   -0.683972
    85  C   -0.365432
    86  C    0.387287
    87  C   -0.480778
    88  C   -0.254039
    89  C   -0.037504
    90  C   -0.241492
    91  C    0.252340
    92  O   -0.520072
    93  H    0.557767
    94  H    0.018924
    95  H    0.035315
    96  H    0.064618
    97  H    0.252925
    98  H    0.141667
    99  H    0.124372
   100  H    0.136297
   101  H    0.399634
   102  N   -0.604448
   103  C    0.054501
   104  C    0.515352
   105  O   -0.553819
   106  C    0.118557
   107  C   -0.139242
   108  C   -0.340753
   109  C   -0.100462
   110  H    0.344724
   111  H    0.099580
   112  H    0.020934
   113  H    0.056537
   114  H   -0.000487
   115  H    0.114591
   116  H    0.075451
   117  H    0.047814
   118  H    0.103337
   119  H    0.036451
   120  H    0.103962
   121  N   -0.048566
   122  C   -0.430380
   123  C    0.698226
   124  O   -0.511752
   125  C    0.290509
   126  O   -0.671672
   127  H    0.176742
   128  H    0.129124
   129  H    0.003329
   130  H    0.026526
   131  H    0.530301
   132  N   -0.484393
   133  C    0.155299
   134  C    0.497450
   135  O   -0.531533
   136  C   -0.353849
   137  H    0.287199
   138  H    0.067350
   139  H    0.115908
   140  H    0.093388
   141  H    0.122966
   142  N   -0.363742
   143  C    0.066391
   144  C    0.325520
   145  O   -0.517257
   146  C   -0.275329
   147  H    0.246189
   148  H    0.116689
   149  H    0.060577
   150  H    0.099383
   151  H    0.091810
   152  N    0.130238
   153  C   -0.445780
   154  C    0.594280
   155  O   -0.577993
   156  C    0.457649
   157  C   -0.654358
   158  C    1.223483
   159  O   -0.889500
   160  O   -0.969809
   161  H    0.027348
   162  H    0.128075
   163  H    0.018984
   164  H   -0.187124
   165  H    0.067011
   166  H    0.207652
   167  N   -0.170899
   168  C   -0.205120
   169  H    0.070294
   170  H    0.083349
   171  H    0.108867
   172  H    0.219582
   173  Ca   1.683313
   174  O   -0.810043
   175  H    0.415580
   176  H    0.400065
 Sum of ESP charges =  -0.00000

 Normal termination of Gaussian 16 at Wed Sep 18 19:35:50 2019.
