 Gaussian 16, Revision A.03,
 Gaussian 16:  ES64L-G16RevA.03 25-Dec-2016

 ----------------------------------------------------------------------
 #b3lyp/svp scf=(tight,noincore) Test #IOP(5/87=12) Density=Current Pop
 =(MK,readradii) iop(6/33=2) iop(6/42=6)
 ----------------------------------------------------------------------

 ------------------
 holoCaM_loop3_46.0
 ------------------
 Symbolic Z-matrix:
 Charge =  0 Multiplicity = 1

                         Standard orientation:
 ---------------------------------------------------------------------
 Center     Atomic      Atomic             Coordinates (Angstroms)
 Number     Number       Type             X           Y           Z
 ---------------------------------------------------------------------
      1          6           0        2.336789    3.378035    5.776645
      2          6           0        2.006531    3.130847    4.313112
      3          8           0        2.951760    2.892511    3.559760
      4          1           0        2.435213    2.422533    6.292515
      5          1           0        3.275097    3.929016    5.850125
      6          1           0        1.536717    3.958264    6.237239
      7          7           0        0.723393    3.149938    3.973419
      8          6           0        0.150661    3.024255    2.643087
      9          6           0        0.470849    4.299909    1.860343
     10          8           0        0.036146    5.385259    2.235106
     11          6           0       -1.352843    2.795031    2.762391
     12          6           0       -1.997695    2.301745    1.480700
     13          8           0       -3.122595    1.767402    1.627598
     14          8           0       -1.355295    2.310344    0.415548
     15          1           0        0.078718    3.397395    4.704759
     16          1           0        0.609320    2.194705    2.115377
     17          1           0       -1.866942    3.698173    3.081509
     18          1           0       -1.551466    2.059853    3.548178
     19          7           0        1.074839    4.101822    0.689336
     20          6           0        1.544793    5.222282   -0.102632
     21          6           0        0.548411    5.643427   -1.184972
     22          8           0        0.685051    6.679855   -1.833621
     23          6           0        2.897204    4.898307   -0.728831
     24          6           0        4.067135    4.766887    0.226465
     25          6           0        5.421549    5.040886   -0.410785
     26          6           0        6.510781    5.271841    0.628607
     27          7           0        7.668456    5.770091   -0.135157
     28          1           0        1.296813    3.143979    0.461161
     29          1           0        1.614814    6.121755    0.503870
     30          1           0        3.165357    5.636031   -1.490971
     31          1           0        2.693947    3.936400   -1.190591
     32          1           0        4.174368    3.793150    0.701058
     33          1           0        3.812356    5.467425    1.031283
     34          1           0        5.330693    5.774172   -1.224811
     35          1           0        5.690542    4.145911   -0.965818
     36          1           0        6.689157    4.286302    1.047527
     37          1           0        6.156520    5.960497    1.405815
     38          1           0        7.865514    5.308320   -1.015859
     39          1           0        7.538500    6.709933   -0.484311
     40          1           0        8.487719    5.950741    0.413637
     41          7           0       -0.478682    4.841284   -1.449068
     42          6           0       -1.548391    5.067259   -2.400519
     43          6           0       -2.941401    5.078517   -1.790440
     44          8           0       -3.866321    5.523448   -2.459588
     45          6           0       -1.435051    4.191730   -3.641769
     46          6           0       -2.022022    2.796032   -3.512184
     47          8           0       -2.212222    2.135870   -4.556507
     48          8           0       -2.177033    2.250656   -2.392972
     49          1           0       -0.400659    3.940881   -1.002203
     50          1           0       -1.419319    6.112778   -2.685355
     51          1           0       -0.361440    4.119404   -3.813607
     52          1           0       -1.966379    4.654527   -4.476341
     53          7           0       -3.018790    4.615993   -0.544695
     54          6           0       -4.245556    4.516211    0.231314
     55          6           0       -5.202278    3.376665   -0.097652
     56          8           0       -6.303289    3.470905    0.431494
     57          1           0       -2.158899    4.352298   -0.088677
     58          1           0       -4.861607    5.407836    0.162137
     59          1           0       -4.027858    4.489547    1.298318
     60          7           0       -4.877916    2.366421   -0.925719
     61          6           0       -5.819726    1.417302   -1.462808
     62          6           0       -6.404129    0.457255   -0.436172
     63          8           0       -7.248780   -0.355849   -0.816865
     64          6           0       -5.266779    0.656927   -2.664257
     65          6           0       -4.319397   -0.445183   -2.206086
     66          7           0       -4.225478   -1.493037   -3.020691
     67          8           0       -3.640891   -0.478715   -1.173853
     68          1           0       -3.958896    2.381330   -1.345934
     69          1           0       -6.639309    2.009230   -1.886607
     70          1           0       -4.722328    1.415844   -3.243065
     71          1           0       -6.167218    0.346124   -3.176030
     72          1           0       -4.708032   -1.656059   -3.884789
     73          1           0       -3.452037   -2.103502   -2.784847
     74          7           0       -6.071008    0.457763    0.855196
     75          6           0       -6.615591   -0.363754    1.910534
     76          6           0       -5.903597   -1.694564    2.112798
     77          8           0       -6.449614   -2.599971    2.745809
     78          1           0       -5.184862    0.880914    1.109338
     79          1           0       -7.683320   -0.519670    1.768253
     80          1           0       -6.432449    0.232787    2.804849
     81          7           0       -4.654152   -1.743282    1.666688
     82          6           0       -3.797606   -2.909578    1.675716
     83          6           0       -2.372938   -2.388888    1.541167
     84          8           0       -2.137314   -1.328397    0.945651
     85          6           0       -4.076451   -3.871130    0.522735
     86          6           0       -5.522806   -4.217208    0.283600
     87          6           0       -6.313096   -3.424704   -0.556626
     88          6           0       -6.146562   -5.379069    0.771049
     89          6           0       -7.637619   -3.741105   -0.878078
     90          6           0       -7.450715   -5.729899    0.427243
     91          6           0       -8.251334   -4.912423   -0.393757
     92          8           0       -9.555658   -5.124604   -0.709696
     93          1           0       -4.252609   -0.920300    1.234757
     94          1           0       -3.879243   -3.420623    2.638924
     95          1           0       -3.441811   -4.745129    0.662225
     96          1           0       -3.775731   -3.364658   -0.394845
     97          1           0       -5.942047   -2.488512   -0.949141
     98          1           0       -5.562138   -5.993843    1.436258
     99          1           0       -8.214075   -3.017745   -1.430390
    100          1           0       -7.913939   -6.569973    0.936654
    101          1           0       -9.853210   -6.004275   -0.475938
    102          7           0       -1.425652   -3.169320    2.049571
    103          6           0       -0.002339   -2.892725    1.945281
    104          6           0        0.565072   -3.904097    0.973596
    105          8           0        0.191066   -5.080096    0.994649
    106          6           0        0.730358   -2.767517    3.278952
    107          6           0        0.283826   -1.661065    4.223289
    108          6           0        2.244320   -2.692487    3.115891
    109          6           0        0.489691   -0.253280    3.665204
    110          1           0       -1.676481   -4.061486    2.439088
    111          1           0        0.109137   -1.889191    1.539087
    112          1           0        0.627182   -3.737879    3.771347
    113          1           0        0.672565   -1.781916    5.228862
    114          1           0       -0.799199   -1.720684    4.348203
    115          1           0        2.755624   -2.448635    4.051682
    116          1           0        2.751066   -3.542792    2.677383
    117          1           0        2.520814   -1.880547    2.443876
    118          1           0        1.545492   -0.169045    3.410472
    119          1           0       -0.111235   -0.127469    2.762840
    120          1           0        0.294856    0.456508    4.474611
    121          7           0        1.534119   -3.555528    0.120866
    122          6           0        2.123008   -4.401614   -0.897931
    123          6           0        3.628744   -4.419020   -0.680088
    124          8           0        4.105575   -3.570816    0.076340
    125          6           0        1.713443   -3.950817   -2.296444
    126          8           0        1.788707   -2.542597   -2.347931
    127          1           0        1.737675   -2.568727    0.092748
    128          1           0        1.719374   -5.410012   -0.871237
    129          1           0        0.665590   -4.229925   -2.450077
    130          1           0        2.338008   -4.422289   -3.054490
    131          1           0        2.018171   -2.298867   -3.243387
    132          7           0        4.354704   -5.453590   -1.104759
    133          6           0        5.790293   -5.534023   -0.889549
    134          6           0        6.583057   -4.307262   -1.318482
    135          8           0        7.489148   -3.915153   -0.586806
    136          6           0        6.215550   -6.701482   -1.781679
    137          1           0        3.934010   -6.182345   -1.658503
    138          1           0        6.018206   -5.809733    0.131940
    139          1           0        7.270440   -6.854034   -1.547299
    140          1           0        5.697097   -7.616039   -1.512064
    141          1           0        6.068281   -6.425424   -2.833109
    142          7           0        6.308116   -3.599774   -2.421553
    143          6           0        7.079605   -2.434020   -2.798280
    144          6           0        6.902019   -1.304009   -1.797261
    145          8           0        7.721966   -0.385201   -1.655558
    146          6           0        6.599725   -2.008543   -4.186079
    147          1           0        5.518932   -3.849837   -2.983654
    148          1           0        8.161065   -2.571362   -2.876250
    149          1           0        6.974971   -2.620675   -4.999396
    150          1           0        5.512491   -2.025167   -4.332521
    151          1           0        6.927099   -0.990313   -4.391344
    152          7           0        5.873967   -1.373934   -0.953271
    153          6           0        5.625080   -0.396297    0.087729
    154          6           0        6.215882   -0.736090    1.444634
    155          8           0        6.724318    0.148148    2.129629
    156          6           0        4.130400   -0.210189    0.322453
    157          6           0        3.396930    0.389462   -0.871298
    158          6           0        1.911133    0.527238   -0.589828
    159          8           0        1.225605    1.396830   -1.167029
    160          8           0        1.305047   -0.359138    0.048604
    161          1           0        5.233396   -2.161301   -1.044501
    162          1           0        6.072636    0.574444   -0.131716
    163          1           0        4.012865    0.355039    1.241530
    164          1           0        3.691435   -1.163275    0.612001
    165          1           0        3.461299   -0.358231   -1.665156
    166          1           0        3.916541    1.292424   -1.198046
    167          7           0        6.275207   -2.029604    1.773120
    168          6           0        6.858418   -2.562824    2.987097
    169          1           0        6.126778   -3.190598    3.495763
    170          1           0        7.737043   -3.158250    2.738240
    171          1           0        7.149251   -1.741984    3.641690
    172          1           0        5.815223   -2.716612    1.190853
    173         20           0       -1.122836    0.226782   -0.953727
    174          8           0       -0.490113    0.250277   -3.469592
    175          1           0       -0.043863    0.007917   -4.277752
    176          1           0       -1.142672    0.905352   -3.740043
 ---------------------------------------------------------------------

 SCF Done:  E(RB3LYP) =  -5333.60481557     A.U. after   18 cycles

 The electronic state is 1-A.
 Alpha  occ. eigenvalues -- -145.36785 -19.17772 -19.15040 -19.14036 -19.12624
 Alpha  occ. eigenvalues --  -19.12498 -19.12161 -19.11363 -19.10337 -19.09448
 Alpha  occ. eigenvalues --  -19.07730 -19.07684 -19.07464 -19.07372 -19.06565
 Alpha  occ. eigenvalues --  -19.05796 -19.05208 -19.04929 -19.04894 -19.03949
 Alpha  occ. eigenvalues --  -19.03942 -19.03108 -19.02800 -19.02632 -15.42499
 Alpha  occ. eigenvalues --  -14.58399 -14.41305 -14.39647 -14.37130 -14.36255
 Alpha  occ. eigenvalues --  -14.36049 -14.35344 -14.34223 -14.33363 -14.33296
 Alpha  occ. eigenvalues --  -14.31798 -14.31022 -14.30283 -14.29681 -14.29142
 Alpha  occ. eigenvalues --  -12.56106 -12.56090 -12.56063 -10.34408 -10.33315
 Alpha  occ. eigenvalues --  -10.31824 -10.30150 -10.29957 -10.29260 -10.28562
 Alpha  occ. eigenvalues --  -10.28332 -10.27941 -10.27014 -10.26820 -10.26407
 Alpha  occ. eigenvalues --  -10.26390 -10.26306 -10.26130 -10.25521 -10.24725
 Alpha  occ. eigenvalues --  -10.24195 -10.23783 -10.23651 -10.23582 -10.23310
 Alpha  occ. eigenvalues --  -10.22738 -10.22596 -10.22580 -10.22278 -10.22246
 Alpha  occ. eigenvalues --  -10.22205 -10.21963 -10.21915 -10.21898 -10.20750
 Alpha  occ. eigenvalues --  -10.20748 -10.19922 -10.19727 -10.19544 -10.18501
 Alpha  occ. eigenvalues --  -10.18334 -10.18253 -10.18172 -10.18121 -10.17882
 Alpha  occ. eigenvalues --  -10.17508 -10.17494 -10.17287 -10.17035 -10.16291
 Alpha  occ. eigenvalues --  -10.16216 -10.16152 -10.16073 -10.15679 -10.15247
 Alpha  occ. eigenvalues --  -10.14843 -10.14334  -1.79349  -1.13753  -1.08508
 Alpha  occ. eigenvalues --   -1.06995  -1.06817  -1.06760  -1.06390  -1.06099
 Alpha  occ. eigenvalues --   -1.04675  -1.04011  -1.03377  -1.02586  -1.02414
 Alpha  occ. eigenvalues --   -1.02325  -1.00969  -1.00323  -1.00018  -0.99486
 Alpha  occ. eigenvalues --   -0.99007  -0.98675  -0.98612  -0.97965  -0.97873
 Alpha  occ. eigenvalues --   -0.97816  -0.96920  -0.96228  -0.95832  -0.93953
 Alpha  occ. eigenvalues --   -0.92953  -0.91727  -0.91321  -0.90976  -0.90774
 Alpha  occ. eigenvalues --   -0.90686  -0.89456  -0.89417  -0.88709  -0.88508
 Alpha  occ. eigenvalues --   -0.88261  -0.87736  -0.87166  -0.86498  -0.85773
 Alpha  occ. eigenvalues --   -0.83593  -0.82145  -0.81783  -0.80904  -0.80443
 Alpha  occ. eigenvalues --   -0.79276  -0.78540  -0.77316  -0.76895  -0.75762
 Alpha  occ. eigenvalues --   -0.75247  -0.74075  -0.73866  -0.72662  -0.72562
 Alpha  occ. eigenvalues --   -0.71721  -0.70987  -0.70733  -0.70606  -0.70285
 Alpha  occ. eigenvalues --   -0.69982  -0.69324  -0.68847  -0.68261  -0.67910
 Alpha  occ. eigenvalues --   -0.67296  -0.67072  -0.65555  -0.64743  -0.63923
 Alpha  occ. eigenvalues --   -0.63824  -0.63553  -0.63268  -0.62974  -0.61870
 Alpha  occ. eigenvalues --   -0.61176  -0.61080  -0.60269  -0.60232  -0.59540
 Alpha  occ. eigenvalues --   -0.59407  -0.59156  -0.58708  -0.58568  -0.57038
 Alpha  occ. eigenvalues --   -0.56885  -0.56734  -0.56602  -0.56455  -0.55788
 Alpha  occ. eigenvalues --   -0.55587  -0.55396  -0.55250  -0.55040  -0.54985
 Alpha  occ. eigenvalues --   -0.54382  -0.54347  -0.53579  -0.53357  -0.53004
 Alpha  occ. eigenvalues --   -0.52667  -0.52580  -0.52417  -0.52054  -0.51687
 Alpha  occ. eigenvalues --   -0.51255  -0.50957  -0.50881  -0.50292  -0.49550
 Alpha  occ. eigenvalues --   -0.49184  -0.49010  -0.48878  -0.48582  -0.48551
 Alpha  occ. eigenvalues --   -0.48277  -0.48015  -0.47870  -0.47728  -0.47579
 Alpha  occ. eigenvalues --   -0.47353  -0.47209  -0.47074  -0.46582  -0.46409
 Alpha  occ. eigenvalues --   -0.46073  -0.45940  -0.45613  -0.45265  -0.45203
 Alpha  occ. eigenvalues --   -0.44932  -0.44736  -0.44680  -0.44647  -0.44567
 Alpha  occ. eigenvalues --   -0.44210  -0.43864  -0.43800  -0.43714  -0.43445
 Alpha  occ. eigenvalues --   -0.43342  -0.43238  -0.43235  -0.42940  -0.42717
 Alpha  occ. eigenvalues --   -0.42478  -0.42238  -0.42080  -0.41881  -0.41752
 Alpha  occ. eigenvalues --   -0.41644  -0.41534  -0.41372  -0.41229  -0.41053
 Alpha  occ. eigenvalues --   -0.40979  -0.40868  -0.40775  -0.40742  -0.40364
 Alpha  occ. eigenvalues --   -0.40180  -0.40091  -0.39922  -0.39818  -0.39663
 Alpha  occ. eigenvalues --   -0.39476  -0.39331  -0.39234  -0.38989  -0.38923
 Alpha  occ. eigenvalues --   -0.38726  -0.38632  -0.38552  -0.38448  -0.38409
 Alpha  occ. eigenvalues --   -0.38242  -0.38055  -0.38034  -0.37914  -0.37814
 Alpha  occ. eigenvalues --   -0.37726  -0.37533  -0.37497  -0.37321  -0.37317
 Alpha  occ. eigenvalues --   -0.37047  -0.36692  -0.36648  -0.36541  -0.36413
 Alpha  occ. eigenvalues --   -0.36119  -0.36013  -0.35892  -0.35505  -0.35268
 Alpha  occ. eigenvalues --   -0.34919  -0.34881  -0.34759  -0.34547  -0.34497
 Alpha  occ. eigenvalues --   -0.34292  -0.34011  -0.33757  -0.33652  -0.33233
 Alpha  occ. eigenvalues --   -0.33211  -0.32782  -0.32754  -0.32380  -0.32328
 Alpha  occ. eigenvalues --   -0.32142  -0.32016  -0.31839  -0.31805  -0.30813
 Alpha  occ. eigenvalues --   -0.30760  -0.30661  -0.30597  -0.30538  -0.30265
 Alpha  occ. eigenvalues --   -0.30238  -0.29733  -0.28709  -0.28573  -0.28324
 Alpha  occ. eigenvalues --   -0.28014  -0.27278  -0.27162  -0.27055  -0.26334
 Alpha  occ. eigenvalues --   -0.26248  -0.26087  -0.25212  -0.25162  -0.24705
 Alpha  occ. eigenvalues --   -0.23992  -0.23714  -0.23582  -0.23501  -0.22918
 Alpha  occ. eigenvalues --   -0.22807  -0.22758  -0.22625  -0.22397  -0.22297
 Alpha  occ. eigenvalues --   -0.22182  -0.21818  -0.21632  -0.21302  -0.21119
 Alpha  occ. eigenvalues --   -0.21046  -0.19733  -0.19555  -0.19178  -0.19102
 Alpha  occ. eigenvalues --   -0.18509  -0.18456  -0.18102
 Alpha virt. eigenvalues --   -0.10278  -0.04515  -0.04345  -0.03777  -0.02944
 Alpha virt. eigenvalues --   -0.01995  -0.01096  -0.00907  -0.00178   0.00595
 Alpha virt. eigenvalues --    0.00775   0.01001   0.01548   0.02072   0.02174

 Mulliken charges:
               1
     1  C    0.054751
     2  C    0.020655
     3  O   -0.313449
     4  H    0.038409
     5  H    0.023079
     6  H   -0.000962
     7  N   -0.104677
     8  C    0.105844
     9  C    0.069952
    10  O   -0.287242
    11  C    0.060110
    12  C    0.126346
    13  O   -0.371165
    14  O   -0.472007
    15  H    0.119020
    16  H   -0.007353
    17  H    0.014664
    18  H    0.007352
    19  N   -0.148043
    20  C    0.150800
    21  C    0.035811
    22  O   -0.303292
    23  C    0.008815
    24  C    0.045122
    25  C   -0.120958
    26  C    0.084053
    27  N    0.088112
    28  H    0.153845
    29  H    0.013788
    30  H    0.003910
    31  H    0.022088
    32  H    0.040769
    33  H    0.012218
    34  H    0.011469
    35  H    0.033354
    36  H    0.110157
    37  H    0.089229
    38  H    0.194126
    39  H    0.172179
    40  H    0.178786
    41  N   -0.161767
    42  C    0.138857
    43  C    0.037774
    44  O   -0.279456
    45  C    0.119728
    46  C    0.134673
    47  O   -0.409175
    48  O   -0.467536
    49  H    0.156074
    50  H    0.013683
    51  H    0.004728
    52  H    0.021827
    53  N   -0.145151
    54  C    0.225868
    55  C    0.043335
    56  O   -0.308301
    57  H    0.139603
    58  H    0.016703
    59  H    0.018848
    60  N   -0.150573
    61  C    0.112085
    62  C    0.053967
    63  O   -0.312260
    64  C    0.065997
    65  C    0.094781
    66  N   -0.034612
    67  O   -0.360894
    68  H    0.156408
    69  H    0.025834
    70  H    0.078132
    71  H    0.027343
    72  H    0.127948
    73  H    0.117972
    74  N   -0.143538
    75  C    0.226575
    76  C    0.032562
    77  O   -0.293640
    78  H    0.163361
    79  H    0.037041
    80  H    0.029021
    81  N   -0.152199
    82  C    0.105997
    83  C    0.098186
    84  O   -0.357579
    85  C    0.202458
    86  C    0.009478
    87  C   -0.011058
    88  C    0.003767
    89  C   -0.023046
    90  C   -0.046964
    91  C    0.174586
    92  O   -0.191180
    93  H    0.154206
    94  H    0.001304
    95  H   -0.017860
    96  H   -0.043275
    97  H   -0.035324
    98  H   -0.056896
    99  H   -0.021182
   100  H   -0.051222
   101  H    0.169738
   102  N   -0.090711
   103  C    0.140375
   104  C    0.045597
   105  O   -0.302725
   106  C   -0.057048
   107  C    0.056045
   108  C    0.028140
   109  C   -0.027857
   110  H    0.129624
   111  H    0.016665
   112  H   -0.024520
   113  H   -0.004888
   114  H   -0.016093
   115  H    0.004989
   116  H    0.004054
   117  H    0.016310
   118  H    0.018172
   119  H    0.055145
   120  H    0.005790
   121  N   -0.125317
   122  C    0.106406
   123  C    0.090288
   124  O   -0.280187
   125  C    0.204244
   126  O   -0.285312
   127  H    0.157464
   128  H    0.022945
   129  H    0.019200
   130  H   -0.019381
   131  H    0.171002
   132  N   -0.105863
   133  C    0.122873
   134  C    0.042792
   135  O   -0.247738
   136  C    0.003287
   137  H    0.121583
   138  H    0.023942
   139  H    0.044275
   140  H    0.034422
   141  H    0.016146
   142  N   -0.137241
   143  C    0.127004
   144  C    0.058335
   145  O   -0.300047
   146  C    0.022614
   147  H    0.103064
   148  H    0.031829
   149  H    0.022530
   150  H   -0.006959
   151  H    0.033986
   152  N   -0.132802
   153  C    0.158031
   154  C    0.052365
   155  O   -0.292304
   156  C   -0.083941
   157  C    0.154310
   158  C    0.139515
   159  O   -0.401082
   160  O   -0.430707
   161  H    0.128904
   162  H   -0.024868
   163  H    0.023260
   164  H    0.028742
   165  H   -0.028078
   166  H   -0.025472
   167  N   -0.159630
   168  C    0.123064
   169  H    0.011261
   170  H    0.023248
   171  H    0.033974
   172  H    0.125910
   173  Ca   1.293104
   174  O   -0.333513
   175  H    0.171497
   176  H    0.150542
 Sum of Mulliken charges =  -0.00000

 Dipole moment (field-independent basis, Debye):
    X=             38.9969    Y=             -6.0205    Z=             -5.6763  Tot=             39.8650
 Quadrupole moment (field-independent basis, Debye-Ang):
   XX=           -512.6808   YY=           -461.3955   ZZ=           -536.3626
   XY=            168.6202   XZ=            -36.4035   YZ=             63.6509

 ESP charges:
               1
     1  C   -0.382260
     2  C    0.760831
     3  O   -0.623520
     4  H    0.109186
     5  H    0.112072
     6  H    0.068485
     7  N   -0.706495
     8  C   -0.099216
     9  C    0.852022
    10  O   -0.597308
    11  C   -0.276647
    12  C    0.929004
    13  O   -0.796162
    14  O   -0.809158
    15  H    0.387502
    16  H    0.041216
    17  H    0.105415
    18  H    0.076804
    19  N   -0.524911
    20  C   -0.271244
    21  C    0.629247
    22  O   -0.588888
    23  C    0.096137
    24  C   -0.115284
    25  C   -0.022858
    26  C   -0.033016
    27  N   -0.222735
    28  H    0.300109
    29  H    0.145825
    30  H    0.037832
    31  H   -0.024145
    32  H    0.092493
    33  H    0.066611
    34  H    0.013531
    35  H    0.051495
    36  H    0.114802
    37  H    0.101878
    38  H    0.292133
    39  H    0.288416
    40  H    0.295479
    41  N   -0.474767
    42  C    0.295579
    43  C    0.370217
    44  O   -0.528439
    45  C   -0.524127
    46  C    0.948858
    47  O   -0.732488
    48  O   -0.788296
    49  H    0.376395
    50  H    0.062512
    51  H    0.131156
    52  H    0.125067
    53  N   -0.285940
    54  C   -0.057270
    55  C    0.505310
    56  O   -0.591604
    57  H    0.157898
    58  H    0.096356
    59  H    0.079613
    60  N   -0.254061
    61  C   -0.143485
    62  C    0.383299
    63  O   -0.512546
    64  C   -0.221844
    65  C    0.596121
    66  N   -0.830542
    67  O   -0.563638
    68  H    0.281154
    69  H    0.154024
    70  H    0.132581
    71  H    0.113803
    72  H    0.403826
    73  H    0.376121
    74  N    0.023946
    75  C   -0.591205
    76  C    0.903623
    77  O   -0.580199
    78  H    0.240631
    79  H    0.216562
    80  H    0.158842
    81  N   -0.960002
    82  C    0.524256
    83  C    0.647372
    84  O   -0.673533
    85  C   -0.182589
    86  C   -0.031153
    87  C   -0.127415
    88  C    0.034177
    89  C   -0.349401
    90  C   -0.487394
    91  C    0.513287
    92  O   -0.547634
    93  H    0.511732
    94  H   -0.036856
    95  H    0.038472
    96  H    0.027616
    97  H    0.197044
    98  H    0.080389
    99  H    0.174352
   100  H    0.172182
   101  H    0.389936
   102  N   -0.733676
   103  C    0.296062
   104  C    0.467869
   105  O   -0.562452
   106  C    0.093814
   107  C   -0.221757
   108  C   -0.246282
   109  C   -0.067663
   110  H    0.337910
   111  H    0.054646
   112  H    0.008133
   113  H    0.076060
   114  H    0.040610
   115  H    0.084588
   116  H    0.049674
   117  H    0.005383
   118  H    0.079481
   119  H    0.111295
   120  H    0.061680
   121  N   -0.345466
   122  C    0.315521
   123  C    0.280502
   124  O   -0.302864
   125  C   -0.021808
   126  O   -0.487695
   127  H    0.235022
   128  H    0.015256
   129  H    0.060671
   130  H    0.022743
   131  H    0.396978
   132  N   -0.471730
   133  C    0.237910
   134  C    0.501444
   135  O   -0.535363
   136  C   -0.334742
   137  H    0.293928
   138  H    0.068495
   139  H    0.103797
   140  H    0.114109
   141  H    0.066287
   142  N   -0.422322
   143  C    0.066181
   144  C    0.403336
   145  O   -0.547741
   146  C   -0.319401
   147  H    0.283745
   148  H    0.126108
   149  H    0.097856
   150  H    0.076782
   151  H    0.112101
   152  N   -0.068610
   153  C   -0.117423
   154  C    0.474583
   155  O   -0.557230
   156  C   -0.013170
   157  C   -0.356140
   158  C    0.976932
   159  O   -0.744979
   160  O   -0.850254
   161  H    0.108326
   162  H    0.099398
   163  H    0.082947
   164  H   -0.008291
   165  H    0.030198
   166  H    0.097986
   167  N   -0.090543
   168  C   -0.167360
   169  H    0.063687
   170  H    0.072559
   171  H    0.092265
   172  H    0.102285
   173  Ca   1.580762
   174  O   -0.920346
   175  H    0.441061
   176  H    0.403788
 Sum of ESP charges =  -0.00000

 Normal termination of Gaussian 16 at Wed Sep 18 19:35:31 2019.
