 Gaussian 16, Revision A.03,
 Gaussian 16:  ES64L-G16RevA.03 25-Dec-2016

 ----------------------------------------------------------------------
 #b3lyp/svp scf=(tight,noincore) Test #IOP(5/87=12) Density=Current Pop
 =(MK,readradii) iop(6/33=2) iop(6/42=6)
 ----------------------------------------------------------------------

 ------------------
 holoCaM_loop3_43.0
 ------------------
 Symbolic Z-matrix:
 Charge =  0 Multiplicity = 1

                         Standard orientation:
 ---------------------------------------------------------------------
 Center     Atomic      Atomic             Coordinates (Angstroms)
 Number     Number       Type             X           Y           Z
 ---------------------------------------------------------------------
      1          6           0        2.164649    4.088806    4.801486
      2          6           0        1.702886    3.324977    3.556882
      3          8           0        2.558924    2.886731    2.800946
      4          1           0        3.110563    4.587525    4.590934
      5          1           0        1.414888    4.832552    5.071578
      6          1           0        2.299068    3.390959    5.627914
      7          7           0        0.382904    3.225916    3.341862
      8          6           0       -0.312785    2.602309    2.244623
      9          6           0       -0.363283    3.741380    1.237366
     10          8           0       -1.029700    4.741324    1.500615
     11          6           0       -1.738351    2.177405    2.608376
     12          6           0       -2.666619    1.645140    1.523934
     13          8           0       -3.888426    1.565702    1.757552
     14          8           0       -2.208990    1.433227    0.382326
     15          1           0       -0.173537    3.460139    4.145922
     16          1           0        0.172075    1.717376    1.822599
     17          1           0       -2.175173    2.988212    3.190079
     18          1           0       -1.548835    1.373861    3.333151
     19          7           0        0.319876    3.701032    0.094402
     20          6           0        0.486642    4.925394   -0.667454
     21          6           0       -0.649734    5.251710   -1.628895
     22          8           0       -0.675309    6.312073   -2.254335
     23          6           0        1.815506    4.969614   -1.415561
     24          6           0        3.043696    4.905576   -0.524691
     25          6           0        3.167584    5.913433    0.620463
     26          6           0        4.295962    5.541610    1.573830
     27          7           0        4.290954    6.465971    2.722757
     28          1           0        0.823102    2.888390   -0.220680
     29          1           0        0.489707    5.814104   -0.031620
     30          1           0        1.856975    5.900332   -1.983579
     31          1           0        1.837094    4.158528   -2.141766
     32          1           0        3.951063    5.013098   -1.125377
     33          1           0        3.095221    3.907884   -0.117193
     34          1           0        2.263028    5.880964    1.228842
     35          1           0        3.289765    6.876191    0.126329
     36          1           0        5.195233    5.671479    0.979065
     37          1           0        4.364170    4.473194    1.781279
     38          1           0        4.553650    7.416497    2.517597
     39          1           0        3.373582    6.476329    3.151967
     40          1           0        5.052797    6.102332    3.262259
     41          7           0       -1.731919    4.474194   -1.525245
     42          6           0       -2.955733    4.669363   -2.280155
     43          6           0       -4.309297    4.409693   -1.630897
     44          8           0       -5.367079    4.162409   -2.211541
     45          6           0       -2.858520    4.049106   -3.673866
     46          6           0       -2.572916    2.551780   -3.729048
     47          8           0       -1.849155    2.036828   -2.856298
     48          8           0       -3.201220    1.818670   -4.523519
     49          1           0       -1.624020    3.609510   -1.019103
     50          1           0       -2.984318    5.734771   -2.472738
     51          1           0       -2.035271    4.456658   -4.272165
     52          1           0       -3.756571    4.293758   -4.237648
     53          7           0       -4.271705    4.192842   -0.321904
     54          6           0       -5.463769    3.946362    0.464627
     55          6           0       -6.337730    2.766051    0.093198
     56          8           0       -7.530409    2.827515    0.358413
     57          1           0       -3.409688    4.367530    0.180602
     58          1           0       -6.054240    4.860999    0.427452
     59          1           0       -5.168528    3.740654    1.492740
     60          7           0       -5.817403    1.821670   -0.697754
     61          6           0       -6.547914    0.674973   -1.202570
     62          6           0       -6.599335   -0.454766   -0.184117
     63          8           0       -7.246812   -1.468340   -0.419149
     64          6           0       -5.910387    0.188071   -2.495894
     65          6           0       -4.690620   -0.702263   -2.314857
     66          7           0       -4.651098   -1.933949   -2.830886
     67          8           0       -3.753862   -0.322274   -1.606766
     68          1           0       -4.832232    1.812546   -0.903800
     69          1           0       -7.551286    1.033665   -1.462539
     70          1           0       -5.615892    1.026949   -3.131313
     71          1           0       -6.570856   -0.436568   -3.101952
     72          1           0       -5.368856   -2.149825   -3.504252
     73          1           0       -3.854128   -2.518664   -2.591203
     74          7           0       -5.937807   -0.357536    0.978392
     75          6           0       -6.131779   -1.178548    2.156744
     76          6           0       -5.138837   -2.311370    2.368601
     77          8           0       -5.234214   -3.204042    3.209100
     78          1           0       -5.332542    0.431323    1.159380
     79          1           0       -7.107866   -1.642948    2.000584
     80          1           0       -6.104300   -0.583184    3.071777
     81          7           0       -4.047515   -2.298934    1.601424
     82          6           0       -2.956350   -3.248962    1.527906
     83          6           0       -1.662304   -2.461567    1.406439
     84          8           0       -1.541934   -1.385253    0.819022
     85          6           0       -3.135589   -4.132306    0.293127
     86          6           0       -4.386562   -4.975466    0.227953
     87          6           0       -5.503058   -4.400975   -0.393173
     88          6           0       -4.416359   -6.207593    0.885505
     89          6           0       -6.687578   -5.138411   -0.513177
     90          6           0       -5.625143   -6.894950    0.779765
     91          6           0       -6.750393   -6.410969    0.082934
     92          8           0       -7.935012   -7.080551   -0.023076
     93          1           0       -4.080668   -1.486580    1.006544
     94          1           0       -2.916549   -3.795175    2.461644
     95          1           0       -2.303934   -4.804507    0.099748
     96          1           0       -3.109526   -3.386484   -0.493239
     97          1           0       -5.456380   -3.430890   -0.866201
     98          1           0       -3.558443   -6.577998    1.429913
     99          1           0       -7.603291   -4.715366   -0.913056
    100          1           0       -5.759113   -7.870600    1.221987
    101          1           0       -7.938621   -7.848771    0.557634
    102          7           0       -0.593601   -2.959812    2.029116
    103          6           0        0.773509   -2.509249    1.826374
    104          6           0        1.575821   -3.599066    1.142345
    105          8           0        1.370851   -4.778704    1.429817
    106          6           0        1.322348   -1.986303    3.153402
    107          6           0        0.577414   -0.746623    3.654268
    108          6           0        2.825671   -1.729994    3.093178
    109          6           0        1.117251   -0.144551    4.940574
    110          1           0       -0.756240   -3.741921    2.647464
    111          1           0        0.737226   -1.723177    1.073066
    112          1           0        1.116638   -2.798524    3.860282
    113          1           0       -0.498691   -0.898105    3.666571
    114          1           0        0.750865   -0.015708    2.855470
    115          1           0        3.392099   -2.605738    2.798677
    116          1           0        2.972728   -0.842283    2.477187
    117          1           0        3.140889   -1.613895    4.133158
    118          1           0        1.524377   -0.958806    5.547318
    119          1           0        1.897275    0.592301    4.746123
    120          1           0        0.373109    0.552297    5.329489
    121          7           0        2.498323   -3.150316    0.287820
    122          6           0        3.375254   -3.894404   -0.585693
    123          6           0        4.867154   -3.647808   -0.455982
    124          8           0        5.199088   -2.610760    0.120344
    125          6           0        3.005879   -3.605725   -2.045223
    126          8           0        3.207544   -2.247746   -2.368526
    127          1           0        2.589514   -2.150709    0.186474
    128          1           0        3.128213   -4.915545   -0.295278
    129          1           0        1.969865   -3.855158   -2.300872
    130          1           0        3.682759   -4.192010   -2.656290
    131          1           0        2.346960   -1.852154   -2.234731
    132          7           0        5.792710   -4.529639   -0.861348
    133          6           0        7.228967   -4.354085   -0.759149
    134          6           0        7.785260   -3.048508   -1.311785
    135          8           0        8.732312   -2.449356   -0.808784
    136          6           0        7.953649   -5.501610   -1.449745
    137          1           0        5.452187   -5.432433   -1.145437
    138          1           0        7.486588   -4.406932    0.299264
    139          1           0        9.015078   -5.301304   -1.413049
    140          1           0        7.733998   -6.374795   -0.818950
    141          1           0        7.644739   -5.457587   -2.494320
    142          7           0        7.248094   -2.520721   -2.416952
    143          6           0        7.665289   -1.186538   -2.794849
    144          6           0        7.234576   -0.135512   -1.777190
    145          8           0        7.936474    0.827291   -1.495676
    146          6           0        6.949261   -0.868865   -4.111582
    147          1           0        6.367515   -2.859357   -2.782065
    148          1           0        8.728800   -1.144900   -3.017807
    149          1           0        5.896533   -0.772980   -3.869360
    150          1           0        7.329677    0.041420   -4.578127
    151          1           0        7.203033   -1.585754   -4.892716
    152          7           0        6.006704   -0.287076   -1.279638
    153          6           0        5.580591    0.656534   -0.255613
    154          6           0        6.269932    0.527465    1.089694
    155          8           0        6.600497    1.544479    1.705980
    156          6           0        4.069072    0.576303   -0.077366
    157          6           0        3.271133    0.809036   -1.354405
    158          6           0        1.799632    0.454381   -1.217269
    159          8           0        0.983383    1.311479   -0.805542
    160          8           0        1.304119   -0.664553   -1.454868
    161          1           0        5.452093   -1.111054   -1.461481
    162          1           0        5.806208    1.614089   -0.723785
    163          1           0        3.740529    1.276609    0.697896
    164          1           0        3.851381   -0.456608    0.213159
    165          1           0        3.667448    0.268415   -2.217460
    166          1           0        3.326809    1.871750   -1.590497
    167          7           0        6.819463   -0.665489    1.361314
    168          6           0        7.655997   -0.845511    2.525961
    169          1           0        7.435762   -0.065874    3.254616
    170          1           0        7.458384   -1.821838    2.968164
    171          1           0        8.704410   -0.784393    2.234172
    172          1           0        6.628357   -1.394689    0.693897
    173         20           0       -1.278996    0.072806   -1.504063
    174          8           0       -1.028740   -2.519059   -1.969045
    175          1           0       -0.868915   -3.330975   -1.489724
    176          1           0       -0.627980   -2.666197   -2.824873
 ---------------------------------------------------------------------

 SCF Done:  E(RB3LYP) =  -5333.59175322     A.U. after   19 cycles

 The electronic state is 1-A.
 Alpha  occ. eigenvalues -- -145.36225 -19.20769 -19.15253 -19.15131 -19.15031
 Alpha  occ. eigenvalues --  -19.12533 -19.12261 -19.12102 -19.11796 -19.11267
 Alpha  occ. eigenvalues --  -19.10730 -19.09727 -19.09187 -19.08003 -19.07922
 Alpha  occ. eigenvalues --  -19.06333 -19.06185 -19.06020 -19.04813 -19.04733
 Alpha  occ. eigenvalues --  -19.04013 -19.03768 -19.02325 -18.99478 -15.42037
 Alpha  occ. eigenvalues --  -14.57043 -14.41303 -14.38390 -14.37962 -14.37748
 Alpha  occ. eigenvalues --  -14.37261 -14.36349 -14.35153 -14.33157 -14.32804
 Alpha  occ. eigenvalues --  -14.32461 -14.31246 -14.31229 -14.30810 -14.29738
 Alpha  occ. eigenvalues --  -12.55648 -12.55615 -12.55579 -10.33694 -10.32068
 Alpha  occ. eigenvalues --  -10.31560 -10.30806 -10.30692 -10.30292 -10.29535
 Alpha  occ. eigenvalues --  -10.29316 -10.27873 -10.27545 -10.27408 -10.27352
 Alpha  occ. eigenvalues --  -10.26562 -10.26463 -10.25264 -10.25204 -10.25015
 Alpha  occ. eigenvalues --  -10.24807 -10.24507 -10.24373 -10.24074 -10.24036
 Alpha  occ. eigenvalues --  -10.24001 -10.23752 -10.23654 -10.23141 -10.23039
 Alpha  occ. eigenvalues --  -10.22938 -10.22567 -10.21698 -10.21543 -10.20839
 Alpha  occ. eigenvalues --  -10.20764 -10.20736 -10.20386 -10.20193 -10.20026
 Alpha  occ. eigenvalues --  -10.19944 -10.19761 -10.19552 -10.19344 -10.19027
 Alpha  occ. eigenvalues --  -10.18864 -10.18804 -10.18705 -10.18621 -10.18206
 Alpha  occ. eigenvalues --  -10.18069 -10.17993 -10.17696 -10.17618 -10.17391
 Alpha  occ. eigenvalues --  -10.16954 -10.12692  -1.79017  -1.12324  -1.08497
 Alpha  occ. eigenvalues --   -1.07379  -1.07310  -1.06600  -1.05885  -1.05636
 Alpha  occ. eigenvalues --   -1.05514  -1.05464  -1.05410  -1.04655  -1.04016
 Alpha  occ. eigenvalues --   -1.03724  -1.03368  -1.02631  -1.01812  -1.00431
 Alpha  occ. eigenvalues --   -0.99960  -0.99291  -0.99110  -0.99009  -0.98391
 Alpha  occ. eigenvalues --   -0.97679  -0.96993  -0.95958  -0.95351  -0.94700
 Alpha  occ. eigenvalues --   -0.94601  -0.94377  -0.93886  -0.92118  -0.90807
 Alpha  occ. eigenvalues --   -0.90416  -0.90163  -0.89338  -0.89053  -0.88359
 Alpha  occ. eigenvalues --   -0.88193  -0.87079  -0.86536  -0.86298  -0.85008
 Alpha  occ. eigenvalues --   -0.83888  -0.83670  -0.82869  -0.80493  -0.80062
 Alpha  occ. eigenvalues --   -0.79826  -0.79240  -0.78669  -0.78037  -0.76008
 Alpha  occ. eigenvalues --   -0.75634  -0.75540  -0.74722  -0.73489  -0.73324
 Alpha  occ. eigenvalues --   -0.73166  -0.73042  -0.71986  -0.71558  -0.70325
 Alpha  occ. eigenvalues --   -0.69910  -0.69789  -0.68847  -0.68589  -0.68161
 Alpha  occ. eigenvalues --   -0.67022  -0.66829  -0.65678  -0.65614  -0.65249
 Alpha  occ. eigenvalues --   -0.64842  -0.64048  -0.62372  -0.62196  -0.61870
 Alpha  occ. eigenvalues --   -0.61724  -0.61589  -0.61374  -0.60941  -0.60791
 Alpha  occ. eigenvalues --   -0.60076  -0.59810  -0.59265  -0.58878  -0.58642
 Alpha  occ. eigenvalues --   -0.58211  -0.57823  -0.57696  -0.56736  -0.56460
 Alpha  occ. eigenvalues --   -0.56245  -0.55838  -0.55647  -0.55549  -0.55163
 Alpha  occ. eigenvalues --   -0.54980  -0.54869  -0.54360  -0.54224  -0.53818
 Alpha  occ. eigenvalues --   -0.53701  -0.53410  -0.53204  -0.52747  -0.52143
 Alpha  occ. eigenvalues --   -0.51920  -0.51576  -0.51381  -0.51203  -0.50633
 Alpha  occ. eigenvalues --   -0.50403  -0.50015  -0.49789  -0.49458  -0.49266
 Alpha  occ. eigenvalues --   -0.49144  -0.48836  -0.48795  -0.48502  -0.48455
 Alpha  occ. eigenvalues --   -0.48050  -0.47911  -0.47771  -0.47351  -0.47190
 Alpha  occ. eigenvalues --   -0.47020  -0.46862  -0.46850  -0.46257  -0.46099
 Alpha  occ. eigenvalues --   -0.45986  -0.45717  -0.45601  -0.45428  -0.45290
 Alpha  occ. eigenvalues --   -0.45108  -0.45032  -0.44832  -0.44572  -0.44339
 Alpha  occ. eigenvalues --   -0.44190  -0.44032  -0.43863  -0.43821  -0.43797
 Alpha  occ. eigenvalues --   -0.43588  -0.43438  -0.43414  -0.43274  -0.43027
 Alpha  occ. eigenvalues --   -0.42656  -0.42457  -0.42422  -0.42250  -0.42202
 Alpha  occ. eigenvalues --   -0.41958  -0.41895  -0.41593  -0.41378  -0.41322
 Alpha  occ. eigenvalues --   -0.41282  -0.41216  -0.41099  -0.40794  -0.40636
 Alpha  occ. eigenvalues --   -0.40439  -0.40350  -0.40204  -0.40048  -0.39774
 Alpha  occ. eigenvalues --   -0.39695  -0.39491  -0.39348  -0.39132  -0.39027
 Alpha  occ. eigenvalues --   -0.38944  -0.38899  -0.38663  -0.38578  -0.38509
 Alpha  occ. eigenvalues --   -0.38271  -0.38102  -0.37955  -0.37743  -0.37661
 Alpha  occ. eigenvalues --   -0.37450  -0.37402  -0.37290  -0.37055  -0.36928
 Alpha  occ. eigenvalues --   -0.36831  -0.36587  -0.36425  -0.36363  -0.36187
 Alpha  occ. eigenvalues --   -0.36079  -0.35801  -0.35677  -0.35545  -0.35504
 Alpha  occ. eigenvalues --   -0.35256  -0.34989  -0.34650  -0.34426  -0.34328
 Alpha  occ. eigenvalues --   -0.34156  -0.33903  -0.33544  -0.33378  -0.33172
 Alpha  occ. eigenvalues --   -0.33123  -0.32986  -0.32661  -0.32357  -0.32105
 Alpha  occ. eigenvalues --   -0.32009  -0.31982  -0.31509  -0.30794  -0.30393
 Alpha  occ. eigenvalues --   -0.29851  -0.29733  -0.29439  -0.29235  -0.29107
 Alpha  occ. eigenvalues --   -0.28650  -0.28591  -0.28232  -0.28083  -0.27841
 Alpha  occ. eigenvalues --   -0.27510  -0.27102  -0.26987  -0.26499  -0.26033
 Alpha  occ. eigenvalues --   -0.25800  -0.24858  -0.24659  -0.24510  -0.24078
 Alpha  occ. eigenvalues --   -0.23885  -0.23775  -0.23403  -0.23327  -0.23003
 Alpha  occ. eigenvalues --   -0.22378  -0.22246  -0.21925  -0.21592  -0.21094
 Alpha  occ. eigenvalues --   -0.20906  -0.20764  -0.19883  -0.19709  -0.19266
 Alpha  occ. eigenvalues --   -0.19157  -0.18577  -0.15441
 Alpha virt. eigenvalues --   -0.09044  -0.04288  -0.03541  -0.03057  -0.02905
 Alpha virt. eigenvalues --   -0.01273  -0.01149  -0.00882  -0.00543  -0.00156
 Alpha virt. eigenvalues --    0.00017   0.00422   0.00910   0.01141   0.01776

 Mulliken charges:
               1
     1  C    0.049866
     2  C    0.014620
     3  O   -0.289355
     4  H   -0.036488
     5  H    0.022113
     6  H    0.060060
     7  N   -0.099472
     8  C    0.098817
     9  C    0.054102
    10  O   -0.316194
    11  C    0.052568
    12  C    0.177419
    13  O   -0.376367
    14  O   -0.455969
    15  H    0.119990
    16  H    0.019529
    17  H    0.004118
    18  H    0.000388
    19  N   -0.124053
    20  C    0.102863
    21  C    0.064756
    22  O   -0.302473
    23  C    0.052628
    24  C    0.016381
    25  C   -0.059511
    26  C   -0.010536
    27  N    0.096848
    28  H    0.137131
    29  H    0.007322
    30  H    0.011722
    31  H    0.012633
    32  H    0.003044
    33  H    0.015434
    34  H    0.033321
    35  H    0.028168
    36  H    0.058575
    37  H    0.117200
    38  H    0.184345
    39  H    0.197976
    40  H    0.196498
    41  N   -0.121556
    42  C    0.127104
    43  C    0.058120
    44  O   -0.271024
    45  C    0.088587
    46  C    0.094267
    47  O   -0.493901
    48  O   -0.371800
    49  H    0.149149
    50  H    0.008367
    51  H   -0.005757
    52  H    0.003696
    53  N   -0.163281
    54  C    0.230215
    55  C    0.043820
    56  O   -0.290702
    57  H    0.125036
    58  H    0.013802
    59  H    0.020461
    60  N   -0.155541
    61  C    0.138500
    62  C    0.069346
    63  O   -0.293239
    64  C    0.114712
    65  C    0.041761
    66  N   -0.029175
    67  O   -0.370887
    68  H    0.152690
    69  H    0.041225
    70  H    0.084172
    71  H   -0.015487
    72  H    0.139309
    73  H    0.127568
    74  N   -0.188950
    75  C    0.235605
    76  C   -0.001642
    77  O   -0.298817
    78  H    0.153231
    79  H    0.036783
    80  H    0.043976
    81  N   -0.151388
    82  C    0.177095
    83  C    0.083357
    84  O   -0.328151
    85  C    0.108184
    86  C   -0.002656
    87  C    0.010851
    88  C    0.024515
    89  C   -0.027638
    90  C   -0.028549
    91  C    0.154829
    92  O   -0.195154
    93  H    0.135159
    94  H   -0.006616
    95  H   -0.018717
    96  H   -0.041146
    97  H   -0.036934
    98  H   -0.036632
    99  H   -0.006143
   100  H   -0.057657
   101  H    0.172110
   102  N   -0.121661
   103  C    0.133851
   104  C    0.053183
   105  O   -0.277349
   106  C   -0.100387
   107  C   -0.017517
   108  C    0.068039
   109  C    0.050429
   110  H    0.125104
   111  H    0.014464
   112  H   -0.021619
   113  H    0.024583
   114  H    0.008571
   115  H    0.014354
   116  H    0.028253
   117  H   -0.000061
   118  H    0.021045
   119  H    0.007500
   120  H   -0.008250
   121  N   -0.135811
   122  C    0.098673
   123  C    0.086088
   124  O   -0.289081
   125  C    0.261996
   126  O   -0.336141
   127  H    0.139557
   128  H    0.014044
   129  H   -0.017350
   130  H   -0.024365
   131  H    0.160357
   132  N   -0.107288
   133  C    0.100445
   134  C    0.043695
   135  O   -0.256525
   136  C    0.042900
   137  H    0.123826
   138  H    0.020266
   139  H    0.043143
   140  H    0.039087
   141  H    0.019990
   142  N   -0.143038
   143  C    0.097758
   144  C    0.080450
   145  O   -0.251893
   146  C    0.029003
   147  H    0.114465
   148  H    0.014885
   149  H    0.018143
   150  H    0.025942
   151  H    0.015932
   152  N   -0.199654
   153  C    0.162560
   154  C    0.097287
   155  O   -0.312616
   156  C   -0.077358
   157  C    0.106268
   158  C    0.159716
   159  O   -0.404228
   160  O   -0.449081
   161  H    0.124311
   162  H   -0.007705
   163  H    0.051390
   164  H    0.010265
   165  H    0.007945
   166  H   -0.009009
   167  N   -0.170218
   168  C    0.143425
   169  H    0.024071
   170  H    0.001240
   171  H    0.030879
   172  H    0.139452
   173  Ca   1.307958
   174  O   -0.280921
   175  H    0.188962
   176  H    0.184895
 Sum of Mulliken charges =  -0.00000

 Dipole moment (field-independent basis, Debye):
    X=             28.5064    Y=             -2.2014    Z=              9.2907  Tot=             30.0629
 Quadrupole moment (field-independent basis, Debye-Ang):
   XX=           -679.2766   YY=           -415.1008   ZZ=           -534.3789
   XY=             88.6332   XZ=             15.6191   YZ=            124.6912

 ESP charges:
               1
     1  C   -0.496795
     2  C    0.957466
     3  O   -0.675240
     4  H    0.093488
     5  H    0.103923
     6  H    0.151102
     7  N   -0.920226
     8  C    0.678568
     9  C    0.540451
    10  O   -0.606402
    11  C   -0.414304
    12  C    0.868452
    13  O   -0.682923
    14  O   -0.920469
    15  H    0.378975
    16  H   -0.146066
    17  H    0.087570
    18  H    0.060902
    19  N   -0.505687
    20  C    0.137129
    21  C    0.662563
    22  O   -0.597390
    23  C   -0.272720
    24  C    0.291517
    25  C   -0.230623
    26  C    0.214887
    27  N   -0.643714
    28  H    0.273702
    29  H    0.028365
    30  H    0.062276
    31  H    0.084066
    32  H   -0.027840
    33  H   -0.057637
    34  H    0.075170
    35  H    0.069346
    36  H    0.050452
    37  H    0.048175
    38  H    0.398275
    39  H    0.390212
    40  H    0.400305
    41  N   -0.564816
    42  C   -0.000504
    43  C    0.442139
    44  O   -0.512599
    45  C   -0.152132
    46  C    0.796688
    47  O   -0.874229
    48  O   -0.717929
    49  H    0.409345
    50  H    0.113115
    51  H    0.060322
    52  H    0.036761
    53  N   -0.267288
    54  C   -0.152676
    55  C    0.503758
    56  O   -0.572514
    57  H    0.230965
    58  H    0.097674
    59  H    0.090749
    60  N   -0.051619
    61  C   -0.424491
    62  C    0.535766
    63  O   -0.547464
    64  C    0.014896
    65  C    0.567306
    66  N   -0.727955
    67  O   -0.576382
    68  H    0.285269
    69  H    0.209915
    70  H    0.083376
    71  H    0.032967
    72  H    0.370832
    73  H    0.338882
    74  N   -0.048941
    75  C   -0.497243
    76  C    0.703735
    77  O   -0.585452
    78  H    0.183730
    79  H    0.182727
    80  H    0.178052
    81  N   -0.517827
    82  C    0.380008
    83  C    0.437849
    84  O   -0.491484
    85  C   -0.094455
    86  C   -0.218520
    87  C    0.109235
    88  C    0.041430
    89  C   -0.371529
    90  C   -0.382938
    91  C    0.454464
    92  O   -0.560099
    93  H    0.258977
    94  H    0.009709
    95  H    0.025623
    96  H    0.044824
    97  H    0.049184
    98  H    0.101118
    99  H    0.198855
   100  H    0.126465
   101  H    0.408818
   102  N   -0.659918
   103  C   -0.082309
   104  C    0.689366
   105  O   -0.568944
   106  C    0.282687
   107  C    0.086269
   108  C   -0.549309
   109  C   -0.459916
   110  H    0.341634
   111  H    0.069654
   112  H   -0.002375
   113  H    0.036745
   114  H    0.101935
   115  H    0.130989
   116  H    0.098380
   117  H    0.147962
   118  H    0.109547
   119  H    0.105863
   120  H    0.100785
   121  N   -0.406587
   122  C   -0.158846
   123  C    0.616686
   124  O   -0.540988
   125  C    0.163295
   126  O   -0.550319
   127  H    0.408723
   128  H    0.085039
   129  H    0.017144
   130  H    0.006849
   131  H    0.356684
   132  N   -0.429113
   133  C    0.117565
   134  C    0.590211
   135  O   -0.552303
   136  C   -0.432161
   137  H    0.281064
   138  H    0.078259
   139  H    0.155186
   140  H    0.141404
   141  H    0.106431
   142  N   -0.464662
   143  C    0.104567
   144  C    0.285442
   145  O   -0.483058
   146  C   -0.263694
   147  H    0.269149
   148  H    0.110234
   149  H    0.027348
   150  H    0.105146
   151  H    0.084446
   152  N   -0.001066
   153  C   -0.191814
   154  C    0.449206
   155  O   -0.554755
   156  C   -0.074676
   157  C   -0.210598
   158  C    0.795008
   159  O   -0.693786
   160  O   -0.763401
   161  H    0.266990
   162  H    0.114112
   163  H    0.177356
   164  H   -0.124086
   165  H    0.040586
   166  H    0.051463
   167  N    0.019449
   168  C   -0.280484
   169  H    0.106599
   170  H    0.077577
   171  H    0.114270
   172  H    0.100613
   173  Ca   1.645437
   174  O   -0.842111
   175  H    0.418872
   176  H    0.437310
 Sum of ESP charges =   0.00000

 Normal termination of Gaussian 16 at Wed Sep 18 19:36:55 2019.
